<event>
 6    1  0.1831439E-005  0.1483103E+04  0.7818608E-02  0.8895768E-01
          2   -1    0    0  501    0  0.00000000000E+00  0.00000000000E+00  0.69839436133E+03  0.69839436133E+03  0.00000000000E+00 0. -1.
         -2   -1    0    0    0  501 -0.00000000000E+00 -0.00000000000E+00 -0.78737527996E+03  0.78737527996E+03  0.00000000000E+00 0.  1.
         23    2    1    2    0    0 -0.13286497902E+03 -0.39439398808E+03 -0.65614846885E+03  0.78229345085E+03  0.90843324406E+02 0.  0.
         11    1    3    3    0    0 -0.60501123420E+02 -0.25061837248E+03 -0.33170011890E+03  0.42011298889E+03  0.00000000000E+00 0. -1.
        -11    1    3    3    0    0 -0.72363855602E+02 -0.14377561560E+03 -0.32444834996E+03  0.36218046196E+03  0.00000000000E+00 0.  1.
         22    1    1    2    0    0  0.13286497902E+03  0.39439398808E+03  0.56716755022E+03  0.70347619043E+03  0.00000000000E+00 0. -1.
<mgrwt>
<rscale>  0 0.14831028E+04</rscale>
<asrwt>0</asrwt>
<pdfrwt beam="1">  1        2 0.10744529E+00 0.14831028E+04</pdfrwt>
<pdfrwt beam="2">  1       -2 0.12113466E+00 0.14831028E+04</pdfrwt>
<totfact> 0.20616922E+01</totfact>
</mgrwt>
</event>
<event>
 6    1  0.1831439E-005  0.1571712E+04  0.7818608E-02  0.8838118E-01
         -2   -1    0    0    0  501 -0.00000000000E+00  0.00000000000E+00  0.25136116910E+03  0.25136116910E+03  0.00000000000E+00 0.  1.
          2   -1    0    0  501    0  0.00000000000E+00 -0.00000000000E+00 -0.24569005409E+04  0.24569005409E+04  0.00000000000E+00 0. -1.
         23    2    1    2    0    0 -0.50388824150E+03 -0.20715995428E+03 -0.13698745523E+03  0.56916712628E+03  0.91471570252E+02 0.  0.
         11    1    3    3    0    0 -0.16152164908E+03 -0.21467246777E+02 -0.42087101193E+02  0.16828966069E+03  0.00000000000E+00 0. -1.
        -11    1    3    3    0    0 -0.34236659242E+03 -0.18569270750E+03 -0.94900354033E+02  0.40087746559E+03  0.00000000000E+00 0.  1.
         22    1    1    2    0    0  0.50388824150E+03  0.20715995428E+03 -0.20685519166E+04  0.21390945837E+04  0.00000000000E+00 0. -1.
<mgrwt>
<rscale>  0 0.15717117E+04</rscale>
<asrwt>0</asrwt>
<pdfrwt beam="1">  1        2 0.37798469E+00 0.15717117E+04</pdfrwt>
<pdfrwt beam="2">  1       -2 0.38670950E-01 0.15717117E+04</pdfrwt>
<totfact> 0.22431515E+01</totfact>
</mgrwt>
</event>
<event>
 6    1  0.1831439E-005  0.2339454E+04  0.7818608E-02  0.8462525E-01
         -2   -1    0    0    0  501 -0.00000000000E+00  0.00000000000E+00  0.82873438471E+03  0.82873438471E+03  0.00000000000E+00 0.  1.
          2   -1    0    0  501    0  0.00000000000E+00 -0.00000000000E+00 -0.16510257273E+04  0.16510257273E+04  0.00000000000E+00 0. -1.
         23    2    1    2    0    0 -0.96608277732E+03  0.17660437162E+03 -0.10818461153E+04  0.14639482609E+04  0.90821014800E+02 0.  0.
         11    1    3    3    0    0 -0.47877404442E+03  0.13365626043E+03 -0.54292527135E+03  0.73610898095E+03  0.00000000000E+00 0. -1.
        -11    1    3    3    0    0 -0.48730873290E+03  0.42948111193E+02 -0.53892084397E+03  0.72783927998E+03  0.00000000000E+00 0.  1.
         22    1    1    2    0    0  0.96608277732E+03 -0.17660437162E+03  0.25955477274E+03  0.10158118511E+04  0.00000000000E+00 0.  1.
<mgrwt>
<rscale>  0 0.23394545E+04</rscale>
<asrwt>0</asrwt>
<pdfrwt beam="1">  1        2 0.25400395E+00 0.23394545E+04</pdfrwt>
<pdfrwt beam="2">  1       -2 0.12749760E+00 0.23394545E+04</pdfrwt>
<totfact> 0.43057896E+00</totfact>
</mgrwt>
</event>
<event>
 6    1  0.1831439E-005  0.6756542E+03  0.7818608E-02  0.9759797E-01
         -2   -1    0    0    0  501 -0.00000000000E+00  0.00000000000E+00  0.14203987995E+03  0.14203987995E+03  0.00000000000E+00 0.  1.
          2   -1    0    0  501    0  0.00000000000E+00 -0.00000000000E+00 -0.80348661676E+03  0.80348661676E+03  0.00000000000E+00 0. -1.
         23    2    1    2    0    0  0.90318369810E+02  0.30469793564E+03 -0.20399744128E+03  0.38851832991E+03  0.91286892341E+02 0.  0.
         11    1    3    3    0    0  0.45429496280E+02  0.24712861573E+03 -0.12393930144E+03  0.28017377159E+03  0.00000000000E+00 0.  1.
        -11    1    3    3    0    0  0.44888873530E+02  0.57569319914E+02 -0.80058139843E+02  0.10834455832E+03  0.00000000000E+00 0. -1.
         22    1    1    2    0    0 -0.90318369810E+02 -0.30469793564E+03 -0.45744929552E+03  0.55700816680E+03  0.00000000000E+00 0. -1.
<mgrwt>
<rscale>  0 0.67565418E+03</rscale>
<asrwt>0</asrwt>
<pdfrwt beam="1">  1        2 0.12361333E+00 0.67565418E+03</pdfrwt>
<pdfrwt beam="2">  1       -2 0.21852289E-01 0.67565418E+03</pdfrwt>
<totfact> 0.62869559E+02</totfact>
</mgrwt>
</event>
<event>
 6    1  0.1831439E-005  0.1235708E+04  0.7818608E-02  0.9082163E-01
          2   -1    0    0  501    0  0.00000000000E+00  0.00000000000E+00  0.45026302353E+04  0.45026302353E+04  0.00000000000E+00 0.  1.
         -2   -1    0    0    0  501 -0.00000000000E+00 -0.00000000000E+00 -0.84782401088E+02  0.84782401088E+02  0.00000000000E+00 0. -1.
         23    2    1    2    0    0  0.53015256012E+03 -0.24530555294E+03  0.29338796051E+04  0.29926091198E+04  0.82603001079E+02 0.  0.
         13    1    3    3    0    0  0.90688664697E+02 -0.52263372142E+02  0.38766552623E+03  0.40154757402E+03  0.00000000000E+00 0.  1.
        -13    1    3    3    0    0  0.43946389542E+03 -0.19304218080E+03  0.25462140788E+04  0.25910615458E+04  0.00000000000E+00 0. -1.
         22    1    1    2    0    0 -0.53015256012E+03  0.24530555294E+03  0.14839682292E+04  0.15948035166E+04  0.00000000000E+00 0.  1.
<mgrwt>
<rscale>  0 0.12357084E+04</rscale>
<asrwt>0</asrwt>
<pdfrwt beam="1">  1        2 0.69271215E+00 0.12357084E+04</pdfrwt>
<pdfrwt beam="2">  1       -2 0.13043450E-01 0.12357084E+04</pdfrwt>
<totfact> 0.56491411E+00</totfact>
</mgrwt>
</event>
<event>
 6    1  0.1831439E-005  0.1781244E+04  0.7818608E-02  0.8716338E-01
          1   -1    0    0  501    0  0.00000000000E+00  0.00000000000E+00  0.13241234493E+04  0.13241234493E+04  0.00000000000E+00 0. -1.
         -1   -1    0    0    0  501 -0.00000000000E+00 -0.00000000000E+00 -0.59904324862E+03  0.59904324862E+03  0.00000000000E+00 0.  1.
         23    2    1    2    0    0 -0.71783091496E+03  0.68447762030E+02 -0.19637762941E+03  0.75310223334E+03  0.92911150746E+02 0.  0.
         11    1    3    3    0    0 -0.43433105641E+03  0.54355766294E+02 -0.16390851607E+03  0.46740134524E+03  0.00000000000E+00 0. -1.
        -11    1    3    3    0    0 -0.28349985855E+03  0.14091995735E+02 -0.32469113343E+02  0.28570088810E+03  0.00000000000E+00 0.  1.
         22    1    1    2    0    0  0.71783091496E+03 -0.68447762030E+02  0.92145783008E+03  0.11700644646E+04  0.00000000000E+00 0. -1.
<mgrwt>
<rscale>  0 0.17812436E+04</rscale>
<asrwt>0</asrwt>
<pdfrwt beam="1">  1        1 0.20371130E+00 0.17812436E+04</pdfrwt>
<pdfrwt beam="2">  1       -1 0.92160500E-01 0.17812436E+04</pdfrwt>
<totfact> 0.94168062E+00</totfact>
</mgrwt>
</event>
<event>
 6    1  0.1831439E-005  0.3042890E+04  0.7818608E-02  0.8231588E-01
          2   -1    0    0  501    0  0.00000000000E+00  0.00000000000E+00  0.29033221909E+04  0.29033221909E+04  0.00000000000E+00 0.  1.
         -2   -1    0    0    0  501 -0.00000000000E+00 -0.00000000000E+00 -0.79729150868E+03  0.79729150868E+03  0.00000000000E+00 0. -1.
         23    2    1    2    0    0  0.54930334545E+03 -0.14031504257E+04  0.81014432750E+03  0.17131815054E+04  0.89954191583E+02 0.  0.
         13    1    3    3    0    0  0.29624682231E+03 -0.75856294528E+03  0.38684612340E+03  0.90157076532E+03  0.00000000000E+00 0. -1.
        -13    1    3    3    0    0  0.25305652314E+03 -0.64458748038E+03  0.42329820410E+03  0.81161074004E+03  0.00000000000E+00 0.  1.
         22    1    1    2    0    0 -0.54930334545E+03  0.14031504257E+04  0.12958863548E+04  0.19874321943E+04  0.00000000000E+00 0.  1.
<mgrwt>
<rscale>  0 0.30428895E+04</rscale>
<asrwt>0</asrwt>
<pdfrwt beam="1">  1        2 0.44666495E+00 0.30428895E+04</pdfrwt>
<pdfrwt beam="2">  1       -2 0.12266023E+00 0.30428895E+04</pdfrwt>
<totfact> 0.85704584E-01</totfact>
</mgrwt>
</event>
<event>
 6    1  0.1831439E-005  0.1695575E+04  0.7818608E-02  0.8763892E-01
         -2   -1    0    0    0  501 -0.00000000000E+00  0.00000000000E+00  0.37081541526E+03  0.37081541526E+03  0.00000000000E+00 0. -1.
          2   -1    0    0  501    0  0.00000000000E+00 -0.00000000000E+00 -0.19382789874E+04  0.19382789874E+04  0.00000000000E+00 0.  1.
         23    2    1    2    0    0  0.69090788946E+03 -0.18597974801E+03 -0.17299770730E+03  0.74177911000E+03  0.91465091289E+02 0.  0.
         11    1    3    3    0    0  0.60380572524E+03 -0.17646044217E+03 -0.12325659273E+03  0.64102404724E+03  0.00000000000E+00 0.  1.
        -11    1    3    3    0    0  0.87102164216E+02 -0.95193058400E+01 -0.49741114568E+02  0.10075506277E+03  0.00000000000E+00 0. -1.
         22    1    1    2    0    0 -0.69090788946E+03  0.18597974801E+03 -0.13944658649E+04  0.15673152927E+04  0.00000000000E+00 0. -1.
<mgrwt>
<rscale>  0 0.16955751E+04</rscale>
<asrwt>0</asrwt>
<pdfrwt beam="1">  1        2 0.29819677E+00 0.16955751E+04</pdfrwt>
<pdfrwt beam="2">  1       -2 0.57048526E-01 0.16955751E+04</pdfrwt>
<totfact> 0.19824748E+01</totfact>
</mgrwt>
</event>
<event>
 6    1  0.1831439E-005  0.2235508E+04  0.7818608E-02  0.8503793E-01
          1   -1    0    0  501    0  0.00000000000E+00  0.00000000000E+00  0.94274774693E+03  0.94274774693E+03  0.00000000000E+00 0. -1.
         -1   -1    0    0    0  501 -0.00000000000E+00 -0.00000000000E+00 -0.13252470440E+04  0.13252470440E+04  0.00000000000E+00 0.  1.
         23    2    1    2    0    0 -0.49966401875E+03  0.92881775660E+03 -0.56161961584E+03  0.11982047904E+04  0.88947008396E+02 0.  0.
         11    1    3    3    0    0 -0.24856311384E+03  0.38562220593E+03 -0.27227162224E+03  0.53349783837E+03  0.00000000000E+00 0.  1.
        -11    1    3    3    0    0 -0.25110090490E+03  0.54319555067E+03 -0.28934799360E+03  0.66470695206E+03  0.00000000000E+00 0. -1.
         22    1    1    2    0    0  0.49966401875E+03 -0.92881775660E+03  0.17912031876E+03  0.10697900005E+04  0.00000000000E+00 0. -1.
<mgrwt>
<rscale>  0 0.22355077E+04</rscale>
<asrwt>0</asrwt>
<pdfrwt beam="1">  1        1 0.14503812E+00 0.22355077E+04</pdfrwt>
<pdfrwt beam="2">  1       -1 0.20388416E+00 0.22355077E+04</pdfrwt>
<totfact> 0.21606887E+00</totfact>
</mgrwt>
</event>
<event>
 6    1  0.1831439E-005  0.7082186E+03  0.7818608E-02  0.9703280E-01
          2   -1    0    0  501    0  0.00000000000E+00  0.00000000000E+00  0.84073289943E+03  0.84073289943E+03  0.00000000000E+00 0. -1.
         -2   -1    0    0    0  501 -0.00000000000E+00 -0.00000000000E+00 -0.14914773545E+03  0.14914773545E+03  0.00000000000E+00 0.  1.
         23    2    1    2    0    0  0.12672377892E+03 -0.32085474682E+03  0.28437822041E+03  0.45619141858E+03  0.90735623874E+02 0.  0.
         13    1    3    3    0    0  0.49662261250E+02 -0.16809886527E+03  0.19830758086E+03  0.26466859528E+03  0.00000000000E+00 0. -1.
        -13    1    3    3    0    0  0.77061517671E+02 -0.15275588155E+03  0.86070639547E+02  0.19152282330E+03  0.00000000000E+00 0.  1.
         22    1    1    2    0    0 -0.12672377892E+03  0.32085474682E+03  0.40720694357E+03  0.53368921630E+03  0.00000000000E+00 0. -1.
<mgrwt>
<rscale>  0 0.70821863E+03</rscale>
<asrwt>0</asrwt>
<pdfrwt beam="1">  1        2 0.12934352E+00 0.70821863E+03</pdfrwt>
<pdfrwt beam="2">  1       -2 0.22945806E-01 0.70821863E+03</pdfrwt>
<totfact> 0.54209298E+02</totfact>
</mgrwt>
</event>
<event>
 6    1  0.1831439E-005  0.1907485E+04  0.7818608E-02  0.8651140E-01
         -1   -1    0    0    0  501 -0.00000000000E+00  0.00000000000E+00  0.50411944522E+03  0.50411944522E+03  0.00000000000E+00 0.  1.
          1   -1    0    0  501    0  0.00000000000E+00 -0.00000000000E+00 -0.18043829021E+04  0.18043829021E+04  0.00000000000E+00 0. -1.
         23    2    1    2    0    0 -0.30594274811E+03  0.41236267899E+03 -0.16210827191E+04  0.17030529743E+04  0.94001632920E+02 0.  0.
         11    1    3    3    0    0 -0.92038302020E+02  0.14632457634E+03 -0.69128694203E+03  0.71257249940E+03  0.00000000000E+00 0. -1.
        -11    1    3    3    0    0 -0.21390444609E+03  0.26603810265E+03 -0.92979577710E+03  0.99048047493E+03  0.00000000000E+00 0.  1.
         22    1    1    2    0    0  0.30594274811E+03 -0.41236267899E+03  0.32081926229E+03  0.60544937294E+03  0.00000000000E+00 0.  1.
<mgrwt>
<rscale>  0 0.19074847E+04</rscale>
<asrwt>0</asrwt>
<pdfrwt beam="1">  1        1 0.27759737E+00 0.19074847E+04</pdfrwt>
<pdfrwt beam="2">  1       -1 0.77556838E-01 0.19074847E+04</pdfrwt>
<totfact> 0.63027355E+00</totfact>
</mgrwt>
</event>
<event>
 6    1  0.1831439E-005  0.3148481E+04  0.7818608E-02  0.8202557E-01
         -2   -1    0    0    0  501 -0.00000000000E+00  0.00000000000E+00  0.12547321329E+04  0.12547321329E+04  0.00000000000E+00 0.  1.
          2   -1    0    0  501    0  0.00000000000E+00 -0.00000000000E+00 -0.19751088851E+04  0.19751088851E+04  0.00000000000E+00 0. -1.
         23    2    1    2    0    0 -0.90277899097E+02  0.48454348628E+03  0.11718125654E+04  0.12745116589E+04  0.91119652352E+02 0.  0.
         11    1    3    3    0    0 -0.80404800502E+02  0.21679493915E+03  0.48536262761E+03  0.53762613205E+03  0.00000000000E+00 0.  1.
        -11    1    3    3    0    0 -0.98730985946E+01  0.26774854713E+03  0.68644993775E+03  0.73688552680E+03  0.00000000000E+00 0. -1.
         22    1    1    2    0    0  0.90277899097E+02 -0.48454348628E+03 -0.18921893176E+04  0.19553293591E+04  0.00000000000E+00 0. -1.
<mgrwt>
<rscale>  0 0.31484806E+04</rscale>
<asrwt>0</asrwt>
<pdfrwt beam="1">  1        2 0.30386290E+00 0.31484806E+04</pdfrwt>
<pdfrwt beam="2">  1       -2 0.19303571E+00 0.31484806E+04</pdfrwt>
<totfact> 0.86283843E-01</totfact>
</mgrwt>
</event>
<event>
 6    1  0.1831439E-005  0.4459625E+04  0.7818608E-02  0.7917744E-01
         -1   -1    0    0    0  501 -0.00000000000E+00  0.00000000000E+00  0.12796213735E+04  0.12796213735E+04  0.00000000000E+00 0. -1.
          1   -1    0    0  501    0  0.00000000000E+00 -0.00000000000E+00 -0.38855741728E+04  0.38855741728E+04  0.00000000000E+00 0.  1.
         23    2    1    2    0    0 -0.18470610428E+03 -0.14331209587E+04  0.66200541278E+03  0.15920312759E+04  0.91435166589E+02 0.  0.
         11    1    3    3    0    0 -0.13685607626E+02 -0.41310866846E+03  0.20320835697E+03  0.46058626136E+03  0.00000000000E+00 0. -1.
        -11    1    3    3    0    0 -0.17102049665E+03 -0.10200122902E+04  0.45879705580E+03  0.11314450145E+04  0.00000000000E+00 0.  1.
         22    1    1    2    0    0  0.18470610428E+03  0.14331209587E+04 -0.32679582121E+04  0.35731642704E+04  0.00000000000E+00 0.  1.
<mgrwt>
<rscale>  0 0.44596250E+04</rscale>
<asrwt>0</asrwt>
<pdfrwt beam="1">  1        1 0.59778063E+00 0.44596250E+04</pdfrwt>
<pdfrwt beam="2">  1       -1 0.19686483E+00 0.44596250E+04</pdfrwt>
<totfact> 0.14345177E-02</totfact>
</mgrwt>
</event>
<event>
 6    1  0.1831439E-005  0.1499649E+04  0.7818608E-02  0.8884686E-01
          2   -1    0    0  501    0  0.00000000000E+00  0.00000000000E+00  0.85242742929E+03  0.85242742929E+03  0.00000000000E+00 0. -1.
         -2   -1    0    0    0  501 -0.00000000000E+00 -0.00000000000E+00 -0.65957180527E+03  0.65957180527E+03  0.00000000000E+00 0.  1.
         23    2    1    2    0    0 -0.33385584089E+03 -0.11996786291E+03  0.75964967645E+03  0.84333825282E+03  0.91103057664E+02 0.  0.
         13    1    3    3    0    0 -0.47281536894E+02 -0.26891542538E+02  0.20540968164E+03  0.21248961410E+03  0.00000000000E+00 0. -1.
        -13    1    3    3    0    0 -0.28657430400E+03 -0.93076320373E+02  0.55423999481E+03  0.63084863872E+03  0.00000000000E+00 0.  1.
         22    1    1    2    0    0  0.33385584089E+03  0.11996786291E+03 -0.56679405243E+03  0.66866098174E+03  0.00000000000E+00 0.  1.
<mgrwt>
<rscale>  0 0.14996494E+04</rscale>
<asrwt>0</asrwt>
<pdfrwt beam="1">  1        2 0.13114268E+00 0.14996494E+04</pdfrwt>
<pdfrwt beam="2">  1       -2 0.10147259E+00 0.14996494E+04</pdfrwt>
<totfact> 0.24373920E+01</totfact>
</mgrwt>
</event>
<event>
 6    1  0.1831439E-005  0.1819163E+04  0.7818608E-02  0.8696175E-01
          1   -1    0    0  501    0  0.00000000000E+00  0.00000000000E+00  0.10415709621E+04  0.10415709621E+04  0.00000000000E+00 0. -1.
         -1   -1    0    0    0  501 -0.00000000000E+00 -0.00000000000E+00 -0.79431804282E+03  0.79431804282E+03  0.00000000000E+00 0.  1.
         23    2    1    2    0    0 -0.77228762084E+03 -0.30870398125E+03 -0.24147986415E+03  0.87122012343E+03  0.94792728254E+02 0.  0.
         11    1    3    3    0    0 -0.37620731071E+03 -0.18366257773E+03 -0.83814071090E+02  0.42695278615E+03  0.00000000000E+00 0. -1.
        -11    1    3    3    0    0 -0.39608031014E+03 -0.12504140352E+03 -0.15766579306E+03  0.44426733728E+03  0.00000000000E+00 0.  1.
         22    1    1    2    0    0  0.77228762084E+03  0.30870398125E+03  0.48873278344E+03  0.96466888151E+03  0.00000000000E+00 0. -1.
<mgrwt>
<rscale>  0 0.18191631E+04</rscale>
<asrwt>0</asrwt>
<pdfrwt beam="1">  1        1 0.16024169E+00 0.18191631E+04</pdfrwt>
<pdfrwt beam="2">  1       -1 0.12220278E+00 0.18191631E+04</pdfrwt>
<totfact> 0.78349429E+00</totfact>
</mgrwt>
</event>
<event>
 6    1  0.1831439E-005  0.3121403E+04  0.7818608E-02  0.8209889E-01
         -2   -1    0    0    0  501 -0.00000000000E+00  0.00000000000E+00  0.12672181502E+04  0.12672181502E+04  0.00000000000E+00 0.  1.
          2   -1    0    0  501    0  0.00000000000E+00 -0.00000000000E+00 -0.19221541639E+04  0.19221541639E+04  0.00000000000E+00 0. -1.
         23    2    1    2    0    0  0.97151179746E+03 -0.23224055073E+02 -0.15738462835E+04  0.18519230203E+04  0.90841729079E+02 0.  0.
         11    1    3    3    0    0  0.50013278653E+03 -0.57359305351E+02 -0.81331120893E+03  0.95650301444E+03  0.00000000000E+00 0. -1.
        -11    1    3    3    0    0  0.47137901093E+03  0.34135250278E+02 -0.76053507461E+03  0.89542000590E+03  0.00000000000E+00 0.  1.
         22    1    1    2    0    0 -0.97151179746E+03  0.23224055073E+02  0.91891026980E+03  0.13374492937E+04  0.00000000000E+00 0.  1.
<mgrwt>
<rscale>  0 0.31214027E+04</rscale>
<asrwt>0</asrwt>
<pdfrwt beam="1">  1        2 0.29571602E+00 0.31214027E+04</pdfrwt>
<pdfrwt beam="2">  1       -2 0.19495664E+00 0.31214027E+04</pdfrwt>
<totfact> 0.89851486E-01</totfact>
</mgrwt>
</event>
<event>
 6    1  0.1831439E-005  0.1765646E+04  0.7818608E-02  0.8724785E-01
          2   -1    0    0  501    0  0.00000000000E+00  0.00000000000E+00  0.22622143103E+04  0.22622143103E+04  0.00000000000E+00 0. -1.
         -2   -1    0    0    0  501 -0.00000000000E+00 -0.00000000000E+00 -0.34451913570E+03  0.34451913570E+03  0.00000000000E+00 0.  1.
         23    2    1    2    0    0 -0.18804693203E+03  0.72854840244E+03  0.16366634371E+04  0.18035377906E+04  0.89089464215E+02 0.  0.
         11    1    3    3    0    0 -0.70831569446E+02  0.44470111250E+03  0.94898255762E+03  0.10504018685E+04  0.00000000000E+00 0.  1.
        -11    1    3    3    0    0 -0.11721536258E+03  0.28384728994E+03  0.68768087943E+03  0.75313592211E+03  0.00000000000E+00 0. -1.
         22    1    1    2    0    0  0.18804693203E+03 -0.72854840244E+03  0.28103173756E+03  0.80319565541E+03  0.00000000000E+00 0.  1.
<mgrwt>
<rscale>  0 0.17656456E+04</rscale>
<asrwt>0</asrwt>
<pdfrwt beam="1">  1        2 0.34803296E+00 0.17656456E+04</pdfrwt>
<pdfrwt beam="2">  1       -2 0.53002945E-01 0.17656456E+04</pdfrwt>
<totfact> 0.15142818E+01</totfact>
</mgrwt>
</event>
<event>
 6    1  0.1831439E-005  0.1605406E+04  0.7818608E-02  0.8817234E-01
         -4   -1    0    0    0  501 -0.00000000000E+00  0.00000000000E+00  0.12693109843E+04  0.12693109843E+04  0.00000000000E+00 0. -1.
          4   -1    0    0  501    0  0.00000000000E+00 -0.00000000000E+00 -0.50762322546E+03  0.50762322546E+03  0.00000000000E+00 0.  1.
         23    2    1    2    0    0  0.59823597770E+03  0.35805377146E+02 -0.19952172986E+03  0.64419770412E+03  0.12654426597E+03 0.  0.
         11    1    3    3    0    0  0.28899704722E+03  0.31012586139E+02 -0.16172675890E+03  0.33262083270E+03  0.00000000000E+00 0. -1.
        -11    1    3    3    0    0  0.30923893049E+03  0.47927910069E+01 -0.37794970962E+02  0.31157687142E+03  0.00000000000E+00 0.  1.
         22    1    1    2    0    0 -0.59823597770E+03 -0.35805377146E+02  0.96120948870E+03  0.11327365056E+04  0.00000000000E+00 0. -1.
<mgrwt>
<rscale>  0 0.16054055E+04</rscale>
<asrwt>0</asrwt>
<pdfrwt beam="1">  1        4 0.78095881E-01 0.16054055E+04</pdfrwt>
<pdfrwt beam="2">  1       -4 0.19527861E+00 0.16054055E+04</pdfrwt>
<totfact> 0.39748996E-01</totfact>
</mgrwt>
</event>
<event>
 6    1  0.1831439E-005  0.2893063E+04  0.7818608E-02  0.8274944E-01
          1   -1    0    0  501    0  0.00000000000E+00  0.00000000000E+00  0.15654711130E+04  0.15654711130E+04  0.00000000000E+00 0. -1.
         -1   -1    0    0    0  501 -0.00000000000E+00 -0.00000000000E+00 -0.13366289714E+04  0.13366289714E+04  0.00000000000E+00 0.  1.
         23    2    1    2    0    0  0.67043219592E+03  0.54032174105E+03  0.12789479063E+04  0.15441055961E+04  0.84424118049E+02 0.  0.
         11    1    3    3    0    0  0.60339980521E+03  0.45139705433E+03  0.11269592582E+04  0.13556872040E+04  0.00000000000E+00 0. -1.
        -11    1    3    3    0    0  0.67032390705E+02  0.88924686719E+02  0.15198864818E+03  0.18841839211E+03  0.00000000000E+00 0.  1.
         22    1    1    2    0    0 -0.67043219592E+03 -0.54032174105E+03 -0.10501057647E+04  0.13579944883E+04  0.00000000000E+00 0.  1.
<mgrwt>
<rscale>  0 0.28930635E+04</rscale>
<asrwt>0</asrwt>
<pdfrwt beam="1">  1        1 0.24084171E+00 0.28930635E+04</pdfrwt>
<pdfrwt beam="2">  1       -1 0.20563523E+00 0.28930635E+04</pdfrwt>
<totfact> 0.69693969E-01</totfact>
</mgrwt>
</event>
<event>
 6    1  0.1831439E-005  0.1884244E+04  0.7818608E-02  0.8662739E-01
          1   -1    0    0  501    0  0.00000000000E+00  0.00000000000E+00  0.89630239171E+03  0.89630239171E+03  0.00000000000E+00 0.  1.
         -1   -1    0    0    0  501 -0.00000000000E+00 -0.00000000000E+00 -0.99028366173E+03  0.99028366173E+03  0.00000000000E+00 0. -1.
         23    2    1    2    0    0  0.84256434558E+03  0.38003203419E+03 -0.21795742800E+03  0.95400409393E+03  0.90990919101E+02 0.  0.
         13    1    3    3    0    0  0.43294465320E+03  0.21880249507E+03 -0.73073922878E+02  0.49056641017E+03  0.00000000000E+00 0.  1.
        -13    1    3    3    0    0  0.40961969238E+03  0.16122953912E+03 -0.14488350512E+03  0.46343768376E+03  0.00000000000E+00 0. -1.
         22    1    1    2    0    0 -0.84256434558E+03 -0.38003203419E+03  0.12397615798E+03  0.93258195951E+03  0.00000000000E+00 0. -1.
<mgrwt>
<rscale>  0 0.18842437E+04</rscale>
<asrwt>0</asrwt>
<pdfrwt beam="1">  1        1 0.13789268E+00 0.18842437E+04</pdfrwt>
<pdfrwt beam="2">  1       -1 0.15235133E+00 0.18842437E+04</pdfrwt>
<totfact> 0.57430325E+00</totfact>
</mgrwt>
</event>
<event>
 6    1  0.1831439E-005  0.4440339E+04  0.7818608E-02  0.7921166E-01
         -2   -1    0    0    0  501 -0.00000000000E+00  0.00000000000E+00  0.12338908017E+04  0.12338908017E+04  0.00000000000E+00 0.  1.
          2   -1    0    0  501    0  0.00000000000E+00 -0.00000000000E+00 -0.39948052082E+04  0.39948052082E+04  0.00000000000E+00 0. -1.
         23    2    1    2    0    0  0.90645575261E+03  0.17878130399E+04 -0.25024679001E+04  0.32076239940E+04  0.92566724004E+02 0.  0.
         13    1    3    3    0    0  0.58120813085E+03  0.11790448658E+04 -0.17063710646E+04  0.21539851199E+04  0.00000000000E+00 0. -1.
        -13    1    3    3    0    0  0.32524762177E+03  0.60876817412E+03 -0.79609683558E+03  0.10536388741E+04  0.00000000000E+00 0.  1.
         22    1    1    2    0    0 -0.90645575261E+03 -0.17878130399E+04 -0.25844650636E+03  0.20210720160E+04  0.00000000000E+00 0.  1.
<mgrwt>
<rscale>  0 0.44403394E+04</rscale>
<asrwt>0</asrwt>
<pdfrwt beam="1">  1        2 0.61458540E+00 0.44403394E+04</pdfrwt>
<pdfrwt beam="2">  1       -2 0.18982936E+00 0.44403394E+04</pdfrwt>
<totfact> 0.40706660E-02</totfact>
</mgrwt>
</event>
<event>
 6    1  0.1831439E-005  0.3674762E+04  0.7818608E-02  0.8073578E-01
          2   -1    0    0  501    0  0.00000000000E+00  0.00000000000E+00  0.20083008531E+04  0.20083008531E+04  0.00000000000E+00 0. -1.
         -2   -1    0    0    0  501 -0.00000000000E+00 -0.00000000000E+00 -0.16810075804E+04  0.16810075804E+04  0.00000000000E+00 0.  1.
         23    2    1    2    0    0  0.10450931780E+04 -0.99084178800E+02  0.16762541489E+04  0.19800007167E+04  0.92398275561E+02 0.  0.
         11    1    3    3    0    0  0.34376890629E+03 -0.98929226829E+01  0.48065180553E+03  0.59101699554E+03  0.00000000000E+00 0. -1.
        -11    1    3    3    0    0  0.70132427176E+03 -0.89191256117E+02  0.11956023433E+04  0.13889837212E+04  0.00000000000E+00 0.  1.
         22    1    1    2    0    0 -0.10450931780E+04  0.99084178800E+02 -0.13489608762E+04  0.17093077168E+04  0.00000000000E+00 0.  1.
<mgrwt>
<rscale>  0 0.36747620E+04</rscale>
<asrwt>0</asrwt>
<pdfrwt beam="1">  1        2 0.30896936E+00 0.36747620E+04</pdfrwt>
<pdfrwt beam="2">  1       -2 0.25861655E+00 0.36747620E+04</pdfrwt>
<totfact> 0.30467340E-01</totfact>
</mgrwt>
</event>
<event>
 6    1  0.1831439E-005  0.1095514E+04  0.7818608E-02  0.9209576E-01
          1   -1    0    0  501    0  0.00000000000E+00  0.00000000000E+00  0.17357118050E+03  0.17357118050E+03  0.00000000000E+00 0. -1.
         -1   -1    0    0    0  501 -0.00000000000E+00 -0.00000000000E+00 -0.17286138645E+04  0.17286138645E+04  0.00000000000E+00 0.  1.
         23    2    1    2    0    0 -0.53586304158E+03  0.86636672924E+02 -0.72038791576E+03  0.90654269226E+03  0.90585822798E+02 0.  0.
         13    1    3    3    0    0 -0.42869279921E+03  0.68020490606E+02 -0.51004721975E+03  0.66974059875E+03  0.00000000000E+00 0. -1.
        -13    1    3    3    0    0 -0.10717024236E+03  0.18616182318E+02 -0.21034069601E+03  0.23680209351E+03  0.00000000000E+00 0.  1.
         22    1    1    2    0    0  0.53586304158E+03 -0.86636672924E+02 -0.83465476828E+03  0.99564235277E+03  0.00000000000E+00 0. -1.
<mgrwt>
<rscale>  0 0.10955137E+04</rscale>
<asrwt>0</asrwt>
<pdfrwt beam="1">  1        1 0.26703258E-01 0.10955137E+04</pdfrwt>
<pdfrwt beam="2">  1       -1 0.26594060E+00 0.10955137E+04</pdfrwt>
<totfact> 0.98556829E+00</totfact>
</mgrwt>
</event>
<event>
 6    1  0.1831439E-005  0.2811372E+04  0.7818608E-02  0.8299747E-01
         -1   -1    0    0    0  501 -0.00000000000E+00  0.00000000000E+00  0.68431212146E+03  0.68431212146E+03  0.00000000000E+00 0.  1.
          1   -1    0    0  501    0  0.00000000000E+00 -0.00000000000E+00 -0.28875018962E+04  0.28875018962E+04  0.00000000000E+00 0. -1.
         23    2    1    2    0    0 -0.37040959059E+03 -0.55196925499E+03 -0.26742202958E+04  0.27571097307E+04  0.91249948747E+02 0.  0.
         13    1    3    3    0    0 -0.84798491347E+02 -0.88386491818E+02 -0.38453713118E+03  0.40357373716E+03  0.00000000000E+00 0. -1.
        -13    1    3    3    0    0 -0.28561109925E+03 -0.46358276317E+03 -0.22896831647E+04  0.23535359935E+04  0.00000000000E+00 0.  1.
         22    1    1    2    0    0  0.37040959059E+03  0.55196925499E+03  0.47103052115E+03  0.81470428691E+03  0.00000000000E+00 0.  1.
<mgrwt>
<rscale>  0 0.28113716E+04</rscale>
<asrwt>0</asrwt>
<pdfrwt beam="1">  1        1 0.44423106E+00 0.28113716E+04</pdfrwt>
<pdfrwt beam="2">  1       -1 0.10527879E+00 0.28113716E+04</pdfrwt>
<totfact> 0.52751952E-01</totfact>
</mgrwt>
</event>
<event>
 6    1  0.1831439E-005  0.2545402E+04  0.7818608E-02  0.8386987E-01
         -2   -1    0    0    0  501 -0.00000000000E+00  0.00000000000E+00  0.60845768162E+03  0.60845768162E+03  0.00000000000E+00 0.  1.
          2   -1    0    0  501    0  0.00000000000E+00 -0.00000000000E+00 -0.26620888182E+04  0.26620888182E+04  0.00000000000E+00 0. -1.
         23    2    1    2    0    0  0.38380047018E+03  0.10289300362E+04 -0.18504679234E+04  0.21537317830E+04  0.91264654361E+02 0.  0.
         13    1    3    3    0    0  0.77008488881E+02  0.28051053915E+03 -0.43093817872E+03  0.51992709471E+03  0.00000000000E+00 0. -1.
        -13    1    3    3    0    0  0.30679198130E+03  0.74841949710E+03 -0.14195297447E+04  0.16338046883E+04  0.00000000000E+00 0.  1.
         22    1    1    2    0    0 -0.38380047018E+03 -0.10289300362E+04 -0.20316321309E+03  0.11168147167E+04  0.00000000000E+00 0.  1.
<mgrwt>
<rscale>  0 0.25454024E+04</rscale>
<asrwt>0</asrwt>
<pdfrwt beam="1">  1        2 0.40955214E+00 0.25454024E+04</pdfrwt>
<pdfrwt beam="2">  1       -2 0.93608872E-01 0.25454024E+04</pdfrwt>
<totfact> 0.23970201E+00</totfact>
</mgrwt>
</event>
<event>
 6    1  0.1831439E-005  0.4178581E+04  0.7818608E-02  0.7969459E-01
         -2   -1    0    0    0  501 -0.00000000000E+00  0.00000000000E+00  0.13716121116E+04  0.13716121116E+04  0.00000000000E+00 0.  1.
          2   -1    0    0  501    0  0.00000000000E+00 -0.00000000000E+00 -0.31824848664E+04  0.31824848664E+04  0.00000000000E+00 0. -1.
         23    2    1    2    0    0  0.11493365899E+04 -0.10368189111E+04 -0.24336623741E+04  0.28856141458E+04  0.89935511312E+02 0.  0.
         11    1    3    3    0    0  0.30432782581E+03 -0.32785450035E+03 -0.68444925365E+03  0.81766422191E+03  0.00000000000E+00 0. -1.
        -11    1    3    3    0    0  0.84500876412E+03 -0.70896441079E+03 -0.17492131204E+04  0.20679499239E+04  0.00000000000E+00 0.  1.
         22    1    1    2    0    0 -0.11493365899E+04  0.10368189111E+04  0.62278961920E+03  0.16684828322E+04  0.00000000000E+00 0.  1.
<mgrwt>
<rscale>  0 0.41785810E+04</rscale>
<asrwt>0</asrwt>
<pdfrwt beam="1">  1        2 0.48961305E+00 0.41785810E+04</pdfrwt>
<pdfrwt beam="2">  1       -2 0.21101725E+00 0.41785810E+04</pdfrwt>
<totfact> 0.11665839E-01</totfact>
</mgrwt>
</event>
<event>
 6    1  0.1831439E-005  0.2121509E+04  0.7818608E-02  0.8551827E-01
         -1   -1    0    0    0  501 -0.00000000000E+00  0.00000000000E+00  0.58372868809E+03  0.58372868809E+03  0.00000000000E+00 0.  1.
          1   -1    0    0  501    0  0.00000000000E+00 -0.00000000000E+00 -0.19276075759E+04  0.19276075759E+04  0.00000000000E+00 0. -1.
         23    2    1    2    0    0  0.89786495455E+02 -0.10503172214E+04 -0.78886583670E+03  0.13200061808E+04  0.94229128627E+02 0.  0.
         11    1    3    3    0    0  0.70980348841E+02 -0.54668034827E+03 -0.46238304217E+03  0.71951073015E+03  0.00000000000E+00 0. -1.
        -11    1    3    3    0    0  0.18806146614E+02 -0.50363687309E+03 -0.32648279452E+03  0.60049545061E+03  0.00000000000E+00 0.  1.
         22    1    1    2    0    0 -0.89786495455E+02  0.10503172214E+04 -0.55501305107E+03  0.11913300832E+04  0.00000000000E+00 0.  1.
<mgrwt>
<rscale>  0 0.21215087E+04</rscale>
<asrwt>0</asrwt>
<pdfrwt beam="1">  1        1 0.29655501E+00 0.21215087E+04</pdfrwt>
<pdfrwt beam="2">  1       -1 0.89804413E-01 0.21215087E+04</pdfrwt>
<totfact> 0.37174962E+00</totfact>
</mgrwt>
</event>
<event>
 6    1  0.1831439E-005  0.1271071E+04  0.7818608E-02  0.9052826E-01
          2   -1    0    0  501    0  0.00000000000E+00  0.00000000000E+00  0.25348890963E+04  0.25348890963E+04  0.00000000000E+00 0. -1.
         -2   -1    0    0    0  501 -0.00000000000E+00 -0.00000000000E+00 -0.15933845709E+03  0.15933845709E+03  0.00000000000E+00 0.  1.
         23    2    1    2    0    0 -0.62260326043E+03 -0.26445627215E+02  0.14222210133E+04  0.15552931537E+04  0.88825628221E+02 0.  0.
         13    1    3    3    0    0 -0.33630798915E+03  0.19280227352E+02  0.83538434609E+03  0.90074513400E+03  0.00000000000E+00 0. -1.
        -13    1    3    3    0    0 -0.28629527128E+03 -0.45725854567E+02  0.58683666724E+03  0.65454801975E+03  0.00000000000E+00 0.  1.
         22    1    1    2    0    0  0.62260326043E+03  0.26445627215E+02  0.95332962586E+03  0.11389343996E+04  0.00000000000E+00 0.  1.
<mgrwt>
<rscale>  0 0.12710709E+04</rscale>
<asrwt>0</asrwt>
<pdfrwt beam="1">  1        2 0.38998291E+00 0.12710709E+04</pdfrwt>
<pdfrwt beam="2">  1       -2 0.24513611E-01 0.12710709E+04</pdfrwt>
<totfact> 0.48777084E+01</totfact>
</mgrwt>
</event>
<event>
 6    1  0.1831439E-005  0.2099303E+04  0.7818608E-02  0.8561551E-01
          2   -1    0    0  501    0  0.00000000000E+00  0.00000000000E+00  0.10287330167E+04  0.10287330167E+04  0.00000000000E+00 0. -1.
         -2   -1    0    0    0  501 -0.00000000000E+00 -0.00000000000E+00 -0.10709950551E+04  0.10709950551E+04  0.00000000000E+00 0.  1.
         23    2    1    2    0    0  0.33628641987E+03 -0.41073694451E+03 -0.92455068491E+03  0.10700549929E+04  0.91816801623E+02 0.  0.
         13    1    3    3    0    0  0.30725319332E+03 -0.32174850421E+03 -0.77542929999E+03  0.89398949884E+03  0.00000000000E+00 0.  1.
        -13    1    3    3    0    0  0.29033226555E+02 -0.88988440304E+02 -0.14912138492E+03  0.17606549404E+03  0.00000000000E+00 0. -1.
         22    1    1    2    0    0 -0.33628641987E+03  0.41073694451E+03  0.88228864653E+03  0.10296730790E+04  0.00000000000E+00 0. -1.
<mgrwt>
<rscale>  0 0.20993027E+04</rscale>
<asrwt>0</asrwt>
<pdfrwt beam="1">  1        2 0.15826662E+00 0.20993027E+04</pdfrwt>
<pdfrwt beam="2">  1       -2 0.16476847E+00 0.20993027E+04</pdfrwt>
<totfact> 0.51710369E+00</totfact>
</mgrwt>
</event>
<event>
 6    1  0.1831439E-005  0.7147763E+03  0.7818608E-02  0.9692291E-01
         -2   -1    0    0    0  501 -0.00000000000E+00  0.00000000000E+00  0.43944500462E+02  0.43944500462E+02  0.00000000000E+00 0.  1.
          2   -1    0    0  501    0  0.00000000000E+00 -0.00000000000E+00 -0.29065360887E+04  0.29065360887E+04  0.00000000000E+00 0. -1.
         23    2    1    2    0    0 -0.51261339878E+01 -0.26686900806E+03 -0.23988335024E+04  0.24153947018E+04  0.92108893720E+02 0.  0.
         13    1    3    3    0    0 -0.30821071223E+02 -0.23626934947E+03 -0.18828711827E+04  0.18978875190E+04  0.00000000000E+00 0.  1.
        -13    1    3    3    0    0  0.25694937236E+02 -0.30599658595E+02 -0.51596231972E+03  0.51750718283E+03  0.00000000000E+00 0. -1.
         22    1    1    2    0    0  0.51261339878E+01  0.26686900806E+03 -0.46375808577E+03  0.53508588734E+03  0.00000000000E+00 0.  1.
<mgrwt>
<rscale>  0 0.71477626E+03</rscale>
<asrwt>0</asrwt>
<pdfrwt beam="1">  1        2 0.44715945E+00 0.71477626E+03</pdfrwt>
<pdfrwt beam="2">  1       -2 0.67606916E-02 0.71477626E+03</pdfrwt>
<totfact> 0.27030528E+02</totfact>
</mgrwt>
</event>
<event>
 6    1  0.1831439E-005  0.2453490E+04  0.7818608E-02  0.8419745E-01
         -2   -1    0    0    0  501 -0.00000000000E+00  0.00000000000E+00  0.55283226061E+03  0.55283226061E+03  0.00000000000E+00 0.  1.
          2   -1    0    0  501    0  0.00000000000E+00 -0.00000000000E+00 -0.27221703929E+04  0.27221703929E+04  0.00000000000E+00 0. -1.
         23    2    1    2    0    0  0.45728384895E+03  0.55713352682E+03 -0.24084949091E+04  0.25155935088E+04  0.88637967363E+02 0.  0.
         13    1    3    3    0    0  0.31021591415E+03  0.32251227195E+03 -0.14003462197E+04  0.14701080280E+04  0.00000000000E+00 0. -1.
        -13    1    3    3    0    0  0.14706793481E+03  0.23462125487E+03 -0.10081486894E+04  0.10454854808E+04  0.00000000000E+00 0.  1.
         22    1    1    2    0    0 -0.45728384895E+03 -0.55713352682E+03  0.23915677676E+03  0.75940914473E+03  0.00000000000E+00 0.  1.
<mgrwt>
<rscale>  0 0.24534903E+04</rscale>
<asrwt>0</asrwt>
<pdfrwt beam="1">  1        2 0.41879545E+00 0.24534903E+04</pdfrwt>
<pdfrwt beam="2">  1       -2 0.85051117E-01 0.24534903E+04</pdfrwt>
<totfact> 0.27747100E+00</totfact>
</mgrwt>
</event>
<event>
 6    1  0.1831439E-005  0.1750792E+04  0.7818608E-02  0.8732915E-01
          1   -1    0    0  501    0  0.00000000000E+00  0.00000000000E+00  0.41394792368E+03  0.41394792368E+03  0.00000000000E+00 0. -1.
         -1   -1    0    0    0  501 -0.00000000000E+00 -0.00000000000E+00 -0.18512421941E+04  0.18512421941E+04  0.00000000000E+00 0.  1.
         23    2    1    2    0    0 -0.31331789633E+03  0.27541124403E+03  0.27106367747E+03  0.50663777689E+03  0.95848120643E+02 0.  0.
         13    1    3    3    0    0 -0.19164511855E+03  0.15437816749E+03  0.21298180408E+03  0.32545617052E+03  0.00000000000E+00 0. -1.
        -13    1    3    3    0    0 -0.12167277778E+03  0.12103307654E+03  0.58081873387E+02  0.18118160637E+03  0.00000000000E+00 0.  1.
         22    1    1    2    0    0  0.31331789633E+03 -0.27541124403E+03 -0.17083579479E+04  0.17585523409E+04  0.00000000000E+00 0.  1.
<mgrwt>
<rscale>  0 0.17507917E+04</rscale>
<asrwt>0</asrwt>
<pdfrwt beam="1">  1        1 0.63684296E-01 0.17507917E+04</pdfrwt>
<pdfrwt beam="2">  1       -1 0.28480649E+00 0.17507917E+04</pdfrwt>
<totfact> 0.22517435E+00</totfact>
</mgrwt>
</event>
<event>
 6    1  0.1831439E-005  0.1194743E+04  0.7818608E-02  0.9117471E-01
          2   -1    0    0  501    0  0.00000000000E+00  0.00000000000E+00  0.62803997716E+03  0.62803997716E+03  0.00000000000E+00 0.  1.
         -2   -1    0    0    0  501 -0.00000000000E+00 -0.00000000000E+00 -0.56820049072E+03  0.56820049072E+03  0.00000000000E+00 0. -1.
         23    2    1    2    0    0  0.18409307088E+03 -0.45430989123E+03  0.36579293660E+03  0.61840376976E+03  0.91274388378E+02 0.  0.
         11    1    3    3    0    0  0.50841333171E+02 -0.57548009000E+02  0.84176366782E+02  0.11393978771E+03  0.00000000000E+00 0.  1.
        -11    1    3    3    0    0  0.13325173771E+03 -0.39676188223E+03  0.28161656982E+03  0.50446398205E+03  0.00000000000E+00 0. -1.
         22    1    1    2    0    0 -0.18409307088E+03  0.45430989123E+03 -0.30595345016E+03  0.57783669811E+03  0.00000000000E+00 0. -1.
<mgrwt>
<rscale>  0 0.11947429E+04</rscale>
<asrwt>0</asrwt>
<pdfrwt beam="1">  1        2 0.96621535E-01 0.11947429E+04</pdfrwt>
<pdfrwt beam="2">  1       -2 0.87415460E-01 0.11947429E+04</pdfrwt>
<totfact> 0.52352562E+01</totfact>
</mgrwt>
</event>
<event>
 6    1  0.1831439E-005  0.1623329E+04  0.7818608E-02  0.8806343E-01
         -2   -1    0    0    0  501 -0.00000000000E+00  0.00000000000E+00  0.38203289239E+03  0.38203289239E+03  0.00000000000E+00 0.  1.
          2   -1    0    0  501    0  0.00000000000E+00 -0.00000000000E+00 -0.17244579050E+04  0.17244579050E+04  0.00000000000E+00 0. -1.
         23    2    1    2    0    0  0.14759419081E+03 -0.45935221356E+03  0.16924002019E+03  0.51969538757E+03  0.93019407470E+02 0.  0.
         11    1    3    3    0    0  0.83510644169E+02 -0.21688555676E+03  0.34361875855E+02  0.23493426939E+03  0.00000000000E+00 0. -1.
        -11    1    3    3    0    0  0.64083546645E+02 -0.24246665679E+03  0.13487814433E+03  0.28476111818E+03  0.00000000000E+00 0.  1.
         22    1    1    2    0    0 -0.14759419081E+03  0.45935221356E+03 -0.15116650328E+04  0.15867954099E+04  0.00000000000E+00 0. -1.
<mgrwt>
<rscale>  0 0.16233295E+04</rscale>
<asrwt>0</asrwt>
<pdfrwt beam="1">  1        2 0.26530121E+00 0.16233295E+04</pdfrwt>
<pdfrwt beam="2">  1       -2 0.58774292E-01 0.16233295E+04</pdfrwt>
<totfact> 0.24610246E+01</totfact>
</mgrwt>
</event>
<event>
 6    1  0.1831439E-005  0.3779370E+04  0.7818608E-02  0.8050597E-01
         -1   -1    0    0    0  501 -0.00000000000E+00  0.00000000000E+00  0.13470598030E+04  0.13470598030E+04  0.00000000000E+00 0.  1.
          1   -1    0    0  501    0  0.00000000000E+00 -0.00000000000E+00 -0.26508914607E+04  0.26508914607E+04  0.00000000000E+00 0. -1.
         23    2    1    2    0    0  0.11444830765E+03  0.16138414136E+04  0.37914755210E+03  0.16634274270E+04  0.75202495047E+02 0.  0.
         13    1    3    3    0    0  0.67540729993E+02  0.65428885650E+03  0.12299642968E+03  0.66916648128E+03  0.00000000000E+00 0.  1.
        -13    1    3    3    0    0  0.46907577654E+02  0.95955255713E+03  0.25615112242E+03  0.99426094575E+03  0.00000000000E+00 0. -1.
         22    1    1    2    0    0 -0.11444830765E+03 -0.16138414136E+04 -0.16829792098E+04  0.23345238367E+04  0.00000000000E+00 0. -1.
<mgrwt>
<rscale>  0 0.37793700E+04</rscale>
<asrwt>0</asrwt>
<pdfrwt beam="1">  1        1 0.40782946E+00 0.37793700E+04</pdfrwt>
<pdfrwt beam="2">  1       -1 0.20723997E+00 0.37793700E+04</pdfrwt>
<totfact> 0.11369221E-01</totfact>
</mgrwt>
</event>
<event>
 6    1  0.1831439E-005  0.7876929E+03  0.7818608E-02  0.9578004E-01
          1   -1    0    0  501    0  0.00000000000E+00  0.00000000000E+00  0.18957093299E+04  0.18957093299E+04  0.00000000000E+00 0. -1.
         -1   -1    0    0    0  501 -0.00000000000E+00 -0.00000000000E+00 -0.81824273797E+02  0.81824273797E+02  0.00000000000E+00 0.  1.
         23    2    1    2    0    0 -0.36927431916E+03 -0.11804898709E+03  0.81384468750E+03  0.90497599453E+03  0.79619653185E+02 0.  0.
         11    1    3    3    0    0 -0.13464899045E+03 -0.77128781527E+01  0.24057526172E+03  0.27580118867E+03  0.00000000000E+00 0. -1.
        -11    1    3    3    0    0 -0.23462532870E+03 -0.11033610893E+03  0.57326942577E+03  0.62917480586E+03  0.00000000000E+00 0.  1.
         22    1    1    2    0    0  0.36927431916E+03  0.11804898709E+03  0.10000403687E+04  0.10725576092E+04  0.00000000000E+00 0.  1.
<mgrwt>
<rscale>  0 0.78769293E+03</rscale>
<asrwt>0</asrwt>
<pdfrwt beam="1">  1        1 0.29164756E+00 0.78769293E+03</pdfrwt>
<pdfrwt beam="2">  1       -1 0.12588351E-01 0.78769293E+03</pdfrwt>
<totfact> 0.15690799E+02</totfact>
</mgrwt>
</event>
<event>
 6    1  0.1831439E-005  0.3075499E+04  0.7818608E-02  0.8222494E-01
          2   -1    0    0  501    0  0.00000000000E+00  0.00000000000E+00  0.28115917424E+04  0.28115917424E+04  0.00000000000E+00 0. -1.
         -2   -1    0    0    0  501 -0.00000000000E+00 -0.00000000000E+00 -0.84104417024E+03  0.84104417024E+03  0.00000000000E+00 0.  1.
         23    2    1    2    0    0  0.37823988915E+03  0.71386447866E+03 -0.56608759000E+03  0.99045901139E+03  0.88803074614E+02 0.  0.
         13    1    3    3    0    0  0.22491829527E+03  0.45786698155E+03 -0.30775169792E+03  0.59576968697E+03  0.00000000000E+00 0.  1.
        -13    1    3    3    0    0  0.15332159388E+03  0.25599749711E+03 -0.25833589208E+03  0.39468932442E+03  0.00000000000E+00 0. -1.
         22    1    1    2    0    0 -0.37823988915E+03 -0.71386447866E+03  0.25366351622E+04  0.26621769013E+04  0.00000000000E+00 0. -1.
<mgrwt>
<rscale>  0 0.30754986E+04</rscale>
<asrwt>0</asrwt>
<pdfrwt beam="1">  1        2 0.43255257E+00 0.30754986E+04</pdfrwt>
<pdfrwt beam="2">  1       -2 0.12939141E+00 0.30754986E+04</pdfrwt>
<totfact> 0.85030497E-01</totfact>
</mgrwt>
</event>
<event>
 6    1  0.1831439E-005  0.6899978E+03  0.7818608E-02  0.9734492E-01
          1   -1    0    0  501    0  0.00000000000E+00  0.00000000000E+00  0.13199730046E+04  0.13199730046E+04  0.00000000000E+00 0. -1.
         -1   -1    0    0    0  501 -0.00000000000E+00 -0.00000000000E+00 -0.90171715550E+02  0.90171715550E+02  0.00000000000E+00 0.  1.
         23    2    1    2    0    0 -0.25060349164E+03  0.16483061429E+03  0.94817891320E+03  0.99870529081E+03  0.91639320277E+02 0.  0.
         11    1    3    3    0    0 -0.63732247226E+02  0.65604490677E+02  0.17978679744E+03  0.20171524748E+03  0.00000000000E+00 0.  1.
        -11    1    3    3    0    0 -0.18687124442E+03  0.99226123612E+02  0.76839211576E+03  0.79699004333E+03  0.00000000000E+00 0. -1.
         22    1    1    2    0    0  0.25060349164E+03 -0.16483061429E+03  0.28162237582E+03  0.41143942932E+03  0.00000000000E+00 0.  1.
<mgrwt>
<rscale>  0 0.68999777E+03</rscale>
<asrwt>0</asrwt>
<pdfrwt beam="1">  1        1 0.20307276E+00 0.68999777E+03</pdfrwt>
<pdfrwt beam="2">  1       -1 0.13872573E-01 0.68999777E+03</pdfrwt>
<totfact> 0.33288496E+02</totfact>
</mgrwt>
</event>
<event>
 6    1  0.1831439E-005  0.2034514E+04  0.7818608E-02  0.8590652E-01
         -1   -1    0    0    0  501 -0.00000000000E+00  0.00000000000E+00  0.10547338872E+04  0.10547338872E+04  0.00000000000E+00 0.  1.
          1   -1    0    0  501    0  0.00000000000E+00 -0.00000000000E+00 -0.98111170231E+03  0.98111170231E+03  0.00000000000E+00 0. -1.
         23    2    1    2    0    0 -0.47749864729E+03 -0.59762801902E+03  0.70498814890E+03  0.10439851216E+04  0.87934275006E+02 0.  0.
         13    1    3    3    0    0 -0.24209823690E+03 -0.23348152852E+03  0.31379962812E+03  0.45999498593E+03  0.00000000000E+00 0.  1.
        -13    1    3    3    0    0 -0.23540041039E+03 -0.36414649050E+03  0.39118852077E+03  0.58399013565E+03  0.00000000000E+00 0. -1.
         22    1    1    2    0    0  0.47749864729E+03  0.59762801902E+03 -0.63136596402E+03  0.99186046791E+03  0.00000000000E+00 0.  1.
<mgrwt>
<rscale>  0 0.20345140E+04</rscale>
<asrwt>0</asrwt>
<pdfrwt beam="1">  1        1 0.15094026E+00 0.20345140E+04</pdfrwt>
<pdfrwt beam="2">  1       -1 0.16226675E+00 0.20345140E+04</pdfrwt>
<totfact> 0.40685335E+00</totfact>
</mgrwt>
</event>
<event>
 6    1  0.1831439E-005  0.3085663E+03  0.7818608E-02  0.1081035E+00
         -2   -1    0    0    0  501 -0.00000000000E+00  0.00000000000E+00  0.15125371999E+03  0.15125371999E+03  0.00000000000E+00 0.  1.
          2   -1    0    0  501    0  0.00000000000E+00 -0.00000000000E+00 -0.15737325116E+03  0.15737325116E+03  0.00000000000E+00 0. -1.
         23    2    1    2    0    0  0.13596197407E+03 -0.19079174060E+02  0.29543680562E+02  0.16677656421E+03  0.89955100085E+02 0.  0.
         13    1    3    3    0    0  0.86768660971E+02  0.62766839842E+01 -0.23504709924E+02  0.90114752827E+02  0.00000000000E+00 0. -1.
        -13    1    3    3    0    0  0.49193313104E+02 -0.25355858045E+02  0.53048390486E+02  0.76661811383E+02  0.00000000000E+00 0.  1.
         22    1    1    2    0    0 -0.13596197407E+03  0.19079174060E+02 -0.35663211733E+02  0.14185040694E+03  0.00000000000E+00 0.  1.
<mgrwt>
<rscale>  0 0.30856630E+03</rscale>
<asrwt>0</asrwt>
<pdfrwt beam="1">  1        2 0.24211269E-01 0.30856630E+03</pdfrwt>
<pdfrwt beam="2">  1       -2 0.23269803E-01 0.30856630E+03</pdfrwt>
<totfact> 0.35984086E+03</totfact>
</mgrwt>
</event>
<event>
 6    1  0.1831439E-005  0.1598760E+04  0.7818608E-02  0.8821310E-01
         -2   -1    0    0    0  501 -0.00000000000E+00  0.00000000000E+00  0.48999064943E+03  0.48999064943E+03  0.00000000000E+00 0.  1.
          2   -1    0    0  501    0  0.00000000000E+00 -0.00000000000E+00 -0.13041243041E+04  0.13041243041E+04  0.00000000000E+00 0. -1.
         23    2    1    2    0    0 -0.44955219111E+03 -0.58033176599E+03 -0.75647335992E+03  0.10577679968E+04  0.87971925025E+02 0.  0.
         13    1    3    3    0    0 -0.26799424742E+03 -0.29385140135E+03 -0.45110881386E+03  0.60138899614E+03  0.00000000000E+00 0.  1.
        -13    1    3    3    0    0 -0.18155794368E+03 -0.28648036464E+03 -0.30536454605E+03  0.45637900064E+03  0.00000000000E+00 0. -1.
         22    1    1    2    0    0  0.44955219111E+03  0.58033176599E+03 -0.57660294770E+02  0.73634695676E+03  0.00000000000E+00 0.  1.
<mgrwt>
<rscale>  0 0.15987604E+04</rscale>
<asrwt>0</asrwt>
<pdfrwt beam="1">  1        2 0.20063450E+00 0.15987604E+04</pdfrwt>
<pdfrwt beam="2">  1       -2 0.75383178E-01 0.15987604E+04</pdfrwt>
<totfact> 0.24893885E+01</totfact>
</mgrwt>
</event>
<event>
 6    1  0.1831439E-005  0.1621677E+04  0.7818608E-02  0.8807340E-01
          1   -1    0    0  501    0  0.00000000000E+00  0.00000000000E+00  0.45211415869E+03  0.45211415869E+03  0.00000000000E+00 0. -1.
         -1   -1    0    0    0  501 -0.00000000000E+00 -0.00000000000E+00 -0.14541888489E+04  0.14541888489E+04  0.00000000000E+00 0.  1.
         23    2    1    2    0    0  0.21437927480E+03  0.93079629733E+02  0.40649019179E+03  0.47848042838E+03  0.95325512780E+02 0.  0.
         13    1    3    3    0    0  0.11442146063E+03  0.38788691911E+02  0.12022424296E+03  0.17044266446E+03  0.00000000000E+00 0. -1.
        -13    1    3    3    0    0  0.99957814173E+02  0.54290937823E+02  0.28626594882E+03  0.30803776392E+03  0.00000000000E+00 0.  1.
         22    1    1    2    0    0 -0.21437927480E+03 -0.93079629733E+02 -0.14085648820E+04  0.14278225792E+04  0.00000000000E+00 0.  1.
<mgrwt>
<rscale>  0 0.16216774E+04</rscale>
<asrwt>0</asrwt>
<pdfrwt beam="1">  1        1 0.69556024E-01 0.16216774E+04</pdfrwt>
<pdfrwt beam="2">  1       -1 0.22372136E+00 0.16216774E+04</pdfrwt>
<totfact> 0.50640719E+00</totfact>
</mgrwt>
</event>
<event>
 6    1  0.1831439E-005  0.3501376E+04  0.7818608E-02  0.8113464E-01
          1   -1    0    0  501    0  0.00000000000E+00  0.00000000000E+00  0.33057910755E+04  0.33057910755E+04  0.00000000000E+00 0. -1.
         -1   -1    0    0    0  501 -0.00000000000E+00 -0.00000000000E+00 -0.92713324510E+03  0.92713324510E+03  0.00000000000E+00 0.  1.
         23    2    1    2    0    0 -0.58146901904E+03  0.29605865371E+03 -0.77220225795E+03  0.10152114305E+04  0.92741441350E+02 0.  0.
         11    1    3    3    0    0 -0.44042614655E+03  0.18119227513E+03 -0.53433929977E+03  0.71576834130E+03  0.00000000000E+00 0.  1.
        -11    1    3    3    0    0 -0.14104287249E+03  0.11486637858E+03 -0.23786295819E+03  0.29944308923E+03  0.00000000000E+00 0. -1.
         22    1    1    2    0    0  0.58146901904E+03 -0.29605865371E+03  0.31508600883E+04  0.32177128900E+04  0.00000000000E+00 0. -1.
<mgrwt>
<rscale>  0 0.35013762E+04</rscale>
<asrwt>0</asrwt>
<pdfrwt beam="1">  1        1 0.50858324E+00 0.35013762E+04</pdfrwt>
<pdfrwt beam="2">  1       -1 0.14263589E+00 0.35013762E+04</pdfrwt>
<totfact> 0.11494983E-01</totfact>
</mgrwt>
</event>
<event>
 6    1  0.1831439E-005  0.1384362E+04  0.7818608E-02  0.8965217E-01
          1   -1    0    0  501    0  0.00000000000E+00  0.00000000000E+00  0.14173973017E+04  0.14173973017E+04  0.00000000000E+00 0. -1.
         -1   -1    0    0    0  501 -0.00000000000E+00 -0.00000000000E+00 -0.33802403106E+03  0.33802403106E+03  0.00000000000E+00 0.  1.
         23    2    1    2    0    0  0.63457902092E+03 -0.23857198855E+03  0.70412172791E+03  0.98055305504E+03  0.78036904884E+02 0.  0.
         11    1    3    3    0    0  0.33549951140E+03 -0.11785283909E+03  0.42389628692E+03  0.55329673403E+03  0.00000000000E+00 0. -1.
        -11    1    3    3    0    0  0.29907950952E+03 -0.12071914945E+03  0.28022544099E+03  0.42725632100E+03  0.00000000000E+00 0.  1.
         22    1    1    2    0    0 -0.63457902092E+03  0.23857198855E+03  0.37525154273E+03  0.77486827773E+03  0.00000000000E+00 0.  1.
<mgrwt>
<rscale>  0 0.13843617E+04</rscale>
<asrwt>0</asrwt>
<pdfrwt beam="1">  1        1 0.21806112E+00 0.13843617E+04</pdfrwt>
<pdfrwt beam="2">  1       -1 0.52003698E-01 0.13843617E+04</pdfrwt>
<totfact> 0.27146568E+01</totfact>
</mgrwt>
</event>
<event>
 6    1  0.1831439E-005  0.2710748E+04  0.7818608E-02  0.8331526E-01
          1   -1    0    0  501    0  0.00000000000E+00  0.00000000000E+00  0.81550122476E+03  0.81550122476E+03  0.00000000000E+00 0. -1.
         -1   -1    0    0    0  501 -0.00000000000E+00 -0.00000000000E+00 -0.22526493211E+04  0.22526493211E+04  0.00000000000E+00 0.  1.
         23    2    1    2    0    0  0.45595296979E+03 -0.14869757108E+03 -0.21524137454E+04  0.22069832989E+04  0.88804685634E+02 0.  0.
         11    1    3    3    0    0  0.78987610908E+02 -0.28252551269E+02 -0.24544452533E+03  0.25938439495E+03  0.00000000000E+00 0. -1.
        -11    1    3    3    0    0  0.37696535889E+03 -0.12044501981E+03 -0.19069692201E+04  0.19475989040E+04  0.00000000000E+00 0.  1.
         22    1    1    2    0    0 -0.45595296979E+03  0.14869757108E+03  0.71526564909E+03  0.86116724687E+03  0.00000000000E+00 0. -1.
<mgrwt>
<rscale>  0 0.27107477E+04</rscale>
<asrwt>0</asrwt>
<pdfrwt beam="1">  1        1 0.12546173E+00 0.27107477E+04</pdfrwt>
<pdfrwt beam="2">  1       -1 0.34656143E+00 0.27107477E+04</pdfrwt>
<totfact> 0.30616980E-01</totfact>
</mgrwt>
</event>
<event>
 6    1  0.1831439E-005  0.1918121E+04  0.7818608E-02  0.8645889E-01
          2   -1    0    0  501    0  0.00000000000E+00  0.00000000000E+00  0.26305738983E+04  0.26305738983E+04  0.00000000000E+00 0. -1.
         -2   -1    0    0    0  501 -0.00000000000E+00 -0.00000000000E+00 -0.34965637419E+03  0.34965637419E+03  0.00000000000E+00 0.  1.
         23    2    1    2    0    0  0.76631728521E+03  0.94340561454E+02  0.26524825592E+03  0.82174355215E+03  0.93613594564E+02 0.  0.
         11    1    3    3    0    0  0.21306355409E+03  0.52664511774E+02  0.40766118108E+02  0.22322971412E+03  0.00000000000E+00 0. -1.
        -11    1    3    3    0    0  0.55325373112E+03  0.41676049681E+02  0.22448213782E+03  0.59851383803E+03  0.00000000000E+00 0.  1.
         22    1    1    2    0    0 -0.76631728521E+03 -0.94340561454E+02  0.20156692682E+04  0.21584867203E+04  0.00000000000E+00 0. -1.
<mgrwt>
<rscale>  0 0.19181209E+04</rscale>
<asrwt>0</asrwt>
<pdfrwt beam="1">  1        2 0.40470366E+00 0.19181209E+04</pdfrwt>
<pdfrwt beam="2">  1       -2 0.53793290E-01 0.19181209E+04</pdfrwt>
<totfact> 0.89000227E+00</totfact>
</mgrwt>
</event>
<event>
 6    1  0.1831439E-005  0.2515287E+04  0.7818608E-02  0.8397560E-01
          2   -1    0    0  501    0  0.00000000000E+00  0.00000000000E+00  0.37201235168E+04  0.37201235168E+04  0.00000000000E+00 0. -1.
         -2   -1    0    0    0  501 -0.00000000000E+00 -0.00000000000E+00 -0.42516510844E+03  0.42516510844E+03  0.00000000000E+00 0.  1.
         23    2    1    2    0    0  0.95233961111E+03 -0.78591753854E+03  0.12705683321E+04  0.17740500684E+04  0.91063969857E+02 0.  0.
         11    1    3    3    0    0  0.43542948162E+03 -0.30513009386E+03  0.52176992568E+03  0.74494769144E+03  0.00000000000E+00 0.  1.
        -11    1    3    3    0    0  0.51691012949E+03 -0.48078744469E+03  0.74879840638E+03  0.10291023770E+04  0.00000000000E+00 0. -1.
         22    1    1    2    0    0 -0.95233961111E+03  0.78591753854E+03  0.20243900763E+04  0.23712385568E+04  0.00000000000E+00 0.  1.
<mgrwt>
<rscale>  0 0.25152866E+04</rscale>
<asrwt>0</asrwt>
<pdfrwt beam="1">  1        2 0.57232667E+00 0.25152866E+04</pdfrwt>
<pdfrwt beam="2">  1       -2 0.65410019E-01 0.25152866E+04</pdfrwt>
<totfact> 0.10841776E+00</totfact>
</mgrwt>
</event>
<event>
 6    1  0.1831439E-005  0.2856094E+04  0.7818608E-02  0.8286062E-01
          2   -1    0    0  501    0  0.00000000000E+00  0.00000000000E+00  0.33159938210E+04  0.33159938210E+04  0.00000000000E+00 0. -1.
         -2   -1    0    0    0  501 -0.00000000000E+00 -0.00000000000E+00 -0.61499440523E+03  0.61499440523E+03  0.00000000000E+00 0.  1.
         23    2    1    2    0    0  0.12327995953E+04 -0.60669614491E+03  0.18802467174E+04  0.23305164063E+04  0.90021926636E+02 0.  0.
         11    1    3    3    0    0  0.20167159779E+03 -0.70373853200E+02  0.32636351979E+03  0.39004750944E+03  0.00000000000E+00 0.  1.
        -11    1    3    3    0    0  0.10311279975E+04 -0.53632229171E+03  0.15538831976E+04  0.19404688968E+04  0.00000000000E+00 0. -1.
         22    1    1    2    0    0 -0.12327995953E+04  0.60669614491E+03  0.82075269843E+03  0.16004718200E+04  0.00000000000E+00 0.  1.
<mgrwt>
<rscale>  0 0.28560936E+04</rscale>
<asrwt>0</asrwt>
<pdfrwt beam="1">  1        2 0.51015288E+00 0.28560936E+04</pdfrwt>
<pdfrwt beam="2">  1       -2 0.94614526E-01 0.28560936E+04</pdfrwt>
<totfact> 0.88528413E-01</totfact>
</mgrwt>
</event>
<event>
 6    1  0.1831439E-005  0.1424597E+04  0.7818608E-02  0.8936204E-01
          2   -1    0    0  501    0  0.00000000000E+00  0.00000000000E+00  0.73211106259E+03  0.73211106259E+03  0.00000000000E+00 0.  1.
         -2   -1    0    0    0  501 -0.00000000000E+00 -0.00000000000E+00 -0.69302241404E+03  0.69302241404E+03  0.00000000000E+00 0. -1.
         23    2    1    2    0    0  0.42098517482E+03  0.50740436616E+03  0.28152491148E+03  0.72266422478E+03  0.91102128251E+02 0.  0.
         13    1    3    3    0    0  0.16067429880E+03  0.26478341779E+03  0.13259737997E+03  0.33691030529E+03  0.00000000000E+00 0. -1.
        -13    1    3    3    0    0  0.26031087602E+03  0.24262094837E+03  0.14892753151E+03  0.38575391949E+03  0.00000000000E+00 0.  1.
         22    1    1    2    0    0 -0.42098517482E+03 -0.50740436616E+03 -0.24243626292E+03  0.70246925185E+03  0.00000000000E+00 0. -1.
<mgrwt>
<rscale>  0 0.14245973E+04</rscale>
<asrwt>0</asrwt>
<pdfrwt beam="1">  1        2 0.11263247E+00 0.14245973E+04</pdfrwt>
<pdfrwt beam="2">  1       -2 0.10661883E+00 0.14245973E+04</pdfrwt>
<totfact> 0.26636597E+01</totfact>
</mgrwt>
</event>
<event>
 6    1  0.1831439E-005  0.1036192E+04  0.7818608E-02  0.9269717E-01
         -1   -1    0    0    0  501 -0.00000000000E+00  0.00000000000E+00  0.44292154118E+03  0.44292154118E+03  0.00000000000E+00 0.  1.
          1   -1    0    0  501    0  0.00000000000E+00 -0.00000000000E+00 -0.60602961474E+03  0.60602961474E+03  0.00000000000E+00 0. -1.
         23    2    1    2    0    0 -0.11968826415E+03 -0.22892713617E+03 -0.53216012767E+03  0.59847104217E+03  0.90775947207E+02 0.  0.
         13    1    3    3    0    0 -0.10838354060E+02 -0.78664902090E+02 -0.96679021321E+02  0.12510983136E+03  0.00000000000E+00 0.  1.
        -13    1    3    3    0    0 -0.10884991009E+03 -0.15026223408E+03 -0.43548110635E+03  0.47336121081E+03  0.00000000000E+00 0. -1.
         22    1    1    2    0    0  0.11968826415E+03  0.22892713617E+03  0.36905205411E+03  0.45048011375E+03  0.00000000000E+00 0.  1.
<mgrwt>
<rscale>  0 0.10361922E+04</rscale>
<asrwt>0</asrwt>
<pdfrwt beam="1">  1        1 0.93235325E-01 0.10361922E+04</pdfrwt>
<pdfrwt beam="2">  1       -1 0.68141776E-01 0.10361922E+04</pdfrwt>
<totfact> 0.73659077E+01</totfact>
</mgrwt>
</event>
<event>
 6    1  0.1831439E-005  0.2346735E+04  0.7818608E-02  0.8459719E-01
          1   -1    0    0  501    0  0.00000000000E+00  0.00000000000E+00  0.18384710707E+04  0.18384710707E+04  0.00000000000E+00 0. -1.
         -1   -1    0    0    0  501 -0.00000000000E+00 -0.00000000000E+00 -0.74887824990E+03  0.74887824990E+03  0.00000000000E+00 0.  1.
         23    2    1    2    0    0 -0.10141194957E+04 -0.11357877998E+02 -0.10089126852E+03  0.10234376480E+04  0.93156955412E+02 0.  0.
         13    1    3    3    0    0 -0.34973300301E+03  0.40370494538E+02 -0.34940031112E+02  0.35378490075E+03  0.00000000000E+00 0. -1.
        -13    1    3    3    0    0 -0.66438649265E+03 -0.51728372536E+02 -0.65951237411E+02  0.66965274722E+03  0.00000000000E+00 0.  1.
         22    1    1    2    0    0  0.10141194957E+04  0.11357877998E+02  0.11904840893E+04  0.15639116726E+04  0.00000000000E+00 0. -1.
<mgrwt>
<rscale>  0 0.23467348E+04</rscale>
<asrwt>0</asrwt>
<pdfrwt beam="1">  1        1 0.28284170E+00 0.23467348E+04</pdfrwt>
<pdfrwt beam="2">  1       -1 0.11521204E+00 0.23467348E+04</pdfrwt>
<totfact> 0.23596035E+00</totfact>
</mgrwt>
</event>
<event>
 6    1  0.1831439E-005  0.2260432E+04  0.7818608E-02  0.8493688E-01
          1   -1    0    0  501    0  0.00000000000E+00  0.00000000000E+00  0.22522495223E+04  0.22522495223E+04  0.00000000000E+00 0. -1.
         -1   -1    0    0    0  501 -0.00000000000E+00 -0.00000000000E+00 -0.56716117715E+03  0.56716117715E+03  0.00000000000E+00 0.  1.
         23    2    1    2    0    0  0.57793134971E+03 -0.90375250905E+02  0.20475676296E+04  0.21312511521E+04  0.86752203747E+02 0.  0.
         11    1    3    3    0    0  0.73900532820E+02 -0.40901597199E+02  0.32239581071E+03  0.33327659409E+03  0.00000000000E+00 0. -1.
        -11    1    3    3    0    0  0.50403081689E+03 -0.49473653706E+02  0.17251718188E+04  0.17979745580E+04  0.00000000000E+00 0.  1.
         22    1    1    2    0    0 -0.57793134971E+03  0.90375250905E+02 -0.36247928441E+03  0.68815954733E+03  0.00000000000E+00 0.  1.
<mgrwt>
<rscale>  0 0.22604323E+04</rscale>
<asrwt>0</asrwt>
<pdfrwt beam="1">  1        1 0.34649992E+00 0.22604323E+04</pdfrwt>
<pdfrwt beam="2">  1       -1 0.87255567E-01 0.22604323E+04</pdfrwt>
<totfact> 0.23529915E+00</totfact>
</mgrwt>
</event>
<event>
 6    1  0.1831439E-005  0.2338950E+04  0.7818608E-02  0.8462720E-01
          2   -1    0    0  501    0  0.00000000000E+00  0.00000000000E+00  0.28687045931E+04  0.28687045931E+04  0.00000000000E+00 0. -1.
         -2   -1    0    0    0  501 -0.00000000000E+00 -0.00000000000E+00 -0.47675604370E+03  0.47675604370E+03  0.00000000000E+00 0.  1.
         23    2    1    2    0    0 -0.11044085999E+04  0.21453251680E+02  0.65584125659E+03  0.12877320032E+04  0.89147970145E+02 0.  0.
         13    1    3    3    0    0 -0.42913811791E+03  0.51364548012E+02  0.24851399032E+03  0.49855495627E+03  0.00000000000E+00 0.  1.
        -13    1    3    3    0    0 -0.67527048200E+03 -0.29911296331E+02  0.40732726627E+03  0.78917704690E+03  0.00000000000E+00 0. -1.
         22    1    1    2    0    0  0.11044085999E+04 -0.21453251680E+02  0.17361072928E+04  0.20577286337E+04  0.00000000000E+00 0. -1.
<mgrwt>
<rscale>  0 0.23389504E+04</rscale>
<asrwt>0</asrwt>
<pdfrwt beam="1">  1        2 0.44133916E+00 0.23389504E+04</pdfrwt>
<pdfrwt beam="2">  1       -2 0.73347085E-01 0.23389504E+04</pdfrwt>
<totfact> 0.31850149E+00</totfact>
</mgrwt>
</event>
<event>
 6    1  0.1831439E-005  0.4136292E+03  0.7818608E-02  0.1039160E+00
         -1   -1    0    0    0  501 -0.00000000000E+00  0.00000000000E+00  0.31545082084E+03  0.31545082084E+03  0.00000000000E+00 0.  1.
          1   -1    0    0  501    0  0.00000000000E+00 -0.00000000000E+00 -0.13559092702E+03  0.13559092702E+03  0.00000000000E+00 0. -1.
         23    2    1    2    0    0 -0.19487096992E+03  0.16931932022E+02  0.75623300689E+02  0.22939641724E+03  0.92964764264E+02 0.  0.
         13    1    3    3    0    0 -0.10119383963E+03  0.30337170902E+02 -0.40064824867E+01  0.10571938810E+03  0.00000000000E+00 0. -1.
        -13    1    3    3    0    0 -0.93677130292E+02 -0.13405238880E+02  0.79629783176E+02  0.12367702914E+03  0.00000000000E+00 0.  1.
         22    1    1    2    0    0  0.19487096992E+03 -0.16931932022E+02  0.10423659313E+03  0.22164533063E+03  0.00000000000E+00 0. -1.
<mgrwt>
<rscale>  0 0.41362915E+03</rscale>
<asrwt>0</asrwt>
<pdfrwt beam="1">  1        1 0.20860143E-01 0.41362915E+03</pdfrwt>
<pdfrwt beam="2">  1       -1 0.48530895E-01 0.41362915E+03</pdfrwt>
<totfact> 0.10543855E+03</totfact>
</mgrwt>
</event>
<event>
 6    1  0.1831439E-005  0.2514190E+04  0.7818608E-02  0.8397948E-01
          1   -1    0    0  501    0  0.00000000000E+00  0.00000000000E+00  0.40484002818E+04  0.40484002818E+04  0.00000000000E+00 0. -1.
         -1   -1    0    0    0  501 -0.00000000000E+00 -0.00000000000E+00 -0.39034880234E+03  0.39034880234E+03  0.00000000000E+00 0.  1.
         23    2    1    2    0    0 -0.79838601761E+03 -0.59909187615E+03  0.31757247710E+04  0.33301597270E+04  0.91677023741E+02 0.  0.
         11    1    3    3    0    0 -0.57827265118E+03 -0.46853663081E+03  0.22638265873E+04  0.23830309798E+04  0.00000000000E+00 0.  1.
        -11    1    3    3    0    0 -0.22011336643E+03 -0.13055524534E+03  0.91189818378E+03  0.94712874719E+03  0.00000000000E+00 0. -1.
         22    1    1    2    0    0  0.79838601761E+03  0.59909187615E+03  0.48232670847E+03  0.11085893572E+04  0.00000000000E+00 0.  1.
<mgrwt>
<rscale>  0 0.25141903E+04</rscale>
<asrwt>0</asrwt>
<pdfrwt beam="1">  1        1 0.62283078E+00 0.25141903E+04</pdfrwt>
<pdfrwt beam="2">  1       -1 0.60053665E-01 0.25141903E+04</pdfrwt>
<totfact> 0.21743695E-01</totfact>
</mgrwt>
</event>
<event>
 6    1  0.1831439E-005  0.5263660E+04  0.7818608E-02  0.7789074E-01
         -3   -1    0    0    0  501 -0.00000000000E+00  0.00000000000E+00  0.27833375825E+04  0.27833375825E+04  0.00000000000E+00 0.  1.
          3   -1    0    0  501    0  0.00000000000E+00 -0.00000000000E+00 -0.24885693412E+04  0.24885693412E+04  0.00000000000E+00 0. -1.
         23    2    1    2    0    0  0.20928891713E+04  0.10306852265E+04  0.13658630807E+04  0.27048577862E+04  0.90424382118E+02 0.  0.
         13    1    3    3    0    0  0.15930702197E+03  0.80135535773E+02  0.77436851329E+02  0.19441424147E+03  0.00000000000E+00 0.  1.
        -13    1    3    3    0    0  0.19335821493E+04  0.95054969068E+03  0.12884262294E+04  0.25104435447E+04  0.00000000000E+00 0. -1.
         22    1    1    2    0    0 -0.20928891713E+04 -0.10306852265E+04 -0.10710948394E+04  0.25670491375E+04  0.00000000000E+00 0. -1.
<mgrwt>
<rscale>  0 0.52636598E+04</rscale>
<asrwt>0</asrwt>
<pdfrwt beam="1">  1        3 0.38285682E+00 0.52636598E+04</pdfrwt>
<pdfrwt beam="2">  1       -3 0.42820578E+00 0.52636598E+04</pdfrwt>
<totfact> 0.18546333E-04</totfact>
</mgrwt>
</event>
<event>
 6    1  0.2323055E-005  0.2372684E+04  0.7818608E-02  0.8449801E-01
         -1   -1    0    0    0  501 -0.00000000000E+00  0.00000000000E+00  0.70556021084E+03  0.70556021084E+03  0.00000000000E+00 0.  1.
          1   -1    0    0  501    0  0.00000000000E+00 -0.00000000000E+00 -0.19947380770E+04  0.19947380770E+04  0.00000000000E+00 0. -1.
         23    2    1    2    0    0 -0.91371572936E+03  0.29807922940E+03 -0.14336416272E+04  0.17283942600E+04  0.91053508832E+02 0.  0.
         13    1    3    3    0    0 -0.27356803051E+03  0.86393349462E+02 -0.35598462856E+03  0.45719616569E+03  0.00000000000E+00 0.  1.
        -13    1    3    3    0    0 -0.64014769885E+03  0.21168587994E+03 -0.10776569987E+04  0.12711980943E+04  0.00000000000E+00 0. -1.
         22    1    1    2    0    0  0.91371572936E+03 -0.29807922940E+03  0.14446376111E+03  0.97190402785E+03  0.00000000000E+00 0.  1.
<mgrwt>
<rscale>  0 0.23726844E+04</rscale>
<asrwt>0</asrwt>
<pdfrwt beam="1">  1        1 0.30688278E+00 0.23726844E+04</pdfrwt>
<pdfrwt beam="2">  1       -1 0.10854773E+00 0.23726844E+04</pdfrwt>
<totfact> 0.21250172E+00</totfact>
</mgrwt>
</event>
<event>
 6    1  0.1831439E-005  0.1803292E+04  0.7818608E-02  0.8704551E-01
          1   -1    0    0  501    0  0.00000000000E+00  0.00000000000E+00  0.78801093575E+03  0.78801093575E+03  0.00000000000E+00 0. -1.
         -1   -1    0    0    0  501 -0.00000000000E+00 -0.00000000000E+00 -0.10316677186E+04  0.10316677186E+04  0.00000000000E+00 0.  1.
         23    2    1    2    0    0  0.82965915581E+03  0.30378279665E+03 -0.29108321862E+03  0.93488061573E+03  0.93027002301E+02 0.  0.
         11    1    3    3    0    0  0.75516249123E+03  0.30126297312E+03 -0.27766290955E+03  0.85914286267E+03  0.00000000000E+00 0. -1.
        -11    1    3    3    0    0  0.74496664574E+02  0.25198235256E+01 -0.13420309072E+02  0.75737753061E+02  0.00000000000E+00 0.  1.
         22    1    1    2    0    0 -0.82965915581E+03 -0.30378279665E+03  0.47426435755E+02  0.88479803863E+03  0.00000000000E+00 0. -1.
<mgrwt>
<rscale>  0 0.18032919E+04</rscale>
<asrwt>0</asrwt>
<pdfrwt beam="1">  1        1 0.12123245E+00 0.18032919E+04</pdfrwt>
<pdfrwt beam="2">  1       -1 0.15871811E+00 0.18032919E+04</pdfrwt>
<totfact> 0.63864553E+00</totfact>
</mgrwt>
</event>
<event>
 6    1  0.1831439E-005  0.3688833E+04  0.7818608E-02  0.8070441E-01
         -2   -1    0    0    0  501 -0.00000000000E+00  0.00000000000E+00  0.22236108242E+04  0.22236108242E+04  0.00000000000E+00 0.  1.
          2   -1    0    0  501    0  0.00000000000E+00 -0.00000000000E+00 -0.15298862359E+04  0.15298862359E+04  0.00000000000E+00 0. -1.
         23    2    1    2    0    0 -0.43600966818E+03 -0.76678886773E+03 -0.13001281284E+04  0.15732405949E+04  0.81750967163E+02 0.  0.
         11    1    3    3    0    0 -0.41404063646E+03 -0.69013431805E+03 -0.12059562022E+04  0.14498432285E+04  0.00000000000E+00 0. -1.
        -11    1    3    3    0    0 -0.21969031724E+02 -0.76654549680E+02 -0.94171926218E+02  0.12339736638E+03  0.00000000000E+00 0.  1.
         22    1    1    2    0    0  0.43600966818E+03  0.76678886773E+03  0.19938527166E+04  0.21802564652E+04  0.00000000000E+00 0.  1.
<mgrwt>
<rscale>  0 0.36888327E+04</rscale>
<asrwt>0</asrwt>
<pdfrwt beam="1">  1        2 0.23536711E+00 0.36888327E+04</pdfrwt>
<pdfrwt beam="2">  1       -2 0.34209397E+00 0.36888327E+04</pdfrwt>
<totfact> 0.17230338E-01</totfact>
</mgrwt>
</event>
<event>
 6    1  0.1831439E-005  0.1333368E+04  0.7818608E-02  0.9003515E-01
         -2   -1    0    0    0  501 -0.00000000000E+00  0.00000000000E+00  0.46820745605E+03  0.46820745605E+03  0.00000000000E+00 0.  1.
          2   -1    0    0  501    0  0.00000000000E+00 -0.00000000000E+00 -0.94929628295E+03  0.94929628295E+03  0.00000000000E+00 0. -1.
         23    2    1    2    0    0 -0.24339268308E+03 -0.39838241556E+03  0.25941733833E+03  0.54211929321E+03  0.92991534226E+02 0.  0.
         13    1    3    3    0    0 -0.13219145687E+03 -0.23473333551E+03  0.20004480866E+03  0.33554767998E+03  0.00000000000E+00 0. -1.
        -13    1    3    3    0    0 -0.11120122621E+03 -0.16364908005E+03  0.59372529669E+02  0.20657161323E+03  0.00000000000E+00 0.  1.
         22    1    1    2    0    0  0.24339268308E+03  0.39838241556E+03 -0.74050616523E+03  0.87538444580E+03  0.00000000000E+00 0. -1.
<mgrwt>
<rscale>  0 0.13333681E+04</rscale>
<asrwt>0</asrwt>
<pdfrwt beam="1">  1        2 0.14604558E+00 0.13333681E+04</pdfrwt>
<pdfrwt beam="2">  1       -2 0.72031917E-01 0.13333681E+04</pdfrwt>
<totfact> 0.46415698E+01</totfact>
</mgrwt>
</event>
<event>
 6    1  0.1831439E-005  0.2223478E+04  0.7818608E-02  0.8508719E-01
         -2   -1    0    0    0  501 -0.00000000000E+00  0.00000000000E+00  0.68510188258E+03  0.68510188258E+03  0.00000000000E+00 0.  1.
          2   -1    0    0  501    0  0.00000000000E+00 -0.00000000000E+00 -0.18040580046E+04  0.18040580046E+04  0.00000000000E+00 0. -1.
         23    2    1    2    0    0 -0.51502998993E+03  0.24036029973E+03  0.50670591948E+03  0.76700831506E+03  0.92314150163E+02 0.  0.
         13    1    3    3    0    0 -0.13674678091E+03  0.98063359350E+02  0.11238058812E+03  0.20234994718E+03  0.00000000000E+00 0. -1.
        -13    1    3    3    0    0 -0.37828320902E+03  0.14229694038E+03  0.39432533136E+03  0.56465836788E+03  0.00000000000E+00 0.  1.
         22    1    1    2    0    0  0.51502998993E+03 -0.24036029973E+03 -0.16256620415E+04  0.17221515721E+04  0.00000000000E+00 0. -1.
<mgrwt>
<rscale>  0 0.22234779E+04</rscale>
<asrwt>0</asrwt>
<pdfrwt beam="1">  1        2 0.27754738E+00 0.22234779E+04</pdfrwt>
<pdfrwt beam="2">  1       -2 0.10540029E+00 0.22234779E+04</pdfrwt>
<totfact> 0.57042656E+00</totfact>
</mgrwt>
</event>
<event>
 6    1  0.1831439E-005  0.1711498E+04  0.7818608E-02  0.8754834E-01
         -1   -1    0    0    0  501 -0.00000000000E+00  0.00000000000E+00  0.62885064711E+03  0.62885064711E+03  0.00000000000E+00 0.  1.
          1   -1    0    0  501    0  0.00000000000E+00 -0.00000000000E+00 -0.11645149005E+04  0.11645149005E+04  0.00000000000E+00 0. -1.
         23    2    1    2    0    0 -0.23282988580E+03  0.27344091926E+02  0.59116312504E+03  0.64241055463E+03  0.90884680832E+02 0.  0.
         13    1    3    3    0    0 -0.14198486102E+03 -0.16991739075E+02  0.41941234263E+03  0.44311977287E+03  0.00000000000E+00 0.  1.
        -13    1    3    3    0    0 -0.90845024776E+02  0.44335831001E+02  0.17175078241E+03  0.19929078176E+03  0.00000000000E+00 0. -1.
         22    1    1    2    0    0  0.23282988580E+03 -0.27344091926E+02 -0.11268273784E+04  0.11509549929E+04  0.00000000000E+00 0. -1.
<mgrwt>
<rscale>  0 0.17114975E+04</rscale>
<asrwt>0</asrwt>
<pdfrwt beam="1">  1        1 0.17915614E+00 0.17114975E+04</pdfrwt>
<pdfrwt beam="2">  1       -1 0.96746253E-01 0.17114975E+04</pdfrwt>
<totfact> 0.11088025E+01</totfact>
</mgrwt>
</event>
<event>
 6    1  0.1831439E-005  0.5370621E+04  0.7818608E-02  0.7773747E-01
          2   -1    0    0  501    0  0.00000000000E+00  0.00000000000E+00  0.41177355196E+04  0.41177355196E+04  0.00000000000E+00 0. -1.
         -2   -1    0    0    0  501 -0.00000000000E+00 -0.00000000000E+00 -0.17511788804E+04  0.17511788804E+04  0.00000000000E+00 0.  1.
         23    2    1    2    0    0 -0.12542150241E+04  0.39749789967E+03  0.37407422111E+04  0.39664302626E+04  0.91415707040E+02 0.  0.
         13    1    3    3    0    0 -0.24687846162E+03  0.11687821106E+03  0.78543472836E+03  0.83157513403E+03  0.00000000000E+00 0.  1.
        -13    1    3    3    0    0 -0.10073365625E+04  0.28061968861E+03  0.29553074827E+04  0.31348551286E+04  0.00000000000E+00 0. -1.
         22    1    1    2    0    0  0.12542150241E+04 -0.39749789967E+03 -0.13741855719E+04  0.19024841374E+04  0.00000000000E+00 0.  1.
<mgrwt>
<rscale>  0 0.53706206E+04</rscale>
<asrwt>0</asrwt>
<pdfrwt beam="1">  1        2 0.63349777E+00 0.53706206E+04</pdfrwt>
<pdfrwt beam="2">  1       -2 0.26941214E+00 0.53706206E+04</pdfrwt>
<totfact> 0.93911546E-03</totfact>
</mgrwt>
</event>
<event>
 6    1  0.1831439E-005  0.2643477E+04  0.7818608E-02  0.8353581E-01
         -1   -1    0    0    0  501 -0.00000000000E+00  0.00000000000E+00  0.76132983559E+03  0.76132983559E+03  0.00000000000E+00 0.  1.
          1   -1    0    0  501    0  0.00000000000E+00 -0.00000000000E+00 -0.22946598814E+04  0.22946598814E+04  0.00000000000E+00 0. -1.
         23    2    1    2    0    0 -0.42359511323E+03 -0.11520800245E+04 -0.20582305941E+03  0.12479532125E+04  0.91120173757E+02 0.  0.
         13    1    3    3    0    0 -0.11378036647E+03 -0.32592884018E+03 -0.16964119470E+02  0.34563472338E+03  0.00000000000E+00 0.  1.
        -13    1    3    3    0    0 -0.30981474676E+03 -0.82615118427E+03 -0.18885893994E+03  0.90231848910E+03  0.00000000000E+00 0. -1.
         22    1    1    2    0    0  0.42359511323E+03  0.11520800245E+04 -0.13275069864E+04  0.18080365045E+04  0.00000000000E+00 0. -1.
<mgrwt>
<rscale>  0 0.26434773E+04</rscale>
<asrwt>0</asrwt>
<pdfrwt beam="1">  1        1 0.35302459E+00 0.26434773E+04</pdfrwt>
<pdfrwt beam="2">  1       -1 0.11712767E+00 0.26434773E+04</pdfrwt>
<totfact> 0.10811921E+00</totfact>
</mgrwt>
</event>
<event>
 6    1  0.1831439E-005  0.1583109E+04  0.7818608E-02  0.8830993E-01
         -2   -1    0    0    0  501 -0.00000000000E+00  0.00000000000E+00  0.58207890707E+03  0.58207890707E+03  0.00000000000E+00 0.  1.
          2   -1    0    0  501    0  0.00000000000E+00 -0.00000000000E+00 -0.10764144403E+04  0.10764144403E+04  0.00000000000E+00 0. -1.
         23    2    1    2    0    0 -0.54527156318E+03 -0.35220746002E+03  0.22166375399E+03  0.69204306319E+03  0.91747528393E+02 0.  0.
         11    1    3    3    0    0 -0.57598524540E+02 -0.75203359285E+02  0.32764167850E+02  0.10023285874E+03  0.00000000000E+00 0. -1.
        -11    1    3    3    0    0 -0.48767303864E+03 -0.27700410074E+03  0.18889958614E+03  0.59181020445E+03  0.00000000000E+00 0.  1.
         22    1    1    2    0    0  0.54527156318E+03  0.35220746002E+03 -0.71599928724E+03  0.96645028420E+03  0.00000000000E+00 0. -1.
<mgrwt>
<rscale>  0 0.15831085E+04</rscale>
<asrwt>0</asrwt>
<pdfrwt beam="1">  1        2 0.16560222E+00 0.15831085E+04</pdfrwt>
<pdfrwt beam="2">  1       -2 0.89550601E-01 0.15831085E+04</pdfrwt>
<totfact> 0.23135035E+01</totfact>
</mgrwt>
</event>
<event>
 6    1  0.1831439E-005  0.1093800E+04  0.7818608E-02  0.9211256E-01
         -1   -1    0    0    0  501 -0.00000000000E+00  0.00000000000E+00  0.18943475664E+03  0.18943475664E+03  0.00000000000E+00 0.  1.
          1   -1    0    0  501    0  0.00000000000E+00 -0.00000000000E+00 -0.15789055917E+04  0.15789055917E+04  0.00000000000E+00 0. -1.
         23    2    1    2    0    0 -0.51964335771E+02 -0.41973306847E+03 -0.12504841353E+04  0.13231511260E+04  0.90234076977E+02 0.  0.
         13    1    3    3    0    0  0.21947275458E+02 -0.89879722093E+02 -0.22080918616E+03  0.23940915612E+03  0.00000000000E+00 0. -1.
        -13    1    3    3    0    0 -0.73911611230E+02 -0.32985334638E+03 -0.10296749492E+04  0.10837419699E+04  0.00000000000E+00 0.  1.
         22    1    1    2    0    0  0.51964335771E+02  0.41973306847E+03 -0.13898669975E+03  0.44518922232E+03  0.00000000000E+00 0.  1.
<mgrwt>
<rscale>  0 0.10938000E+04</rscale>
<asrwt>0</asrwt>
<pdfrwt beam="1">  1        1 0.24290855E+00 0.10938000E+04</pdfrwt>
<pdfrwt beam="2">  1       -1 0.29143809E-01 0.10938000E+04</pdfrwt>
<totfact> 0.61753014E+01</totfact>
</mgrwt>
</event>
<event>
 6    1  0.2012210E-005  0.4861717E+04  0.7818608E-02  0.7850200E-01
         -2   -1    0    0    0  501 -0.00000000000E+00  0.00000000000E+00  0.17009527148E+04  0.17009527148E+04  0.00000000000E+00 0.  1.
          2   -1    0    0  501    0  0.00000000000E+00 -0.00000000000E+00 -0.34739779260E+04  0.34739779260E+04  0.00000000000E+00 0. -1.
         23    2    1    2    0    0 -0.49836421206E+03  0.17728766803E+04  0.80070527194E+03  0.20101957055E+04  0.91100112471E+02 0.  0.
         13    1    3    3    0    0 -0.18108547249E+03  0.62752016555E+03  0.33151485471E+03  0.73244495043E+03  0.00000000000E+00 0.  1.
        -13    1    3    3    0    0 -0.31727873957E+03  0.11453565147E+04  0.46919041722E+03  0.12777507550E+04  0.00000000000E+00 0. -1.
         22    1    1    2    0    0  0.49836421206E+03 -0.17728766803E+04 -0.25737304832E+04  0.31647349354E+04  0.00000000000E+00 0. -1.
<mgrwt>
<rscale>  0 0.48617166E+04</rscale>
<asrwt>0</asrwt>
<pdfrwt beam="1">  1        2 0.53445814E+00 0.48617166E+04</pdfrwt>
<pdfrwt beam="2">  1       -2 0.26168503E+00 0.48617166E+04</pdfrwt>
<totfact> 0.33932648E-02</totfact>
</mgrwt>
</event>
<event>
 6    1  0.1831439E-005  0.4795164E+04  0.7818608E-02  0.7860906E-01
          2   -1    0    0  501    0  0.00000000000E+00  0.00000000000E+00  0.22683199406E+04  0.22683199406E+04  0.00000000000E+00 0. -1.
         -2   -1    0    0    0  501 -0.00000000000E+00 -0.00000000000E+00 -0.25342104909E+04  0.25342104909E+04  0.00000000000E+00 0.  1.
         23    2    1    2    0    0  0.62173496526E+03  0.13973932151E+04 -0.19811395047E+04  0.25044135632E+04  0.88946014979E+02 0.  0.
         13    1    3    3    0    0  0.30880591276E+03  0.80233990068E+03 -0.11171124292E+04  0.14096278188E+04  0.00000000000E+00 0.  1.
        -13    1    3    3    0    0  0.31292905251E+03  0.59505331437E+03 -0.86402707556E+03  0.10947857444E+04  0.00000000000E+00 0. -1.
         22    1    1    2    0    0 -0.62173496526E+03 -0.13973932151E+04  0.17152489545E+04  0.22981168683E+04  0.00000000000E+00 0. -1.
<mgrwt>
<rscale>  0 0.47951643E+04</rscale>
<asrwt>0</asrwt>
<pdfrwt beam="1">  1        2 0.34897230E+00 0.47951643E+04</pdfrwt>
<pdfrwt beam="2">  1       -2 0.38987854E+00 0.47951643E+04</pdfrwt>
<totfact> 0.30220567E-02</totfact>
</mgrwt>
</event>
<event>
 6    1  0.1831439E-005  0.2941926E+04  0.7818608E-02  0.8260512E-01
          2   -1    0    0  501    0  0.00000000000E+00  0.00000000000E+00  0.21049988050E+04  0.21049988050E+04  0.00000000000E+00 0.  1.
         -2   -1    0    0    0  501 -0.00000000000E+00 -0.00000000000E+00 -0.10279015923E+04  0.10279015923E+04  0.00000000000E+00 0. -1.
         23    2    1    2    0    0 -0.13106292940E+04  0.32533697008E+03 -0.77905626280E+02  0.13559297029E+04  0.94248512170E+02 0.  0.
         11    1    3    3    0    0 -0.55013856534E+03  0.13307020652E+03  0.13776973232E+02  0.56617128674E+03  0.00000000000E+00 0. -1.
        -11    1    3    3    0    0 -0.76049072871E+03  0.19226676356E+03 -0.91682599512E+02  0.78975841615E+03  0.00000000000E+00 0.  1.
         22    1    1    2    0    0  0.13106292940E+04 -0.32533697008E+03  0.11550028390E+04  0.17769706943E+04  0.00000000000E+00 0.  1.
<mgrwt>
<rscale>  0 0.29419256E+04</rscale>
<asrwt>0</asrwt>
<pdfrwt beam="1">  1        2 0.32384597E+00 0.29419256E+04</pdfrwt>
<pdfrwt beam="2">  1       -2 0.15813871E+00 0.29419256E+04</pdfrwt>
<totfact> 0.13058018E+00</totfact>
</mgrwt>
</event>
<event>
 6    1  0.1831439E-005  0.1976214E+04  0.7818608E-02  0.8617823E-01
         -1   -1    0    0    0  501 -0.00000000000E+00  0.00000000000E+00  0.69388983918E+03  0.69388983918E+03  0.00000000000E+00 0.  1.
          1   -1    0    0  501    0  0.00000000000E+00 -0.00000000000E+00 -0.14070762445E+04  0.14070762445E+04  0.00000000000E+00 0. -1.
         23    2    1    2    0    0 -0.95993646110E+03 -0.20943379250E+03 -0.44690173626E+03  0.10830033890E+04  0.88513591389E+02 0.  0.
         11    1    3    3    0    0 -0.70864241611E+03 -0.15828562485E+03 -0.28686376762E+03  0.78071712810E+03  0.00000000000E+00 0. -1.
        -11    1    3    3    0    0 -0.25129404499E+03 -0.51148167653E+02 -0.16003796864E+03  0.30228626087E+03  0.00000000000E+00 0.  1.
         22    1    1    2    0    0  0.95993646110E+03  0.20943379250E+03 -0.26628466902E+03  0.10179626947E+04  0.00000000000E+00 0. -1.
<mgrwt>
<rscale>  0 0.19762145E+04</rscale>
<asrwt>0</asrwt>
<pdfrwt beam="1">  1        1 0.21647326E+00 0.19762145E+04</pdfrwt>
<pdfrwt beam="2">  1       -1 0.10675228E+00 0.19762145E+04</pdfrwt>
<totfact> 0.57826044E+00</totfact>
</mgrwt>
</event>
<event>
 6    1  0.1831439E-005  0.9390602E+03  0.7818608E-02  0.9378030E-01
          2   -1    0    0  501    0  0.00000000000E+00  0.00000000000E+00  0.13679692605E+04  0.13679692605E+04  0.00000000000E+00 0. -1.
         -2   -1    0    0    0  501 -0.00000000000E+00 -0.00000000000E+00 -0.16115750414E+03  0.16115750414E+03  0.00000000000E+00 0.  1.
         23    2    1    2    0    0 -0.56991806312E+02 -0.33244097565E+03  0.11304051635E+04  0.11832900464E+04  0.92706158656E+02 0.  0.
         13    1    3    3    0    0 -0.78396075194E+02 -0.27585146744E+03  0.98225774493E+03  0.10232645084E+04  0.00000000000E+00 0. -1.
        -13    1    3    3    0    0  0.21404268882E+02 -0.56589508203E+02  0.14814741861E+03  0.16002553798E+03  0.00000000000E+00 0.  1.
         22    1    1    2    0    0  0.56991806312E+02  0.33244097565E+03  0.76406592852E+02  0.34583671827E+03  0.00000000000E+00 0.  1.
<mgrwt>
<rscale>  0 0.93906019E+03</rscale>
<asrwt>0</asrwt>
<pdfrwt beam="1">  1        2 0.21045680E+00 0.93906019E+03</pdfrwt>
<pdfrwt beam="2">  1       -2 0.24793463E-01 0.93906019E+03</pdfrwt>
<totfact> 0.21986012E+02</totfact>
</mgrwt>
</event>
<event>
 6    1  0.1831439E-005  0.2695538E+04  0.7818608E-02  0.8336454E-01
         -2   -1    0    0    0  501 -0.00000000000E+00  0.00000000000E+00  0.29131343971E+04  0.29131343971E+04  0.00000000000E+00 0.  1.
          2   -1    0    0  501    0  0.00000000000E+00 -0.00000000000E+00 -0.62354891197E+03  0.62354891197E+03  0.00000000000E+00 0. -1.
         23    2    1    2    0    0  0.28946246837E+02 -0.10350584650E+04  0.22749069222E+04  0.25011161353E+04  0.90534559498E+02 0.  0.
         13    1    3    3    0    0  0.52783525576E+02 -0.35998718962E+03  0.81170128807E+03  0.88951439467E+03  0.00000000000E+00 0. -1.
        -13    1    3    3    0    0 -0.23837278738E+02 -0.67507127537E+03  0.14632056341E+04  0.16116017406E+04  0.00000000000E+00 0.  1.
         22    1    1    2    0    0 -0.28946246837E+02  0.10350584650E+04  0.14678562933E+02  0.10355671738E+04  0.00000000000E+00 0. -1.
<mgrwt>
<rscale>  0 0.26955384E+04</rscale>
<asrwt>0</asrwt>
<pdfrwt beam="1">  1        2 0.95930603E-01 0.26955384E+04</pdfrwt>
<pdfrwt beam="2">  1       -2 0.44817452E+00 0.26955384E+04</pdfrwt>
<totfact> 0.14803131E-01</totfact>
</mgrwt>
</event>
<event>
 6    1  0.2373504E-005  0.3457170E+04  0.7818608E-02  0.8124016E-01
          2   -1    0    0  501    0  0.00000000000E+00  0.00000000000E+00  0.19177132481E+04  0.19177132481E+04  0.00000000000E+00 0. -1.
         -2   -1    0    0    0  501 -0.00000000000E+00 -0.00000000000E+00 -0.15581086902E+04  0.15581086902E+04  0.00000000000E+00 0.  1.
         23    2    1    2    0    0  0.12337262006E+04 -0.80863688075E+03 -0.72352549624E+03  0.16457550934E+04  0.95114355094E+02 0.  0.
         13    1    3    3    0    0  0.61375366890E+03 -0.44900225564E+03 -0.34231907100E+03  0.83395379850E+03  0.00000000000E+00 0.  1.
        -13    1    3    3    0    0  0.61997253173E+03 -0.35963462511E+03 -0.38120642525E+03  0.81180129485E+03  0.00000000000E+00 0. -1.
         22    1    1    2    0    0 -0.12337262006E+04  0.80863688075E+03  0.10831300541E+04  0.18300668450E+04  0.00000000000E+00 0. -1.
<mgrwt>
<rscale>  0 0.34571698E+04</rscale>
<asrwt>0</asrwt>
<pdfrwt beam="1">  1        2 0.29503281E+00 0.34571698E+04</pdfrwt>
<pdfrwt beam="2">  1       -2 0.23970903E+00 0.34571698E+04</pdfrwt>
<totfact> 0.45534947E-01</totfact>
</mgrwt>
</event>
<event>
 6    1  0.1831439E-005  0.1783485E+04  0.7818608E-02  0.8715132E-01
         -2   -1    0    0    0  501 -0.00000000000E+00  0.00000000000E+00  0.77440997871E+03  0.77440997871E+03  0.00000000000E+00 0.  1.
          2   -1    0    0  501    0  0.00000000000E+00 -0.00000000000E+00 -0.10268522024E+04  0.10268522024E+04  0.00000000000E+00 0. -1.
         23    2    1    2    0    0  0.10780953584E+03  0.54420592781E+03 -0.82865820584E+03  0.10013822863E+04  0.91154119036E+02 0.  0.
         13    1    3    3    0    0  0.44052055260E+02  0.17397734668E+03 -0.34575142075E+03  0.38955454776E+03  0.00000000000E+00 0. -1.
        -13    1    3    3    0    0  0.63757480578E+02  0.37022858112E+03 -0.48290678509E+03  0.61182773858E+03  0.00000000000E+00 0.  1.
         22    1    1    2    0    0 -0.10780953584E+03 -0.54420592781E+03  0.57621598218E+03  0.79987989473E+03  0.00000000000E+00 0.  1.
<mgrwt>
<rscale>  0 0.17834849E+04</rscale>
<asrwt>0</asrwt>
<pdfrwt beam="1">  1        2 0.15797726E+00 0.17834849E+04</pdfrwt>
<pdfrwt beam="2">  1       -2 0.11914000E+00 0.17834849E+04</pdfrwt>
<totfact> 0.12373543E+01</totfact>
</mgrwt>
</event>
<event>
 6    1  0.1831439E-005  0.2504878E+04  0.7818608E-02  0.8401250E-01
         -2   -1    0    0    0  501 -0.00000000000E+00  0.00000000000E+00  0.11211294140E+04  0.11211294140E+04  0.00000000000E+00 0.  1.
          2   -1    0    0  501    0  0.00000000000E+00 -0.00000000000E+00 -0.13991278848E+04  0.13991278848E+04  0.00000000000E+00 0. -1.
         23    2    1    2    0    0  0.69286559092E+02 -0.11923122275E+04  0.23465755466E+03  0.12205553039E+04  0.91005530735E+02 0.  0.
         13    1    3    3    0    0  0.61071259642E+02 -0.34389287603E+03  0.63202992653E+02  0.35494594972E+03  0.00000000000E+00 0. -1.
        -13    1    3    3    0    0  0.82152994500E+01 -0.84841935149E+03  0.17145456201E+03  0.86560935414E+03  0.00000000000E+00 0.  1.
         22    1    1    2    0    0 -0.69286559092E+02  0.11923122275E+04 -0.51265602544E+03  0.12997019949E+04  0.00000000000E+00 0. -1.
<mgrwt>
<rscale>  0 0.25048780E+04</rscale>
<asrwt>0</asrwt>
<pdfrwt beam="1">  1        2 0.21525044E+00 0.25048780E+04</pdfrwt>
<pdfrwt beam="2">  1       -2 0.17248145E+00 0.25048780E+04</pdfrwt>
<totfact> 0.26438157E+00</totfact>
</mgrwt>
</event>
<event>
 6    1  0.1831439E-005  0.2210266E+04  0.7818608E-02  0.8514167E-01
         -2   -1    0    0    0  501 -0.00000000000E+00  0.00000000000E+00  0.25811222124E+03  0.25811222124E+03  0.00000000000E+00 0. -1.
          2   -1    0    0  501    0  0.00000000000E+00 -0.00000000000E+00 -0.47317381576E+04  0.47317381576E+04  0.00000000000E+00 0.  1.
         23    2    1    2    0    0 -0.16672463903E+03  0.99476022183E+03 -0.32497515036E+04  0.34039078732E+04  0.91427399878E+02 0.  0.
         11    1    3    3    0    0 -0.80503436573E+02  0.51089384919E+03 -0.18186086781E+04  0.18907223098E+04  0.00000000000E+00 0. -1.
        -11    1    3    3    0    0 -0.86221202457E+02  0.48386637265E+03 -0.14311428255E+04  0.15131855634E+04  0.00000000000E+00 0.  1.
         22    1    1    2    0    0  0.16672463903E+03 -0.99476022183E+03 -0.12238744327E+04  0.15859425056E+04  0.00000000000E+00 0. -1.
<mgrwt>
<rscale>  0 0.22102665E+04</rscale>
<asrwt>0</asrwt>
<pdfrwt beam="1">  1        2 0.72795973E+00 0.22102665E+04</pdfrwt>
<pdfrwt beam="2">  1       -2 0.39709572E-01 0.22102665E+04</pdfrwt>
<totfact> 0.39391185E-01</totfact>
</mgrwt>
</event>
<event>
 6    1  0.1831439E-005  0.2382164E+04  0.7818608E-02  0.8446211E-01
          2   -1    0    0  501    0  0.00000000000E+00  0.00000000000E+00  0.10439816742E+04  0.10439816742E+04  0.00000000000E+00 0. -1.
         -2   -1    0    0    0  501 -0.00000000000E+00 -0.00000000000E+00 -0.13589096396E+04  0.13589096396E+04  0.00000000000E+00 0.  1.
         23    2    1    2    0    0 -0.33487293675E+03  0.57843426989E+03  0.83464771029E+03  0.10731355759E+04  0.90868451828E+02 0.  0.
         13    1    3    3    0    0 -0.19948395706E+03  0.42645210717E+03  0.57121814430E+03  0.74023335321E+03  0.00000000000E+00 0.  1.
        -13    1    3    3    0    0 -0.13538897969E+03  0.15198216273E+03  0.26342956599E+03  0.33290222265E+03  0.00000000000E+00 0. -1.
         22    1    1    2    0    0  0.33487293675E+03 -0.57843426989E+03 -0.11495756757E+04  0.13297557379E+04  0.00000000000E+00 0.  1.
<mgrwt>
<rscale>  0 0.23821644E+04</rscale>
<asrwt>0</asrwt>
<pdfrwt beam="1">  1        2 0.16061257E+00 0.23821644E+04</pdfrwt>
<pdfrwt beam="2">  1       -2 0.20906302E+00 0.23821644E+04</pdfrwt>
<totfact> 0.24687266E+00</totfact>
</mgrwt>
</event>
<event>
 6    1  0.1831439E-005  0.4879165E+04  0.7818608E-02  0.7847422E-01
         -2   -1    0    0    0  501 -0.00000000000E+00  0.00000000000E+00  0.17964823630E+04  0.17964823630E+04  0.00000000000E+00 0.  1.
          2   -1    0    0  501    0  0.00000000000E+00 -0.00000000000E+00 -0.33128983053E+04  0.33128983053E+04  0.00000000000E+00 0. -1.
         23    2    1    2    0    0 -0.16852175660E+04 -0.30604380676E+02 -0.26042841076E+04  0.31033019017E+04  0.85393834723E+02 0.  0.
         13    1    3    3    0    0 -0.11895900928E+04  0.16798699790E+02 -0.18477792024E+04  0.21976566533E+04  0.00000000000E+00 0. -1.
        -13    1    3    3    0    0 -0.49562747323E+03 -0.47403080466E+02 -0.75650490521E+03  0.90564524835E+03  0.00000000000E+00 0.  1.
         22    1    1    2    0    0  0.16852175660E+04  0.30604380676E+02  0.10878681653E+04  0.20060787666E+04  0.00000000000E+00 0.  1.
<mgrwt>
<rscale>  0 0.48791652E+04</rscale>
<asrwt>0</asrwt>
<pdfrwt beam="1">  1        2 0.50967666E+00 0.48791652E+04</pdfrwt>
<pdfrwt beam="2">  1       -2 0.27638190E+00 0.48791652E+04</pdfrwt>
<totfact> 0.35516479E-02</totfact>
</mgrwt>
</event>
<event>
 6    1  0.1831439E-005  0.1597768E+04  0.7818608E-02  0.8821920E-01
         -1   -1    0    0    0  501 -0.00000000000E+00  0.00000000000E+00  0.16043768579E+03  0.16043768579E+03  0.00000000000E+00 0.  1.
          1   -1    0    0  501    0  0.00000000000E+00 -0.00000000000E+00 -0.39779663136E+04  0.39779663136E+04  0.00000000000E+00 0. -1.
         23    2    1    2    0    0  0.53679912636E+03  0.11453022402E+03 -0.34090685376E+04  0.34542182647E+04  0.92763418775E+02 0.  0.
         13    1    3    3    0    0  0.42614652961E+03  0.55507769665E+02 -0.25275172869E+04  0.25637912576E+04  0.00000000000E+00 0.  1.
        -13    1    3    3    0    0  0.11065259675E+03  0.59022454355E+02 -0.88155125067E+03  0.89042700703E+03  0.00000000000E+00 0. -1.
         22    1    1    2    0    0 -0.53679912636E+03 -0.11453022402E+03 -0.40846009025E+03  0.68418573472E+03  0.00000000000E+00 0.  1.
<mgrwt>
<rscale>  0 0.15977681E+04</rscale>
<asrwt>0</asrwt>
<pdfrwt beam="1">  1        1 0.61199483E+00 0.15977681E+04</pdfrwt>
<pdfrwt beam="2">  1       -1 0.24682720E-01 0.15977681E+04</pdfrwt>
<totfact> 0.14009149E+00</totfact>
</mgrwt>
</event>
<event>
 6    1  0.1831439E-005  0.5151909E+04  0.7818608E-02  0.7805492E-01
          1   -1    0    0  501    0  0.00000000000E+00  0.00000000000E+00  0.19477571879E+04  0.19477571879E+04  0.00000000000E+00 0. -1.
         -1   -1    0    0    0  501 -0.00000000000E+00 -0.00000000000E+00 -0.34067598090E+04  0.34067598090E+04  0.00000000000E+00 0.  1.
         23    2    1    2    0    0  0.58410052540E+02  0.24176941742E+04  0.18973904832E+03  0.24275721824E+04  0.91918116282E+02 0.  0.
         11    1    3    3    0    0  0.10477706817E+02  0.15838000779E+04  0.90356391469E+02  0.15864100184E+04  0.00000000000E+00 0.  1.
        -11    1    3    3    0    0  0.47932345723E+02  0.83389409635E+03  0.99382656847E+02  0.84116216402E+03  0.00000000000E+00 0. -1.
         22    1    1    2    0    0 -0.58410052540E+02 -0.24176941742E+04 -0.16487416694E+04  0.29269448144E+04  0.00000000000E+00 0.  1.
<mgrwt>
<rscale>  0 0.51519087E+04</rscale>
<asrwt>0</asrwt>
<pdfrwt beam="1">  1        1 0.29965495E+00 0.51519087E+04</pdfrwt>
<pdfrwt beam="2">  1       -1 0.52411689E+00 0.51519087E+04</pdfrwt>
<totfact> 0.24514101E-03</totfact>
</mgrwt>
</event>
<event>
 6    1  0.1831439E-005  0.1778518E+04  0.7818608E-02  0.8717807E-01
          2   -1    0    0  501    0  0.00000000000E+00  0.00000000000E+00  0.12498754293E+04  0.12498754293E+04  0.00000000000E+00 0. -1.
         -2   -1    0    0    0  501 -0.00000000000E+00 -0.00000000000E+00 -0.63268840093E+03  0.63268840093E+03  0.00000000000E+00 0.  1.
         23    2    1    2    0    0  0.40052926433E+03 -0.79137421296E+03  0.31286940421E+03  0.94485062628E+03  0.90324998580E+02 0.  0.
         11    1    3    3    0    0  0.35017939354E+03 -0.71106301539E+03  0.24999281228E+03  0.83110325815E+03  0.00000000000E+00 0.  1.
        -11    1    3    3    0    0  0.50349870794E+02 -0.80311197567E+02  0.62876591931E+02  0.11374736813E+03  0.00000000000E+00 0. -1.
         22    1    1    2    0    0 -0.40052926433E+03  0.79137421296E+03  0.30431762419E+03  0.93771320398E+03  0.00000000000E+00 0.  1.
<mgrwt>
<rscale>  0 0.17785181E+04</rscale>
<asrwt>0</asrwt>
<pdfrwt beam="1">  1        2 0.19228853E+00 0.17785181E+04</pdfrwt>
<pdfrwt beam="2">  1       -2 0.97336678E-01 0.17785181E+04</pdfrwt>
<totfact> 0.14730692E+01</totfact>
</mgrwt>
</event>
<event>
 6    1  0.1831439E-005  0.1483755E+04  0.7818608E-02  0.8895328E-01
          1   -1    0    0  501    0  0.00000000000E+00  0.00000000000E+00  0.14431043712E+04  0.14431043712E+04  0.00000000000E+00 0. -1.
         -1   -1    0    0    0  501 -0.00000000000E+00 -0.00000000000E+00 -0.38138754283E+03  0.38138754283E+03  0.00000000000E+00 0.  1.
         23    2    1    2    0    0  0.25930605839E+03 -0.19684386830E+03  0.13489207587E+04  0.13903568683E+04  0.86705637277E+02 0.  0.
         13    1    3    3    0    0  0.20249374461E+03 -0.17760726450E+03  0.96931306812E+03  0.10060397015E+04  0.00000000000E+00 0. -1.
        -13    1    3    3    0    0  0.56812313774E+02 -0.19236603799E+02  0.37960769058E+03  0.38431716677E+03  0.00000000000E+00 0.  1.
         22    1    1    2    0    0 -0.25930605839E+03  0.19684386830E+03 -0.28720393029E+03  0.43413504578E+03  0.00000000000E+00 0.  1.
<mgrwt>
<rscale>  0 0.14837547E+04</rscale>
<asrwt>0</asrwt>
<pdfrwt beam="1">  1        1 0.22201605E+00 0.14837547E+04</pdfrwt>
<pdfrwt beam="2">  1       -1 0.58675007E-01 0.14837547E+04</pdfrwt>
<totfact> 0.20432628E+01</totfact>
</mgrwt>
</event>
<event>
 6    1  0.1831439E-005  0.3075275E+04  0.7818608E-02  0.8222556E-01
          2   -1    0    0  501    0  0.00000000000E+00  0.00000000000E+00  0.29271219730E+04  0.29271219730E+04  0.00000000000E+00 0. -1.
         -2   -1    0    0    0  501 -0.00000000000E+00 -0.00000000000E+00 -0.80773158884E+03  0.80773158884E+03  0.00000000000E+00 0.  1.
         23    2    1    2    0    0 -0.37988215150E+03  0.98807044987E+03  0.24127913564E+04  0.26363646936E+04  0.90901075173E+02 0.  0.
         13    1    3    3    0    0 -0.24672932858E+03  0.63138161747E+03  0.14346799066E+04  0.15867654341E+04  0.00000000000E+00 0.  1.
        -13    1    3    3    0    0 -0.13315282293E+03  0.35668883240E+03  0.97811144981E+03  0.10495992596E+04  0.00000000000E+00 0. -1.
         22    1    1    2    0    0  0.37988215150E+03 -0.98807044987E+03 -0.29340097227E+03  0.10984888682E+04  0.00000000000E+00 0.  1.
<mgrwt>
<rscale>  0 0.30752749E+04</rscale>
<asrwt>0</asrwt>
<pdfrwt beam="1">  1        2 0.45032645E+00 0.30752749E+04</pdfrwt>
<pdfrwt beam="2">  1       -2 0.12426640E+00 0.30752749E+04</pdfrwt>
<totfact> 0.79979854E-01</totfact>
</mgrwt>
</event>
<event>
 6    1  0.1831439E-005  0.2533576E+04  0.7818608E-02  0.8391121E-01
         -2   -1    0    0    0  501 -0.00000000000E+00  0.00000000000E+00  0.13276765212E+04  0.13276765212E+04  0.00000000000E+00 0.  1.
          2   -1    0    0  501    0  0.00000000000E+00 -0.00000000000E+00 -0.12086914158E+04  0.12086914158E+04  0.00000000000E+00 0. -1.
         23    2    1    2    0    0  0.52720997899E+03 -0.77278606219E+03  0.91219743469E+03  0.13098548065E+04  0.92015186302E+02 0.  0.
         13    1    3    3    0    0  0.41147021259E+03 -0.59352441714E+03  0.64845026609E+03  0.97060121429E+03  0.00000000000E+00 0. -1.
        -13    1    3    3    0    0  0.11573976640E+03 -0.17926164504E+03  0.26374716860E+03  0.33925359225E+03  0.00000000000E+00 0.  1.
         22    1    1    2    0    0 -0.52720997899E+03  0.77278606219E+03 -0.79321232924E+03  0.12265131304E+04  0.00000000000E+00 0. -1.
<mgrwt>
<rscale>  0 0.25335755E+04</rscale>
<asrwt>0</asrwt>
<pdfrwt beam="1">  1        2 0.18595253E+00 0.25335755E+04</pdfrwt>
<pdfrwt beam="2">  1       -2 0.20425793E+00 0.25335755E+04</pdfrwt>
<totfact> 0.20763438E+00</totfact>
</mgrwt>
</event>
<event>
 6    1  0.1831439E-005  0.2847053E+04  0.7818608E-02  0.8288807E-01
         -1   -1    0    0    0  501 -0.00000000000E+00  0.00000000000E+00  0.22755396752E+04  0.22755396752E+04  0.00000000000E+00 0. -1.
          1   -1    0    0  501    0  0.00000000000E+00 -0.00000000000E+00 -0.89052646650E+03  0.89052646650E+03  0.00000000000E+00 0.  1.
         23    2    1    2    0    0  0.12104292274E+04  0.67691502779E+03  0.34288375822E+03  0.14313077548E+04  0.87862095466E+02 0.  0.
         13    1    3    3    0    0  0.64006753813E+03  0.39069467662E+03  0.21938137670E+03  0.78131745926E+03  0.00000000000E+00 0. -1.
        -13    1    3    3    0    0  0.57036168930E+03  0.28622035117E+03  0.12350238153E+03  0.64999029553E+03  0.00000000000E+00 0.  1.
         22    1    1    2    0    0 -0.12104292274E+04 -0.67691502779E+03  0.10421294505E+04  0.17347583869E+04  0.00000000000E+00 0.  1.
<mgrwt>
<rscale>  0 0.28470534E+04</rscale>
<asrwt>0</asrwt>
<pdfrwt beam="1">  1        1 0.13700407E+00 0.28470534E+04</pdfrwt>
<pdfrwt beam="2">  1       -1 0.35008303E+00 0.28470534E+04</pdfrwt>
<totfact> 0.24785102E-01</totfact>
</mgrwt>
</event>
<event>
 6    1  0.1831439E-005  0.1501162E+04  0.7818608E-02  0.8883681E-01
          2   -1    0    0  501    0  0.00000000000E+00  0.00000000000E+00  0.98198270225E+03  0.98198270225E+03  0.00000000000E+00 0. -1.
         -2   -1    0    0    0  501 -0.00000000000E+00 -0.00000000000E+00 -0.57370850149E+03  0.57370850149E+03  0.00000000000E+00 0.  1.
         23    2    1    2    0    0 -0.36277365186E+02  0.74505534487E+03  0.15424237281E+03  0.76768379022E+03  0.95520563467E+02 0.  0.
         11    1    3    3    0    0 -0.14898417012E+02  0.53492609383E+03  0.15258938239E+03  0.55646330365E+03  0.00000000000E+00 0.  1.
        -11    1    3    3    0    0 -0.21378948173E+02  0.21012925104E+03  0.16529904173E+01  0.21122048657E+03  0.00000000000E+00 0. -1.
         22    1    1    2    0    0  0.36277365186E+02 -0.74505534487E+03  0.25403182795E+03  0.78800741352E+03  0.00000000000E+00 0. -1.
<mgrwt>
<rscale>  0 0.15011620E+04</rscale>
<asrwt>0</asrwt>
<pdfrwt beam="1">  1        2 0.15107426E+00 0.15011620E+04</pdfrwt>
<pdfrwt beam="2">  1       -2 0.88262846E-01 0.15011620E+04</pdfrwt>
<totfact> 0.27636581E+01</totfact>
</mgrwt>
</event>
<event>
 6    1  0.1831439E-005  0.3715096E+04  0.7818608E-02  0.8064625E-01
         -2   -1    0    0    0  501 -0.00000000000E+00  0.00000000000E+00  0.19596329778E+04  0.19596329778E+04  0.00000000000E+00 0.  1.
          2   -1    0    0  501    0  0.00000000000E+00 -0.00000000000E+00 -0.17607808310E+04  0.17607808310E+04  0.00000000000E+00 0. -1.
         23    2    1    2    0    0  0.99371564218E+02 -0.31321533998E+03  0.19291969242E+04  0.19591439244E+04  0.92008626485E+02 0.  0.
         11    1    3    3    0    0  0.54974608463E+02 -0.86307599413E+02  0.41691014117E+03  0.42928460851E+03  0.00000000000E+00 0.  1.
        -11    1    3    3    0    0  0.44396955754E+02 -0.22690774056E+03  0.15122867830E+04  0.15298593159E+04  0.00000000000E+00 0. -1.
         22    1    1    2    0    0 -0.99371564218E+02  0.31321533998E+03 -0.17303447774E+04  0.17612698843E+04  0.00000000000E+00 0. -1.
<mgrwt>
<rscale>  0 0.37150958E+04</rscale>
<asrwt>0</asrwt>
<pdfrwt beam="1">  1        2 0.27088936E+00 0.37150958E+04</pdfrwt>
<pdfrwt beam="2">  1       -2 0.30148200E+00 0.37150958E+04</pdfrwt>
<totfact> 0.22799638E-01</totfact>
</mgrwt>
</event>
<event>
 6    1  0.1831439E-005  0.2632292E+04  0.7818608E-02  0.8357314E-01
         -1   -1    0    0    0  501 -0.00000000000E+00  0.00000000000E+00  0.70535964987E+03  0.70535964987E+03  0.00000000000E+00 0.  1.
          1   -1    0    0  501    0  0.00000000000E+00 -0.00000000000E+00 -0.24558263981E+04  0.24558263981E+04  0.00000000000E+00 0. -1.
         23    2    1    2    0    0 -0.24103489288E+02 -0.97222677191E+03 -0.19383875475E+04  0.21706709794E+04  0.93060960634E+02 0.  0.
         13    1    3    3    0    0 -0.51852952904E+02 -0.49196401421E+03 -0.10368001071E+04  0.11487696819E+04  0.00000000000E+00 0. -1.
        -13    1    3    3    0    0  0.27749463617E+02 -0.48026275770E+03 -0.90158744042E+03  0.10219012975E+04  0.00000000000E+00 0.  1.
         22    1    1    2    0    0  0.24103489288E+02  0.97222677191E+03  0.18792079927E+03  0.99051506855E+03  0.00000000000E+00 0.  1.
<mgrwt>
<rscale>  0 0.26322924E+04</rscale>
<asrwt>0</asrwt>
<pdfrwt beam="1">  1        1 0.37781944E+00 0.26322924E+04</pdfrwt>
<pdfrwt beam="2">  1       -1 0.10851687E+00 0.26322924E+04</pdfrwt>
<totfact> 0.10057565E+00</totfact>
</mgrwt>
</event>
<event>
 6    1  0.1831439E-005  0.2169808E+04  0.7818608E-02  0.8531101E-01
          2   -1    0    0  501    0  0.00000000000E+00  0.00000000000E+00  0.33091233772E+04  0.33091233772E+04  0.00000000000E+00 0. -1.
         -2   -1    0    0    0  501 -0.00000000000E+00 -0.00000000000E+00 -0.35568834666E+03  0.35568834666E+03  0.00000000000E+00 0.  1.
         23    2    1    2    0    0  0.73402491154E+03 -0.43244517965E+03  0.35006451471E+03  0.92558930739E+03  0.91482224115E+02 0.  0.
         13    1    3    3    0    0  0.46191586458E+03 -0.23307069149E+03  0.24351987493E+03  0.57183051918E+03  0.00000000000E+00 0. -1.
        -13    1    3    3    0    0  0.27210904696E+03 -0.19937448817E+03  0.10654463978E+03  0.35375878821E+03  0.00000000000E+00 0.  1.
         22    1    1    2    0    0 -0.73402491154E+03  0.43244517965E+03  0.26033705159E+04  0.27392224165E+04  0.00000000000E+00 0. -1.
<mgrwt>
<rscale>  0 0.21698079E+04</rscale>
<asrwt>0</asrwt>
<pdfrwt beam="1">  1        2 0.50909588E+00 0.21698079E+04</pdfrwt>
<pdfrwt beam="2">  1       -2 0.54721286E-01 0.21698079E+04</pdfrwt>
<totfact> 0.31708031E+00</totfact>
</mgrwt>
</event>
<event>
 6    1  0.1831439E-005  0.2883257E+04  0.7818608E-02  0.8277877E-01
         -2   -1    0    0    0  501 -0.00000000000E+00  0.00000000000E+00  0.89866083520E+03  0.89866083520E+03  0.00000000000E+00 0. -1.
          2   -1    0    0  501    0  0.00000000000E+00 -0.00000000000E+00 -0.23126549691E+04  0.23126549691E+04  0.00000000000E+00 0.  1.
         23    2    1    2    0    0  0.38206139198E+03 -0.11733770719E+04  0.11960760398E+03  0.12428852237E+04  0.87595892163E+02 0.  0.
         13    1    3    3    0    0  0.35859588239E+03 -0.10117033440E+04  0.93436502356E+02  0.10774344728E+04  0.00000000000E+00 0.  1.
        -13    1    3    3    0    0  0.23465509581E+02 -0.16167372789E+03  0.26171101619E+02  0.16545075094E+03  0.00000000000E+00 0. -1.
         22    1    1    2    0    0 -0.38206139198E+03  0.11733770719E+04 -0.15336017379E+04  0.19684305806E+04  0.00000000000E+00 0.  1.
<mgrwt>
<rscale>  0 0.28832568E+04</rscale>
<asrwt>0</asrwt>
<pdfrwt beam="1">  1        2 0.35579307E+00 0.28832568E+04</pdfrwt>
<pdfrwt beam="2">  1       -2 0.13825551E+00 0.28832568E+04</pdfrwt>
<totfact> 0.14298019E+00</totfact>
</mgrwt>
</event>
<event>
 6    1  0.1831439E-005  0.1338416E+04  0.7818608E-02  0.8999643E-01
          2   -1    0    0  501    0  0.00000000000E+00  0.00000000000E+00  0.17868187893E+04  0.17868187893E+04  0.00000000000E+00 0. -1.
         -2   -1    0    0    0  501 -0.00000000000E+00 -0.00000000000E+00 -0.25063512058E+03  0.25063512058E+03  0.00000000000E+00 0.  1.
         23    2    1    2    0    0  0.46318530687E+03  0.46795102832E+03  0.61838293262E+03  0.90790666226E+03  0.91532849912E+02 0.  0.
         13    1    3    3    0    0  0.17711936096E+03  0.22229447272E+03  0.22046023376E+03  0.35970656833E+03  0.00000000000E+00 0.  1.
        -13    1    3    3    0    0  0.28606594591E+03  0.24565655560E+03  0.39792269885E+03  0.54820009393E+03  0.00000000000E+00 0. -1.
         22    1    1    2    0    0 -0.46318530687E+03 -0.46795102832E+03  0.91780073606E+03  0.11295472476E+04  0.00000000000E+00 0.  1.
<mgrwt>
<rscale>  0 0.13384163E+04</rscale>
<asrwt>0</asrwt>
<pdfrwt beam="1">  1        2 0.27489519E+00 0.13384163E+04</pdfrwt>
<pdfrwt beam="2">  1       -2 0.38559251E-01 0.13384163E+04</pdfrwt>
<totfact> 0.54508602E+01</totfact>
</mgrwt>
</event>
<event>
 6    1  0.1831439E-005  0.1064800E+04  0.7818608E-02  0.9240196E-01
         -2   -1    0    0    0  501 -0.00000000000E+00  0.00000000000E+00  0.37381394252E+03  0.37381394252E+03  0.00000000000E+00 0.  1.
          2   -1    0    0  501    0  0.00000000000E+00 -0.00000000000E+00 -0.75826472862E+03  0.75826472862E+03  0.00000000000E+00 0. -1.
         23    2    1    2    0    0 -0.31863165356E+03  0.40975808406E+03 -0.29857554735E+03  0.60595855678E+03  0.92793302319E+02 0.  0.
         13    1    3    3    0    0 -0.61227056756E+02  0.13295035411E+03 -0.11271836937E+03  0.18474301051E+03  0.00000000000E+00 0.  1.
        -13    1    3    3    0    0 -0.25740459681E+03  0.27680772995E+03 -0.18585717798E+03  0.42121554627E+03  0.00000000000E+00 0. -1.
         22    1    1    2    0    0  0.31863165356E+03 -0.40975808406E+03 -0.85875238753E+02  0.52612011436E+03  0.00000000000E+00 0.  1.
<mgrwt>
<rscale>  0 0.10648003E+04</rscale>
<asrwt>0</asrwt>
<pdfrwt beam="1">  1        2 0.11665611E+00 0.10648003E+04</pdfrwt>
<pdfrwt beam="2">  1       -2 0.57509837E-01 0.10648003E+04</pdfrwt>
<totfact> 0.10419629E+02</totfact>
</mgrwt>
</event>
<event>
 6    1  0.1831439E-005  0.7661624E+03  0.7818608E-02  0.9610330E-01
          1   -1    0    0  501    0  0.00000000000E+00  0.00000000000E+00  0.45874020679E+03  0.45874020679E+03  0.00000000000E+00 0. -1.
         -1   -1    0    0    0  501 -0.00000000000E+00 -0.00000000000E+00 -0.31990043969E+03  0.31990043969E+03  0.00000000000E+00 0.  1.
         23    2    1    2    0    0  0.33989121662E+03 -0.16224214219E+03  0.44861222649E+02  0.39046476025E+03  0.92745069185E+02 0.  0.
         11    1    3    3    0    0  0.41036750645E+02 -0.14465238352E+02 -0.24494728407E+02  0.49932451811E+02  0.00000000000E+00 0. -1.
        -11    1    3    3    0    0  0.29885446597E+03 -0.14777690384E+03  0.69355951056E+02  0.34053230843E+03  0.00000000000E+00 0.  1.
         22    1    1    2    0    0 -0.33989121662E+03  0.16224214219E+03  0.93978544450E+02  0.38817588624E+03  0.00000000000E+00 0. -1.
<mgrwt>
<rscale>  0 0.76616237E+03</rscale>
<asrwt>0</asrwt>
<pdfrwt beam="1">  1        1 0.70575416E-01 0.76616237E+03</pdfrwt>
<pdfrwt beam="2">  1       -1 0.49215452E-01 0.76616237E+03</pdfrwt>
<totfact> 0.20890862E+02</totfact>
</mgrwt>
</event>
<event>
 6    1  0.1831439E-005  0.9416541E+03  0.7818608E-02  0.9374959E-01
         -1   -1    0    0    0  501 -0.00000000000E+00  0.00000000000E+00  0.67326396709E+03  0.67326396709E+03  0.00000000000E+00 0. -1.
          1   -1    0    0  501    0  0.00000000000E+00 -0.00000000000E+00 -0.32925884989E+03  0.32925884989E+03  0.00000000000E+00 0.  1.
         23    2    1    2    0    0 -0.33043756139E+03 -0.22501703784E+02  0.52322316551E+03  0.62594026628E+03  0.91342363524E+02 0.  0.
         13    1    3    3    0    0 -0.81874431854E+02  0.18544554764E+02  0.79125539395E+02  0.11536105967E+03  0.00000000000E+00 0. -1.
        -13    1    3    3    0    0 -0.24856312954E+03 -0.41046258547E+02  0.44409762612E+03  0.51057920662E+03  0.00000000000E+00 0.  1.
         22    1    1    2    0    0  0.33043756139E+03  0.22501703784E+02 -0.17921804832E+03  0.37658255070E+03  0.00000000000E+00 0.  1.
<mgrwt>
<rscale>  0 0.94165412E+03</rscale>
<asrwt>0</asrwt>
<pdfrwt beam="1">  1        1 0.50655208E-01 0.94165412E+03</pdfrwt>
<pdfrwt beam="2">  1       -1 0.10357907E+00 0.94165412E+03</pdfrwt>
<totfact> 0.68642279E+01</totfact>
</mgrwt>
</event>
<event>
 6    1  0.1831439E-005  0.3886438E+04  0.7818608E-02  0.8027856E-01
         -1   -1    0    0    0  501 -0.00000000000E+00  0.00000000000E+00  0.13625318309E+04  0.13625318309E+04  0.00000000000E+00 0.  1.
          1   -1    0    0  501    0  0.00000000000E+00 -0.00000000000E+00 -0.27713845812E+04  0.27713845812E+04  0.00000000000E+00 0. -1.
         23    2    1    2    0    0 -0.15348867847E+04 -0.50562042448E+02  0.55985108700E+03  0.16370726524E+04  0.90220106286E+02 0.  0.
         11    1    3    3    0    0 -0.87005538166E+03  0.44370147537E+01  0.28481314610E+03  0.91549690466E+03  0.00000000000E+00 0. -1.
        -11    1    3    3    0    0 -0.66483140301E+03 -0.54999057202E+02  0.27503794090E+03  0.72157574770E+03  0.00000000000E+00 0.  1.
         22    1    1    2    0    0  0.15348867847E+04  0.50562042448E+02 -0.19687038372E+04  0.24968437598E+04  0.00000000000E+00 0. -1.
<mgrwt>
<rscale>  0 0.38864378E+04</rscale>
<asrwt>0</asrwt>
<pdfrwt beam="1">  1        1 0.42636685E+00 0.38864378E+04</pdfrwt>
<pdfrwt beam="2">  1       -1 0.20962029E+00 0.38864378E+04</pdfrwt>
<totfact> 0.89210883E-02</totfact>
</mgrwt>
</event>
<event>
 6    1  0.1831439E-005  0.1501591E+04  0.7818608E-02  0.8883395E-01
         -1   -1    0    0    0  501 -0.00000000000E+00  0.00000000000E+00  0.53154816330E+03  0.53154816330E+03  0.00000000000E+00 0.  1.
          1   -1    0    0  501    0  0.00000000000E+00 -0.00000000000E+00 -0.10604763128E+04  0.10604763128E+04  0.00000000000E+00 0. -1.
         23    2    1    2    0    0  0.17236376519E+02  0.54251398822E+03  0.28026504374E+03  0.61764665201E+03  0.91216072632E+02 0.  0.
         11    1    3    3    0    0 -0.15285570782E+02  0.45586463935E+03  0.25075757200E+03  0.52050511813E+03  0.00000000000E+00 0.  1.
        -11    1    3    3    0    0  0.32521947301E+02  0.86649348875E+02  0.29507471733E+02  0.97141533881E+02  0.00000000000E+00 0. -1.
         22    1    1    2    0    0 -0.17236376519E+02 -0.54251398822E+03 -0.80919319320E+03  0.97437782406E+03  0.00000000000E+00 0. -1.
<mgrwt>
<rscale>  0 0.15015915E+04</rscale>
<asrwt>0</asrwt>
<pdfrwt beam="1">  1        1 0.16315020E+00 0.15015915E+04</pdfrwt>
<pdfrwt beam="2">  1       -1 0.81776642E-01 0.15015915E+04</pdfrwt>
<totfact> 0.19560539E+01</totfact>
</mgrwt>
</event>
<event>
 6    1  0.1831439E-005  0.1702710E+04  0.7818608E-02  0.8759820E-01
          2   -1    0    0  501    0  0.00000000000E+00  0.00000000000E+00  0.23518394239E+04  0.23518394239E+04  0.00000000000E+00 0. -1.
         -2   -1    0    0    0  501 -0.00000000000E+00 -0.00000000000E+00 -0.30818663739E+03  0.30818663739E+03  0.00000000000E+00 0.  1.
         23    2    1    2    0    0 -0.13016537769E+03 -0.44237157616E+03  0.21381483201E+04  0.21893191007E+04  0.93830960808E+02 0.  0.
         11    1    3    3    0    0 -0.86562806203E+02 -0.38667553664E+03  0.19004589949E+04  0.19413282776E+04  0.00000000000E+00 0.  1.
        -11    1    3    3    0    0 -0.43602571483E+02 -0.55696039517E+02  0.23768932515E+03  0.24799082311E+03  0.00000000000E+00 0. -1.
         22    1    1    2    0    0  0.13016537769E+03  0.44237157616E+03 -0.94495533490E+02  0.47070696063E+03  0.00000000000E+00 0.  1.
<mgrwt>
<rscale>  0 0.17027102E+04</rscale>
<asrwt>0</asrwt>
<pdfrwt beam="1">  1        2 0.36182144E+00 0.17027102E+04</pdfrwt>
<pdfrwt beam="2">  1       -2 0.47413331E-01 0.17027102E+04</pdfrwt>
<totfact> 0.17005487E+01</totfact>
</mgrwt>
</event>
<event>
 6    1  0.1831439E-005  0.3457539E+04  0.7818608E-02  0.8123927E-01
         -2   -1    0    0    0  501 -0.00000000000E+00  0.00000000000E+00  0.81183710994E+03  0.81183710994E+03  0.00000000000E+00 0.  1.
          2   -1    0    0  501    0  0.00000000000E+00 -0.00000000000E+00 -0.36813337260E+04  0.36813337260E+04  0.00000000000E+00 0. -1.
         23    2    1    2    0    0 -0.10908885720E+04  0.10400782129E+04 -0.34108031015E+03  0.15495863575E+04  0.11437454224E+03 0.  0.
         13    1    3    3    0    0 -0.67011555210E+03  0.58438877180E+03 -0.15970139827E+03  0.90336572128E+03  0.00000000000E+00 0.  1.
        -13    1    3    3    0    0 -0.42077301992E+03  0.45568944112E+03 -0.18137891188E+03  0.64622063625E+03  0.00000000000E+00 0. -1.
         22    1    1    2    0    0  0.10908885720E+04 -0.10400782129E+04 -0.25284163059E+04  0.29435844784E+04  0.00000000000E+00 0. -1.
<mgrwt>
<rscale>  0 0.34575386E+04</rscale>
<asrwt>0</asrwt>
<pdfrwt beam="1">  1        2 0.56635905E+00 0.34575386E+04</pdfrwt>
<pdfrwt beam="2">  1       -2 0.12489801E+00 0.34575386E+04</pdfrwt>
<totfact> 0.23823467E-01</totfact>
</mgrwt>
</event>
<event>
 6    1  0.1831439E-005  0.3733705E+04  0.7818608E-02  0.8060533E-01
          1   -1    0    0  501    0  0.00000000000E+00  0.00000000000E+00  0.28438449878E+04  0.28438449878E+04  0.00000000000E+00 0. -1.
         -1   -1    0    0    0  501 -0.00000000000E+00 -0.00000000000E+00 -0.12255023116E+04  0.12255023116E+04  0.00000000000E+00 0.  1.
         23    2    1    2    0    0  0.10565294678E+04  0.19090915836E+03  0.24726866146E+04  0.26972669853E+04  0.91483731508E+02 0.  0.
         11    1    3    3    0    0  0.16348447468E+03  0.28020702187E+02  0.47110460641E+03  0.49945158263E+03  0.00000000000E+00 0.  1.
        -11    1    3    3    0    0  0.89304499311E+03  0.16288845617E+03  0.20015820082E+04  0.21978154027E+04  0.00000000000E+00 0. -1.
         22    1    1    2    0    0 -0.10565294678E+04 -0.19090915836E+03 -0.85434393848E+03  0.13720803141E+04  0.00000000000E+00 0.  1.
<mgrwt>
<rscale>  0 0.37337052E+04</rscale>
<asrwt>0</asrwt>
<pdfrwt beam="1">  1        1 0.43751461E+00 0.37337052E+04</pdfrwt>
<pdfrwt beam="2">  1       -1 0.18853882E+00 0.37337052E+04</pdfrwt>
<totfact> 0.11219001E-01</totfact>
</mgrwt>
</event>
<event>
 6    1  0.1831439E-005  0.2302627E+04  0.7818608E-02  0.8476886E-01
         -2   -1    0    0    0  501 -0.00000000000E+00  0.00000000000E+00  0.13056305455E+04  0.13056305455E+04  0.00000000000E+00 0.  1.
          2   -1    0    0  501    0  0.00000000000E+00 -0.00000000000E+00 -0.10152355468E+04  0.10152355468E+04  0.00000000000E+00 0. -1.
         23    2    1    2    0    0  0.10603013973E+04  0.44146403855E+03  0.98199845058E+02  0.11563625382E+04  0.91660022165E+02 0.  0.
         13    1    3    3    0    0  0.43570039452E+03  0.19306484974E+03 -0.32339120795E+01  0.47657038114E+03  0.00000000000E+00 0. -1.
        -13    1    3    3    0    0  0.62460100279E+03  0.24839918881E+03  0.10143375714E+03  0.67979215704E+03  0.00000000000E+00 0.  1.
         22    1    1    2    0    0 -0.10603013973E+04 -0.44146403855E+03  0.19219515372E+03  0.11645035541E+04  0.00000000000E+00 0. -1.
<mgrwt>
<rscale>  0 0.23026268E+04</rscale>
<asrwt>0</asrwt>
<pdfrwt beam="1">  1        2 0.15619008E+00 0.23026268E+04</pdfrwt>
<pdfrwt beam="2">  1       -2 0.20086624E+00 0.23026268E+04</pdfrwt>
<totfact> 0.29297530E+00</totfact>
</mgrwt>
</event>
<event>
 6    1  0.3717933E-005  0.3209679E+04  0.7818608E-02  0.8186266E-01
         -2   -1    0    0    0  501 -0.00000000000E+00  0.00000000000E+00  0.16028022173E+04  0.16028022173E+04  0.00000000000E+00 0.  1.
          2   -1    0    0  501    0  0.00000000000E+00 -0.00000000000E+00 -0.16068793755E+04  0.16068793755E+04  0.00000000000E+00 0. -1.
         23    2    1    2    0    0 -0.13201042945E+04 -0.90034953797E+03 -0.13877897576E+03  0.16061077036E+04  0.83771788657E+02 0.  0.
         13    1    3    3    0    0 -0.87800830704E+03 -0.58683562784E+03 -0.53102691844E+02  0.10573998947E+04  0.00000000000E+00 0.  1.
        -13    1    3    3    0    0 -0.44209598743E+03 -0.31351391013E+03 -0.85676283920E+02  0.54870780893E+03  0.00000000000E+00 0. -1.
         22    1    1    2    0    0  0.13201042945E+04  0.90034953797E+03  0.13470181756E+03  0.16035738893E+04  0.00000000000E+00 0.  1.
<mgrwt>
<rscale>  0 0.32096790E+04</rscale>
<asrwt>0</asrwt>
<pdfrwt beam="1">  1        2 0.24721221E+00 0.32096790E+04</pdfrwt>
<pdfrwt beam="2">  1       -2 0.24658496E+00 0.32096790E+04</pdfrwt>
<totfact> 0.62734777E-01</totfact>
</mgrwt>
</event>
<event>
 6    1  0.1831439E-005  0.2531218E+04  0.7818608E-02  0.8391948E-01
          2   -1    0    0  501    0  0.00000000000E+00  0.00000000000E+00  0.19310361674E+04  0.19310361674E+04  0.00000000000E+00 0. -1.
         -2   -1    0    0    0  501 -0.00000000000E+00 -0.00000000000E+00 -0.82948551875E+03  0.82948551875E+03  0.00000000000E+00 0.  1.
         23    2    1    2    0    0  0.68164385058E+03 -0.50528980120E+03 -0.47021752349E+03  0.97434943545E+03  0.91083372393E+02 0.  0.
         11    1    3    3    0    0  0.45471699663E+03 -0.38396767095E+03 -0.34871991228E+03  0.68978568887E+03  0.00000000000E+00 0. -1.
        -11    1    3    3    0    0  0.22692685395E+03 -0.12132213025E+03 -0.12149761121E+03  0.28456374657E+03  0.00000000000E+00 0.  1.
         22    1    1    2    0    0 -0.68164385058E+03  0.50528980120E+03  0.15717681721E+04  0.17861722507E+04  0.00000000000E+00 0. -1.
<mgrwt>
<rscale>  0 0.25312183E+04</rscale>
<asrwt>0</asrwt>
<pdfrwt beam="1">  1        2 0.29708249E+00 0.25312183E+04</pdfrwt>
<pdfrwt beam="2">  1       -2 0.12761316E+00 0.25312183E+04</pdfrwt>
<totfact> 0.29550252E+00</totfact>
</mgrwt>
</event>
<event>
 6    1  0.1831439E-005  0.1785758E+04  0.7818608E-02  0.8713910E-01
         -2   -1    0    0    0  501 -0.00000000000E+00  0.00000000000E+00  0.12291250581E+04  0.12291250581E+04  0.00000000000E+00 0.  1.
          2   -1    0    0  501    0  0.00000000000E+00 -0.00000000000E+00 -0.64861828444E+03  0.64861828444E+03  0.00000000000E+00 0. -1.
         23    2    1    2    0    0  0.71072739650E+03 -0.50145330584E+03  0.49217294934E+03  0.10034483611E+04  0.89919693416E+02 0.  0.
         13    1    3    3    0    0  0.37762528410E+03 -0.31245039001E+03  0.24862691307E+03  0.54958297218E+03  0.00000000000E+00 0.  1.
        -13    1    3    3    0    0  0.33310211241E+03 -0.18900291583E+03  0.24354603627E+03  0.45386538892E+03  0.00000000000E+00 0. -1.
         22    1    1    2    0    0 -0.71072739650E+03  0.50145330584E+03  0.88333824357E+02  0.87429498146E+03  0.00000000000E+00 0. -1.
<mgrwt>
<rscale>  0 0.17857581E+04</rscale>
<asrwt>0</asrwt>
<pdfrwt beam="1">  1        2 0.99787428E-01 0.17857581E+04</pdfrwt>
<pdfrwt beam="2">  1       -2 0.18909616E+00 0.17857581E+04</pdfrwt>
<totfact> 0.66918897E+00</totfact>
</mgrwt>
</event>
<event>
 6    1  0.1831439E-005  0.3370707E+04  0.7818608E-02  0.8145133E-01
          1   -1    0    0  501    0  0.00000000000E+00  0.00000000000E+00  0.22627086468E+04  0.22627086468E+04  0.00000000000E+00 0. -1.
         -1   -1    0    0    0  501 -0.00000000000E+00 -0.00000000000E+00 -0.12553168138E+04  0.12553168138E+04  0.00000000000E+00 0.  1.
         23    2    1    2    0    0 -0.17494174077E+03 -0.12400010086E+04 -0.67109303152E+03  0.14238624883E+04  0.93869135474E+02 0.  0.
         13    1    3    3    0    0 -0.12203913400E+03 -0.85906470931E+03 -0.41515695234E+03  0.96189449530E+03  0.00000000000E+00 0. -1.
        -13    1    3    3    0    0 -0.52902606775E+02 -0.38093629934E+03 -0.25593607917E+03  0.46196799303E+03  0.00000000000E+00 0.  1.
         22    1    1    2    0    0  0.17494174077E+03  0.12400010086E+04  0.16784848645E+04  0.20941629723E+04  0.00000000000E+00 0. -1.
<mgrwt>
<rscale>  0 0.33707069E+04</rscale>
<asrwt>0</asrwt>
<pdfrwt beam="1">  1        1 0.34810902E+00 0.33707069E+04</pdfrwt>
<pdfrwt beam="2">  1       -1 0.19312566E+00 0.33707069E+04</pdfrwt>
<totfact> 0.27348590E-01</totfact>
</mgrwt>
</event>
<event>
 6    1  0.1831439E-005  0.2045545E+04  0.7818608E-02  0.8585618E-01
         -2   -1    0    0    0  501 -0.00000000000E+00  0.00000000000E+00  0.13508892514E+04  0.13508892514E+04  0.00000000000E+00 0.  1.
          2   -1    0    0  501    0  0.00000000000E+00 -0.00000000000E+00 -0.77435222346E+03  0.77435222346E+03  0.00000000000E+00 0. -1.
         23    2    1    2    0    0  0.91833582586E+03 -0.25815859453E+03 -0.87770817772E+02  0.96279084674E+03  0.96311728876E+02 0.  0.
         11    1    3    3    0    0  0.76660463077E+03 -0.23233271605E+03 -0.10510842313E+03  0.80790403606E+03  0.00000000000E+00 0.  1.
        -11    1    3    3    0    0  0.15173119509E+03 -0.25825878482E+02  0.17337605359E+02  0.15488681068E+03  0.00000000000E+00 0. -1.
         22    1    1    2    0    0 -0.91833582586E+03  0.25815859453E+03  0.66430784575E+03  0.11624506282E+04  0.00000000000E+00 0.  1.
<mgrwt>
<rscale>  0 0.20455455E+04</rscale>
<asrwt>0</asrwt>
<pdfrwt beam="1">  1        2 0.11913111E+00 0.20455455E+04</pdfrwt>
<pdfrwt beam="2">  1       -2 0.20782912E+00 0.20455455E+04</pdfrwt>
<totfact> 0.39349771E+00</totfact>
</mgrwt>
</event>
<event>
 6    1  0.1831439E-005  0.9789429E+03  0.7818608E-02  0.9331946E-01
         -2   -1    0    0    0  501 -0.00000000000E+00  0.00000000000E+00  0.15552213152E+03  0.15552213152E+03  0.00000000000E+00 0.  1.
          2   -1    0    0  501    0  0.00000000000E+00 -0.00000000000E+00 -0.15405030259E+04  0.15405030259E+04  0.00000000000E+00 0. -1.
         23    2    1    2    0    0  0.27266441724E+03  0.33075731270E+02 -0.13913774979E+04  0.14212874553E+04  0.93203007271E+02 0.  0.
         11    1    3    3    0    0  0.18492516212E+03  0.16409263398E+02 -0.70139397204E+03  0.72554812627E+03  0.00000000000E+00 0.  1.
        -11    1    3    3    0    0  0.87739255119E+02  0.16666467872E+02 -0.68998352587E+03  0.69573932907E+03  0.00000000000E+00 0. -1.
         22    1    1    2    0    0 -0.27266441724E+03 -0.33075731270E+02  0.63966035124E+01  0.27473770211E+03  0.00000000000E+00 0.  1.
<mgrwt>
<rscale>  0 0.97894293E+03</rscale>
<asrwt>0</asrwt>
<pdfrwt beam="1">  1        2 0.23700047E+00 0.97894293E+03</pdfrwt>
<pdfrwt beam="2">  1       -2 0.23926481E-01 0.97894293E+03</pdfrwt>
<totfact> 0.18684912E+02</totfact>
</mgrwt>
</event>
<event>
 6    1  0.1831439E-005  0.3923131E+04  0.7818608E-02  0.8020236E-01
          1   -1    0    0  501    0  0.00000000000E+00  0.00000000000E+00  0.26351281710E+04  0.26351281710E+04  0.00000000000E+00 0. -1.
         -1   -1    0    0    0  501 -0.00000000000E+00 -0.00000000000E+00 -0.14601713851E+04  0.14601713851E+04  0.00000000000E+00 0.  1.
         23    2    1    2    0    0  0.63597056698E+03 -0.14717409595E+04  0.17656777120E+04  0.23866652400E+04  0.89850827324E+02 0.  0.
         11    1    3    3    0    0  0.11644290166E+03 -0.36230624870E+03  0.40356739988E+03  0.55469939016E+03  0.00000000000E+00 0. -1.
        -11    1    3    3    0    0  0.51952766532E+03 -0.11094347108E+04  0.13621103121E+04  0.18319658498E+04  0.00000000000E+00 0.  1.
         22    1    1    2    0    0 -0.63597056698E+03  0.14717409595E+04 -0.59072092598E+03  0.17086343162E+04  0.00000000000E+00 0.  1.
<mgrwt>
<rscale>  0 0.39231308E+04</rscale>
<asrwt>0</asrwt>
<pdfrwt beam="1">  1        1 0.40540433E+00 0.39231308E+04</pdfrwt>
<pdfrwt beam="2">  1       -1 0.22464175E+00 0.39231308E+04</pdfrwt>
<totfact> 0.87969233E-02</totfact>
</mgrwt>
</event>
<event>
 6    1  0.1831439E-005  0.3755906E+04  0.7818608E-02  0.8055684E-01
         -1   -1    0    0    0  501 -0.00000000000E+00  0.00000000000E+00  0.15134758969E+04  0.15134758969E+04  0.00000000000E+00 0.  1.
          1   -1    0    0  501    0  0.00000000000E+00 -0.00000000000E+00 -0.23302041308E+04  0.23302041308E+04  0.00000000000E+00 0. -1.
         23    2    1    2    0    0  0.13899123418E+04  0.87249207246E+03 -0.13406243306E+04  0.21210175957E+04  0.91341728416E+02 0.  0.
         11    1    3    3    0    0  0.84080596454E+03  0.48258715136E+03 -0.76067038212E+03  0.12322598991E+04  0.00000000000E+00 0.  1.
        -11    1    3    3    0    0  0.54910637724E+03  0.38990492109E+03 -0.57995394843E+03  0.88875769662E+03  0.00000000000E+00 0. -1.
         22    1    1    2    0    0 -0.13899123418E+04 -0.87249207246E+03  0.52389609666E+03  0.17226624319E+04  0.00000000000E+00 0.  1.
<mgrwt>
<rscale>  0 0.37559062E+04</rscale>
<asrwt>0</asrwt>
<pdfrwt beam="1">  1        1 0.35849294E+00 0.37559062E+04</pdfrwt>
<pdfrwt beam="2">  1       -1 0.23284245E+00 0.37559062E+04</pdfrwt>
<totfact> 0.12808725E-01</totfact>
</mgrwt>
</event>
<event>
 6    1  0.1831439E-005  0.3468392E+04  0.7818608E-02  0.8121322E-01
          1   -1    0    0  501    0  0.00000000000E+00  0.00000000000E+00  0.10098193584E+04  0.10098193584E+04  0.00000000000E+00 0.  1.
         -1   -1    0    0    0  501 -0.00000000000E+00 -0.00000000000E+00 -0.29781913097E+04  0.29781913097E+04  0.00000000000E+00 0. -1.
         23    2    1    2    0    0 -0.56578306002E+03 -0.45894450023E+03  0.82329071678E+03  0.11028553901E+04  0.87987964715E+02 0.  0.
         11    1    3    3    0    0 -0.75355623436E+02 -0.98928542103E+02  0.11814212568E+03  0.17153101261E+03  0.00000000000E+00 0.  1.
        -11    1    3    3    0    0 -0.49042743659E+03 -0.36001595812E+03  0.70514859110E+03  0.93132437754E+03  0.00000000000E+00 0. -1.
         22    1    1    2    0    0  0.56578306002E+03  0.45894450023E+03 -0.27916626681E+04  0.28851552779E+04  0.00000000000E+00 0. -1.
<mgrwt>
<rscale>  0 0.34683917E+04</rscale>
<asrwt>0</asrwt>
<pdfrwt beam="1">  1        1 0.15535683E+00 0.34683917E+04</pdfrwt>
<pdfrwt beam="2">  1       -1 0.45818327E+00 0.34683917E+04</pdfrwt>
<totfact> 0.34532863E-02</totfact>
</mgrwt>
</event>
<event>
 6    1  0.1831439E-005  0.2834029E+04  0.7818608E-02  0.8292781E-01
         -1   -1    0    0    0  501 -0.00000000000E+00  0.00000000000E+00  0.18895139693E+04  0.18895139693E+04  0.00000000000E+00 0.  1.
          1   -1    0    0  501    0  0.00000000000E+00 -0.00000000000E+00 -0.10626704179E+04  0.10626704179E+04  0.00000000000E+00 0. -1.
         23    2    1    2    0    0 -0.10968428641E+04 -0.81483433460E+03  0.28514271025E+02  0.13696709113E+04  0.90366366980E+02 0.  0.
         11    1    3    3    0    0 -0.66080025927E+03 -0.45538933277E+03  0.50900048584E+02  0.80413135867E+03  0.00000000000E+00 0. -1.
        -11    1    3    3    0    0 -0.43604260480E+03 -0.35944500183E+03 -0.22385777559E+02  0.56553955262E+03  0.00000000000E+00 0.  1.
         22    1    1    2    0    0  0.10968428641E+04  0.81483433460E+03  0.79832928043E+03  0.15825134759E+04  0.00000000000E+00 0.  1.
<mgrwt>
<rscale>  0 0.28340294E+04</rscale>
<asrwt>0</asrwt>
<pdfrwt beam="1">  1        1 0.16348776E+00 0.28340294E+04</pdfrwt>
<pdfrwt beam="2">  1       -1 0.29069446E+00 0.28340294E+04</pdfrwt>
<totfact> 0.44325151E-01</totfact>
</mgrwt>
</event>
<event>
 6    1  0.1831439E-005  0.2639296E+04  0.7818608E-02  0.8354975E-01
          2   -1    0    0  501    0  0.00000000000E+00  0.00000000000E+00  0.24855835450E+04  0.24855835450E+04  0.00000000000E+00 0. -1.
         -2   -1    0    0    0  501 -0.00000000000E+00 -0.00000000000E+00 -0.70062832452E+03  0.70062832452E+03  0.00000000000E+00 0.  1.
         23    2    1    2    0    0  0.11768183505E+04  0.44556752647E+02  0.16082121254E+04  0.19953613937E+04  0.90742035330E+02 0.  0.
         11    1    3    3    0    0  0.22130059043E+03 -0.12358873013E+02  0.25567630947E+03  0.33837415429E+03  0.00000000000E+00 0. -1.
        -11    1    3    3    0    0  0.95551776003E+03  0.56915625660E+02  0.13525358159E+04  0.16569872394E+04  0.00000000000E+00 0.  1.
         22    1    1    2    0    0 -0.11768183505E+04 -0.44556752647E+02  0.17674309510E+03  0.11908504759E+04  0.00000000000E+00 0.  1.
<mgrwt>
<rscale>  0 0.26392955E+04</rscale>
<asrwt>0</asrwt>
<pdfrwt beam="1">  1        2 0.38239746E+00 0.26392955E+04</pdfrwt>
<pdfrwt beam="2">  1       -2 0.10778897E+00 0.26392955E+04</pdfrwt>
<totfact> 0.21587716E+00</totfact>
</mgrwt>
</event>
<event>
 6    1  0.1831439E-005  0.8303209E+03  0.7818608E-02  0.9517137E-01
          2   -1    0    0  501    0  0.00000000000E+00  0.00000000000E+00  0.66138712038E+03  0.66138712038E+03  0.00000000000E+00 0. -1.
         -2   -1    0    0    0  501 -0.00000000000E+00 -0.00000000000E+00 -0.26060106293E+03  0.26060106293E+03  0.00000000000E+00 0.  1.
         23    2    1    2    0    0 -0.24646999120E+03 -0.32699526308E+03  0.17997391580E+03  0.45676634318E+03  0.92582521349E+02 0.  0.
         13    1    3    3    0    0 -0.22637637327E+03 -0.24038801828E+03  0.13078125676E+03  0.35515686510E+03  0.00000000000E+00 0. -1.
        -13    1    3    3    0    0 -0.20093617928E+02 -0.86607244802E+02  0.49192659034E+02  0.10160947808E+03  0.00000000000E+00 0.  1.
         22    1    1    2    0    0  0.24646999120E+03  0.32699526308E+03  0.22081214165E+03  0.46522184013E+03  0.00000000000E+00 0. -1.
<mgrwt>
<rscale>  0 0.83032087E+03</rscale>
<asrwt>0</asrwt>
<pdfrwt beam="1">  1        2 0.10175186E+00 0.83032087E+03</pdfrwt>
<pdfrwt beam="2">  1       -2 0.40092472E-01 0.83032087E+03</pdfrwt>
<totfact> 0.26035537E+02</totfact>
</mgrwt>
</event>
<event>
 6    1  0.1831439E-005  0.1741342E+04  0.7818608E-02  0.8738131E-01
          2   -1    0    0  501    0  0.00000000000E+00  0.00000000000E+00  0.27261381303E+04  0.27261381303E+04  0.00000000000E+00 0. -1.
         -2   -1    0    0    0  501 -0.00000000000E+00 -0.00000000000E+00 -0.27807395632E+03  0.27807395632E+03  0.00000000000E+00 0.  1.
         23    2    1    2    0    0 -0.25595926499E+03  0.36205358464E+03 -0.60329103590E+02  0.45693220832E+03  0.92463499702E+02 0.  0.
         13    1    3    3    0    0 -0.23435414197E+03  0.26620528326E+03 -0.45753435971E+02  0.35760382212E+03  0.00000000000E+00 0.  1.
        -13    1    3    3    0    0 -0.21605123017E+02  0.95848301377E+02 -0.14575667619E+02  0.99328386194E+02  0.00000000000E+00 0. -1.
         22    1    1    2    0    0  0.25595926499E+03 -0.36205358464E+03  0.25083932776E+04  0.25472798783E+04  0.00000000000E+00 0. -1.
<mgrwt>
<rscale>  0 0.17413420E+04</rscale>
<asrwt>0</asrwt>
<pdfrwt beam="1">  1        2 0.41940585E+00 0.17413420E+04</pdfrwt>
<pdfrwt beam="2">  1       -2 0.42780611E-01 0.17413420E+04</pdfrwt>
<totfact> 0.12618567E+01</totfact>
</mgrwt>
</event>
<event>
 6    1  0.1831439E-005  0.3308684E+04  0.7818608E-02  0.8160689E-01
         -2   -1    0    0    0  501 -0.00000000000E+00  0.00000000000E+00  0.12714954886E+04  0.12714954886E+04  0.00000000000E+00 0. -1.
          2   -1    0    0  501    0  0.00000000000E+00 -0.00000000000E+00 -0.21524631656E+04  0.21524631656E+04  0.00000000000E+00 0.  1.
         23    2    1    2    0    0 -0.82230186135E+03  0.10543267804E+04 -0.14449279536E+04  0.19728085914E+04  0.12795169520E+03 0.  0.
         11    1    3    3    0    0 -0.32640878318E+03  0.47262286270E+03 -0.54146187028E+03  0.78936431453E+03  0.00000000000E+00 0. -1.
        -11    1    3    3    0    0 -0.49589307816E+03  0.58170391774E+03 -0.90346608329E+03  0.11834442769E+04  0.00000000000E+00 0.  1.
         22    1    1    2    0    0  0.82230186135E+03 -0.10543267804E+04  0.56396027657E+03  0.14511500628E+04  0.00000000000E+00 0. -1.
<mgrwt>
<rscale>  0 0.33086838E+04</rscale>
<asrwt>0</asrwt>
<pdfrwt beam="1">  1        2 0.33114818E+00 0.33086838E+04</pdfrwt>
<pdfrwt beam="2">  1       -2 0.19561469E+00 0.33086838E+04</pdfrwt>
<totfact> 0.65164386E-01</totfact>
</mgrwt>
</event>
<event>
 6    1  0.1831439E-005  0.2706488E+04  0.7818608E-02  0.8332903E-01
         -2   -1    0    0    0  501 -0.00000000000E+00  0.00000000000E+00  0.68379342447E+03  0.68379342447E+03  0.00000000000E+00 0.  1.
          2   -1    0    0  501    0  0.00000000000E+00 -0.00000000000E+00 -0.26781025837E+04  0.26781025837E+04  0.00000000000E+00 0. -1.
         23    2    1    2    0    0  0.11464667539E+04  0.34162757403E+03 -0.21666919408E+03  0.12192109490E+04  0.91838886993E+02 0.  0.
         11    1    3    3    0    0  0.55340931515E+03  0.11732836452E+03 -0.97328661602E+02  0.57402150098E+03  0.00000000000E+00 0. -1.
        -11    1    3    3    0    0  0.59305743880E+03  0.22429920951E+03 -0.11934053247E+03  0.64518944799E+03  0.00000000000E+00 0.  1.
         22    1    1    2    0    0 -0.11464667539E+04 -0.34162757403E+03 -0.17776399652E+04  0.21426850592E+04  0.00000000000E+00 0. -1.
<mgrwt>
<rscale>  0 0.27064877E+04</rscale>
<asrwt>0</asrwt>
<pdfrwt beam="1">  1        2 0.41201578E+00 0.27064877E+04</pdfrwt>
<pdfrwt beam="2">  1       -2 0.10519899E+00 0.27064877E+04</pdfrwt>
<totfact> 0.17551996E+00</totfact>
</mgrwt>
</event>
<event>
 6    1  0.1831439E-005  0.3826583E+04  0.7818608E-02  0.8040474E-01
         -1   -1    0    0    0  501 -0.00000000000E+00  0.00000000000E+00  0.14220653659E+04  0.14220653659E+04  0.00000000000E+00 0.  1.
          1   -1    0    0  501    0  0.00000000000E+00 -0.00000000000E+00 -0.25742019424E+04  0.25742019424E+04  0.00000000000E+00 0. -1.
         23    2    1    2    0    0  0.17797409783E+04 -0.55637597516E+03 -0.10184218993E+04  0.21267989907E+04  0.95176711603E+02 0.  0.
         13    1    3    3    0    0  0.75685342499E+03 -0.27122192781E+03 -0.47720519548E+03  0.93494023319E+03  0.00000000000E+00 0. -1.
        -13    1    3    3    0    0  0.10228875533E+04 -0.28515404735E+03 -0.54121670381E+03  0.11918587576E+04  0.00000000000E+00 0.  1.
         22    1    1    2    0    0 -0.17797409783E+04  0.55637597516E+03 -0.13371467720E+03  0.18694683176E+04  0.00000000000E+00 0.  1.
<mgrwt>
<rscale>  0 0.38265825E+04</rscale>
<asrwt>0</asrwt>
<pdfrwt beam="1">  1        1 0.39603106E+00 0.38265825E+04</pdfrwt>
<pdfrwt beam="2">  1       -1 0.21877929E+00 0.38265825E+04</pdfrwt>
<totfact> 0.10707882E-01</totfact>
</mgrwt>
</event>
<event>
 6    1  0.1831439E-005  0.3251404E+04  0.7818608E-02  0.8175372E-01
         -1   -1    0    0    0  501 -0.00000000000E+00  0.00000000000E+00  0.14305929470E+04  0.14305929470E+04  0.00000000000E+00 0.  1.
          1   -1    0    0  501    0  0.00000000000E+00 -0.00000000000E+00 -0.18474203078E+04  0.18474203078E+04  0.00000000000E+00 0. -1.
         23    2    1    2    0    0  0.32180482311E+03 -0.51552571153E+03 -0.17273156761E+04  0.18334701685E+04  0.93103761297E+02 0.  0.
         11    1    3    3    0    0  0.51491968422E+02 -0.39797608507E+02 -0.24125595065E+03  0.24987938326E+03  0.00000000000E+00 0. -1.
        -11    1    3    3    0    0  0.27031285469E+03 -0.47572810303E+03 -0.14860597255E+04  0.15835907852E+04  0.00000000000E+00 0.  1.
         22    1    1    2    0    0 -0.32180482311E+03  0.51552571153E+03  0.13104883154E+04  0.14445430863E+04  0.00000000000E+00 0.  1.
<mgrwt>
<rscale>  0 0.32514037E+04</rscale>
<asrwt>0</asrwt>
<pdfrwt beam="1">  1        1 0.28421851E+00 0.32514037E+04</pdfrwt>
<pdfrwt beam="2">  1       -1 0.22009122E+00 0.32514037E+04</pdfrwt>
<totfact> 0.34630064E-01</totfact>
</mgrwt>
</event>
<event>
 6    1  0.1831439E-005  0.3543881E+04  0.7818608E-02  0.8103469E-01
          1   -1    0    0  501    0  0.00000000000E+00  0.00000000000E+00  0.23567459937E+04  0.23567459937E+04  0.00000000000E+00 0.  1.
         -1   -1    0    0    0  501 -0.00000000000E+00 -0.00000000000E+00 -0.13322491165E+04  0.13322491165E+04  0.00000000000E+00 0. -1.
         23    2    1    2    0    0 -0.82761886174E+03  0.72950295280E+03  0.19543885286E+04  0.22461416797E+04  0.91599052654E+02 0.  0.
         13    1    3    3    0    0 -0.59802899540E+03  0.51806055236E+03  0.13160644500E+04  0.15355946900E+04  0.00000000000E+00 0.  1.
        -13    1    3    3    0    0 -0.22958986634E+03  0.21144240044E+03  0.63832407855E+03  0.71054698978E+03  0.00000000000E+00 0. -1.
         22    1    1    2    0    0  0.82761886174E+03 -0.72950295280E+03 -0.92989165133E+03  0.14428534304E+04  0.00000000000E+00 0. -1.
<mgrwt>
<rscale>  0 0.35438808E+04</rscale>
<asrwt>0</asrwt>
<pdfrwt beam="1">  1        1 0.36257631E+00 0.35438808E+04</pdfrwt>
<pdfrwt beam="2">  1       -1 0.20496140E+00 0.35438808E+04</pdfrwt>
<totfact> 0.19242782E-01</totfact>
</mgrwt>
</event>
<event>
 6    1  0.1831439E-005  0.1996258E+04  0.7818608E-02  0.8608372E-01
          2   -1    0    0  501    0  0.00000000000E+00  0.00000000000E+00  0.10338457789E+04  0.10338457789E+04  0.00000000000E+00 0. -1.
         -2   -1    0    0    0  501 -0.00000000000E+00 -0.00000000000E+00 -0.96364576037E+03  0.96364576037E+03  0.00000000000E+00 0.  1.
         23    2    1    2    0    0  0.82936461081E+03  0.55098399556E+03  0.44516018342E+01  0.99961786222E+03  0.88244165187E+02 0.  0.
         13    1    3    3    0    0  0.17144178761E+03  0.12891899849E+03  0.35068796477E+02  0.21735274371E+03  0.00000000000E+00 0. -1.
        -13    1    3    3    0    0  0.65792282320E+03  0.42206499707E+03 -0.30617194643E+02  0.78226511851E+03  0.00000000000E+00 0.  1.
         22    1    1    2    0    0 -0.82936461081E+03 -0.55098399556E+03  0.65748416682E+02  0.99787367703E+03  0.00000000000E+00 0. -1.
<mgrwt>
<rscale>  0 0.19962576E+04</rscale>
<asrwt>0</asrwt>
<pdfrwt beam="1">  1        2 0.15905320E+00 0.19962576E+04</pdfrwt>
<pdfrwt beam="2">  1       -2 0.14825319E+00 0.19962576E+04</pdfrwt>
<totfact> 0.68829607E+00</totfact>
</mgrwt>
</event>
<event>
 6    1  0.1831439E-005  0.1134714E+04  0.7818608E-02  0.9172002E-01
          2   -1    0    0  501    0  0.00000000000E+00  0.00000000000E+00  0.42480451846E+03  0.42480451846E+03  0.00000000000E+00 0. -1.
         -2   -1    0    0    0  501 -0.00000000000E+00 -0.00000000000E+00 -0.75774646093E+03  0.75774646093E+03  0.00000000000E+00 0.  1.
         23    2    1    2    0    0 -0.18370358496E+03 -0.11575833114E+03  0.37450678473E+03  0.44253023646E+03  0.91818734526E+02 0.  0.
         13    1    3    3    0    0 -0.27205618845E+02  0.14999585152E+02  0.62358309683E+02  0.69668443631E+02  0.00000000000E+00 0. -1.
        -13    1    3    3    0    0 -0.15649796611E+03 -0.13075791630E+03  0.31214847505E+03  0.37286179282E+03  0.00000000000E+00 0.  1.
         22    1    1    2    0    0  0.18370358496E+03  0.11575833114E+03 -0.70744872720E+03  0.74002074294E+03  0.00000000000E+00 0.  1.
<mgrwt>
<rscale>  0 0.11347143E+04</rscale>
<asrwt>0</asrwt>
<pdfrwt beam="1">  1        2 0.65354542E-01 0.11347143E+04</pdfrwt>
<pdfrwt beam="2">  1       -2 0.11657638E+00 0.11347143E+04</pdfrwt>
<totfact> 0.41960685E+01</totfact>
</mgrwt>
</event>
<event>
 6    1  0.1831439E-005  0.1943749E+04  0.7818608E-02  0.8633381E-01
          2   -1    0    0  501    0  0.00000000000E+00  0.00000000000E+00  0.10075424748E+04  0.10075424748E+04  0.00000000000E+00 0. -1.
         -2   -1    0    0    0  501 -0.00000000000E+00 -0.00000000000E+00 -0.93746968658E+03  0.93746968658E+03  0.00000000000E+00 0.  1.
         23    2    1    2    0    0 -0.37458290911E+03 -0.21794742776E+03 -0.83283545480E+03  0.94348496136E+03  0.93464113309E+02 0.  0.
         11    1    3    3    0    0 -0.17048980415E+03 -0.14516097979E+03 -0.47551375848E+03  0.52559663038E+03  0.00000000000E+00 0. -1.
        -11    1    3    3    0    0 -0.20409310497E+03 -0.72786447967E+02 -0.35732169632E+03  0.41788833098E+03  0.00000000000E+00 0.  1.
         22    1    1    2    0    0  0.37458290911E+03  0.21794742776E+03  0.90290824302E+03  0.10015272000E+04  0.00000000000E+00 0. -1.
<mgrwt>
<rscale>  0 0.19437495E+04</rscale>
<asrwt>0</asrwt>
<pdfrwt beam="1">  1        2 0.15500653E+00 0.19437495E+04</pdfrwt>
<pdfrwt beam="2">  1       -2 0.14422611E+00 0.19437495E+04</pdfrwt>
<totfact> 0.77247995E+00</totfact>
</mgrwt>
</event>
<event>
 6    1  0.1831439E-005  0.3119368E+04  0.7818608E-02  0.8210443E-01
          2   -1    0    0  501    0  0.00000000000E+00  0.00000000000E+00  0.39482821602E+04  0.39482821602E+04  0.00000000000E+00 0. -1.
         -2   -1    0    0    0  501 -0.00000000000E+00 -0.00000000000E+00 -0.61611962232E+03  0.61611962232E+03  0.00000000000E+00 0.  1.
         23    2    1    2    0    0 -0.11479292603E+04  0.46389901612E+02  0.32081175096E+04  0.34088582833E+04  0.91669136673E+02 0.  0.
         13    1    3    3    0    0 -0.72355833735E+03 -0.58144618654E+01  0.20957342783E+04  0.22171316246E+04  0.00000000000E+00 0. -1.
        -13    1    3    3    0    0 -0.42437092292E+03  0.52204363477E+02  0.11123832313E+04  0.11917266587E+04  0.00000000000E+00 0.  1.
         22    1    1    2    0    0  0.11479292603E+04 -0.46389901612E+02  0.12404502827E+03  0.11555434992E+04  0.00000000000E+00 0.  1.
<mgrwt>
<rscale>  0 0.31193680E+04</rscale>
<asrwt>0</asrwt>
<pdfrwt beam="1">  1        2 0.60742801E+00 0.31193680E+04</pdfrwt>
<pdfrwt beam="2">  1       -2 0.94787636E-01 0.31193680E+04</pdfrwt>
<totfact> 0.29861507E-01</totfact>
</mgrwt>
</event>
<event>
 6    1  0.1831439E-005  0.2683146E+04  0.7818608E-02  0.8340494E-01
         -2   -1    0    0    0  501 -0.00000000000E+00  0.00000000000E+00  0.13628554164E+04  0.13628554164E+04  0.00000000000E+00 0.  1.
          2   -1    0    0  501    0  0.00000000000E+00 -0.00000000000E+00 -0.13206227254E+04  0.13206227254E+04  0.00000000000E+00 0. -1.
         23    2    1    2    0    0  0.13515144558E+03 -0.12501747139E+04  0.48403300171E+03  0.13506652355E+04  0.93839773722E+02 0.  0.
         13    1    3    3    0    0  0.91740491079E+02 -0.56756314388E+03  0.18290849158E+03  0.60332392319E+03  0.00000000000E+00 0.  1.
        -13    1    3    3    0    0  0.43410954500E+02 -0.68261157000E+03  0.30112451013E+03  0.74734131230E+03  0.00000000000E+00 0. -1.
         22    1    1    2    0    0 -0.13515144558E+03  0.12501747139E+04 -0.44180031069E+03  0.13328129062E+04  0.00000000000E+00 0. -1.
<mgrwt>
<rscale>  0 0.26831458E+04</rscale>
<asrwt>0</asrwt>
<pdfrwt beam="1">  1        2 0.20317273E+00 0.26831458E+04</pdfrwt>
<pdfrwt beam="2">  1       -2 0.20967006E+00 0.26831458E+04</pdfrwt>
<totfact> 0.16256326E+00</totfact>
</mgrwt>
</event>
<event>
 6    1  0.1831439E-005  0.2431425E+04  0.7818608E-02  0.8427831E-01
          1   -1    0    0  501    0  0.00000000000E+00  0.00000000000E+00  0.20042716997E+04  0.20042716997E+04  0.00000000000E+00 0. -1.
         -1   -1    0    0    0  501 -0.00000000000E+00 -0.00000000000E+00 -0.73740375058E+03  0.73740375058E+03  0.00000000000E+00 0.  1.
         23    2    1    2    0    0  0.14633149241E+02  0.11468781556E+04  0.10830738950E+04  0.15800714355E+04  0.89627262456E+02 0.  0.
         11    1    3    3    0    0  0.31724008658E+02  0.69702168129E+03  0.70908695958E+03  0.99481151640E+03  0.00000000000E+00 0.  1.
        -11    1    3    3    0    0 -0.17090859417E+02  0.44985647436E+03  0.37398693542E+03  0.58525991906E+03  0.00000000000E+00 0. -1.
         22    1    1    2    0    0 -0.14633149241E+02 -0.11468781556E+04  0.18379405415E+03  0.11616040148E+04  0.00000000000E+00 0.  1.
<mgrwt>
<rscale>  0 0.24314255E+04</rscale>
<asrwt>0</asrwt>
<pdfrwt beam="1">  1        1 0.30834949E+00 0.24314255E+04</pdfrwt>
<pdfrwt beam="2">  1       -1 0.11344673E+00 0.24314255E+04</pdfrwt>
<totfact> 0.18756809E+00</totfact>
</mgrwt>
</event>
<event>
 6    1  0.1831439E-005  0.6021676E+04  0.7818608E-02  0.7687720E-01
          1   -1    0    0  501    0  0.00000000000E+00  0.00000000000E+00  0.31268384631E+04  0.31268384631E+04  0.00000000000E+00 0. -1.
         -1   -1    0    0    0  501 -0.00000000000E+00 -0.00000000000E+00 -0.28991407465E+04  0.28991407465E+04  0.00000000000E+00 0.  1.
         23    2    1    2    0    0  0.13604950705E+04  0.10117039690E+04 -0.23751851181E+04  0.29196162546E+04  0.90349161668E+02 0.  0.
         13    1    3    3    0    0  0.43488861244E+03  0.29742051182E+03 -0.80113343735E+03  0.95885444699E+03  0.00000000000E+00 0.  1.
        -13    1    3    3    0    0  0.92560645809E+03  0.71428345723E+03 -0.15740516807E+04  0.19607618076E+04  0.00000000000E+00 0. -1.
         22    1    1    2    0    0 -0.13604950705E+04 -0.10117039690E+04  0.26028828346E+04  0.31063629550E+04  0.00000000000E+00 0. -1.
<mgrwt>
<rscale>  0 0.60216758E+04</rscale>
<asrwt>0</asrwt>
<pdfrwt beam="1">  1        1 0.48105207E+00 0.60216758E+04</pdfrwt>
<pdfrwt beam="2">  1       -1 0.44602165E+00 0.60216758E+04</pdfrwt>
<totfact> 0.11120418E-03</totfact>
</mgrwt>
</event>
<event>
 6    1  0.1831439E-005  0.2360019E+04  0.7818608E-02  0.8454625E-01
          2   -1    0    0  501    0  0.00000000000E+00  0.00000000000E+00  0.21728855793E+04  0.21728855793E+04  0.00000000000E+00 0. -1.
         -2   -1    0    0    0  501 -0.00000000000E+00 -0.00000000000E+00 -0.64081717973E+03  0.64081717973E+03  0.00000000000E+00 0.  1.
         23    2    1    2    0    0  0.35854922131E+03  0.20639354195E+02  0.21051526308E+04  0.21373825219E+04  0.88050660037E+02 0.  0.
         11    1    3    3    0    0  0.12190346360E+03 -0.24455112842E+02  0.56634699702E+03  0.57983396591E+03  0.00000000000E+00 0. -1.
        -11    1    3    3    0    0  0.23664575771E+03  0.45094467038E+02  0.15388056338E+04  0.15575485560E+04  0.00000000000E+00 0.  1.
         22    1    1    2    0    0 -0.35854922131E+03 -0.20639354195E+02 -0.57308423126E+03  0.67632023714E+03  0.00000000000E+00 0.  1.
<mgrwt>
<rscale>  0 0.23600190E+04</rscale>
<asrwt>0</asrwt>
<pdfrwt beam="1">  1        2 0.33429009E+00 0.23600190E+04</pdfrwt>
<pdfrwt beam="2">  1       -2 0.98587260E-01 0.23600190E+04</pdfrwt>
<totfact> 0.41215353E+00</totfact>
</mgrwt>
</event>
<event>
 6    1  0.1831439E-005  0.2964911E+04  0.7818608E-02  0.8253822E-01
         -1   -1    0    0    0  501 -0.00000000000E+00  0.00000000000E+00  0.11032850652E+04  0.11032850652E+04  0.00000000000E+00 0.  1.
          1   -1    0    0  501    0  0.00000000000E+00 -0.00000000000E+00 -0.19919369120E+04  0.19919369120E+04  0.00000000000E+00 0. -1.
         23    2    1    2    0    0 -0.54382529856E+03 -0.13299965472E+04 -0.69859329184E+02  0.14414209137E+04  0.90427614484E+02 0.  0.
         11    1    3    3    0    0 -0.22806594145E+03 -0.48246764953E+03 -0.59093842138E+02  0.53691823276E+03  0.00000000000E+00 0. -1.
        -11    1    3    3    0    0 -0.31575935711E+03 -0.84752889772E+03 -0.10765487046E+02  0.90450268092E+03  0.00000000000E+00 0.  1.
         22    1    1    2    0    0  0.54382529856E+03  0.13299965472E+04 -0.81879251760E+03  0.16538010636E+04  0.00000000000E+00 0. -1.
<mgrwt>
<rscale>  0 0.29649110E+04</rscale>
<asrwt>0</asrwt>
<pdfrwt beam="1">  1        1 0.30645183E+00 0.29649110E+04</pdfrwt>
<pdfrwt beam="2">  1       -1 0.16973617E+00 0.29649110E+04</pdfrwt>
<totfact> 0.63668893E-01</totfact>
</mgrwt>
</event>
<event>
 6    1  0.1831439E-005  0.2274355E+04  0.7818608E-02  0.8488102E-01
         -1   -1    0    0    0  501 -0.00000000000E+00  0.00000000000E+00  0.74471143872E+03  0.74471143872E+03  0.00000000000E+00 0.  1.
          1   -1    0    0  501    0  0.00000000000E+00 -0.00000000000E+00 -0.17364749672E+04  0.17364749672E+04  0.00000000000E+00 0. -1.
         23    2    1    2    0    0  0.22612773581E+03 -0.92222545357E+03  0.18201665177E+03  0.97142038045E+03  0.94307761696E+02 0.  0.
         11    1    3    3    0    0  0.41593032673E+02 -0.33074715769E+03  0.87614477510E+02  0.34467369984E+03  0.00000000000E+00 0. -1.
        -11    1    3    3    0    0  0.18453470314E+03 -0.59147829587E+03  0.94402174263E+02  0.62674668061E+03  0.00000000000E+00 0.  1.
         22    1    1    2    0    0 -0.22612773581E+03  0.92222545357E+03 -0.11737801803E+04  0.15097660255E+04  0.00000000000E+00 0. -1.
<mgrwt>
<rscale>  0 0.22743551E+04</rscale>
<asrwt>0</asrwt>
<pdfrwt beam="1">  1        1 0.26714999E+00 0.22743551E+04</pdfrwt>
<pdfrwt beam="2">  1       -1 0.11457099E+00 0.22743551E+04</pdfrwt>
<totfact> 0.28234434E+00</totfact>
</mgrwt>
</event>
<event>
 6    1  0.1831439E-005  0.6347679E+03  0.7818608E-02  0.9835789E-01
          2   -1    0    0  501    0  0.00000000000E+00  0.00000000000E+00  0.12395494571E+04  0.12395494571E+04  0.00000000000E+00 0. -1.
         -2   -1    0    0    0  501 -0.00000000000E+00 -0.00000000000E+00 -0.81265471251E+02  0.81265471251E+02  0.00000000000E+00 0.  1.
         23    2    1    2    0    0 -0.12666944998E+03 -0.18312561189E+03  0.14173587035E+03  0.28016599119E+03  0.93935011508E+02 0.  0.
         13    1    3    3    0    0 -0.84121063508E+02 -0.15781678289E+03  0.14545432084E+03  0.23051995518E+03  0.00000000000E+00 0. -1.
        -13    1    3    3    0    0 -0.42548386471E+02 -0.25308829008E+02 -0.37184504951E+01  0.49646036007E+02  0.00000000000E+00 0.  1.
         22    1    1    2    0    0  0.12666944998E+03  0.18312561189E+03  0.10165481155E+04  0.10406489372E+04  0.00000000000E+00 0. -1.
<mgrwt>
<rscale>  0 0.63476790E+03</rscale>
<asrwt>0</asrwt>
<pdfrwt beam="1">  1        2 0.19069990E+00 0.63476790E+03</pdfrwt>
<pdfrwt beam="2">  1       -2 0.12502381E-01 0.63476790E+03</pdfrwt>
<totfact> 0.86326874E+02</totfact>
</mgrwt>
</event>
<event>
 6    1  0.1831439E-005  0.1873612E+04  0.7818608E-02  0.8668104E-01
         -1   -1    0    0    0  501 -0.00000000000E+00  0.00000000000E+00  0.52666608738E+03  0.52666608738E+03  0.00000000000E+00 0.  1.
          1   -1    0    0  501    0  0.00000000000E+00 -0.00000000000E+00 -0.16663419693E+04  0.16663419693E+04  0.00000000000E+00 0. -1.
         23    2    1    2    0    0  0.72877876954E+03 -0.26663967751E+03  0.38491108441E+02  0.78223072849E+03  0.90488312027E+02 0.  0.
         13    1    3    3    0    0  0.46529512095E+03 -0.16704360897E+03  0.67934151779E+02  0.49901719996E+03  0.00000000000E+00 0. -1.
        -13    1    3    3    0    0  0.26348364859E+03 -0.99596068535E+02 -0.29443043338E+02  0.28321352853E+03  0.00000000000E+00 0.  1.
         22    1    1    2    0    0 -0.72877876954E+03  0.26663967751E+03 -0.11781669903E+04  0.14107773281E+04  0.00000000000E+00 0. -1.
<mgrwt>
<rscale>  0 0.18736123E+04</rscale>
<asrwt>0</asrwt>
<pdfrwt beam="1">  1        1 0.25636030E+00 0.18736123E+04</pdfrwt>
<pdfrwt beam="2">  1       -1 0.81025551E-01 0.18736123E+04</pdfrwt>
<totfact> 0.71526249E+00</totfact>
</mgrwt>
</event>
<event>
 6    1  0.1831439E-005  0.1390667E+04  0.7818608E-02  0.8960602E-01
         -2   -1    0    0    0  501 -0.00000000000E+00  0.00000000000E+00  0.65364603877E+03  0.65364603877E+03  0.00000000000E+00 0.  1.
          2   -1    0    0  501    0  0.00000000000E+00 -0.00000000000E+00 -0.73967919151E+03  0.73967919151E+03  0.00000000000E+00 0. -1.
         23    2    1    2    0    0 -0.26505645895E+03 -0.62795153688E+03  0.84242934278E+02  0.69077843119E+03  0.74161377557E+02 0.  0.
         13    1    3    3    0    0 -0.12722886909E+02 -0.89664598514E+02  0.16907879817E+01  0.90578534113E+02  0.00000000000E+00 0. -1.
        -13    1    3    3    0    0 -0.25233357204E+03 -0.53828693837E+03  0.82552146297E+02  0.60019989708E+03  0.00000000000E+00 0.  1.
         22    1    1    2    0    0  0.26505645895E+03  0.62795153688E+03 -0.17027608702E+03  0.70254679909E+03  0.00000000000E+00 0. -1.
<mgrwt>
<rscale>  0 0.13906666E+04</rscale>
<asrwt>0</asrwt>
<pdfrwt beam="1">  1        2 0.11379680E+00 0.13906666E+04</pdfrwt>
<pdfrwt beam="2">  1       -2 0.10056093E+00 0.13906666E+04</pdfrwt>
<totfact> 0.30316504E+01</totfact>
</mgrwt>
</event>
<event>
 6    1  0.1831439E-005  0.1651437E+04  0.7818608E-02  0.8789557E-01
         -2   -1    0    0    0  501 -0.00000000000E+00  0.00000000000E+00  0.27590999628E+03  0.27590999628E+03  0.00000000000E+00 0.  1.
          2   -1    0    0  501    0  0.00000000000E+00 -0.00000000000E+00 -0.24711369051E+04  0.24711369051E+04  0.00000000000E+00 0. -1.
         23    2    1    2    0    0  0.35284661412E+03 -0.74370709551E+03 -0.11024201621E+04  0.13788994083E+04  0.91828032434E+02 0.  0.
         13    1    3    3    0    0  0.16016900889E+03 -0.24121695073E+03 -0.40996165868E+03  0.50190466258E+03  0.00000000000E+00 0. -1.
        -13    1    3    3    0    0  0.19267760523E+03 -0.50249014478E+03 -0.69245850339E+03  0.87699474575E+03  0.00000000000E+00 0.  1.
         22    1    1    2    0    0 -0.35284661412E+03  0.74370709551E+03 -0.10928067468E+04  0.13681474931E+04  0.00000000000E+00 0.  1.
<mgrwt>
<rscale>  0 0.16514374E+04</rscale>
<asrwt>0</asrwt>
<pdfrwt beam="1">  1        2 0.38017492E+00 0.16514374E+04</pdfrwt>
<pdfrwt beam="2">  1       -2 0.42447690E-01 0.16514374E+04</pdfrwt>
<totfact> 0.18210253E+01</totfact>
</mgrwt>
</event>
<event>
 6    1  0.1831439E-005  0.1590833E+04  0.7818608E-02  0.8826200E-01
          1   -1    0    0  501    0  0.00000000000E+00  0.00000000000E+00  0.19390571377E+04  0.19390571377E+04  0.00000000000E+00 0. -1.
         -1   -1    0    0    0  501 -0.00000000000E+00 -0.00000000000E+00 -0.32628599598E+03  0.32628599598E+03  0.00000000000E+00 0.  1.
         23    2    1    2    0    0  0.44231387273E+03  0.62468784392E+03  0.11037261617E+04  0.13461025471E+04  0.88905359544E+02 0.  0.
         11    1    3    3    0    0  0.43249289755E+03  0.60888978872E+03  0.10446662243E+04  0.12841823863E+04  0.00000000000E+00 0. -1.
        -11    1    3    3    0    0  0.98209751738E+01  0.15798055208E+02  0.59059937398E+02  0.61920160749E+02  0.00000000000E+00 0.  1.
         22    1    1    2    0    0 -0.44231387273E+03 -0.62468784392E+03  0.50904498006E+03  0.91924058661E+03  0.00000000000E+00 0.  1.
<mgrwt>
<rscale>  0 0.15908327E+04</rscale>
<asrwt>0</asrwt>
<pdfrwt beam="1">  1        1 0.29831648E+00 0.15908327E+04</pdfrwt>
<pdfrwt beam="2">  1       -1 0.50197847E-01 0.15908327E+04</pdfrwt>
<totfact> 0.12542994E+01</totfact>
</mgrwt>
</event>
<event>
 6    1  0.1831439E-005  0.1012623E+04  0.7818608E-02  0.9294808E-01
          2   -1    0    0  501    0  0.00000000000E+00  0.00000000000E+00  0.18204764068E+04  0.18204764068E+04  0.00000000000E+00 0. -1.
         -2   -1    0    0    0  501 -0.00000000000E+00 -0.00000000000E+00 -0.14081541259E+03  0.14081541259E+03  0.00000000000E+00 0.  1.
         23    2    1    2    0    0  0.48940524425E+03  0.40357476826E+02  0.64307843964E+03  0.81427411617E+03  0.91357745753E+02 0.  0.
         11    1    3    3    0    0  0.20322658897E+03  0.44221845965E+02  0.21326842961E+03  0.29789266724E+03  0.00000000000E+00 0. -1.
        -11    1    3    3    0    0  0.28617865527E+03 -0.38643691387E+01  0.42981001002E+03  0.51638144893E+03  0.00000000000E+00 0.  1.
         22    1    1    2    0    0 -0.48940524425E+03 -0.40357476826E+02  0.10365825545E+04  0.11470177032E+04  0.00000000000E+00 0. -1.
<mgrwt>
<rscale>  0 0.10126226E+04</rscale>
<asrwt>0</asrwt>
<pdfrwt beam="1">  1        2 0.28007328E+00 0.10126226E+04</pdfrwt>
<pdfrwt beam="2">  1       -2 0.21663911E-01 0.10126226E+04</pdfrwt>
<totfact> 0.15585542E+02</totfact>
</mgrwt>
</event>
<event>
 6    1  0.1831439E-005  0.2430681E+04  0.7818608E-02  0.8428106E-01
         -2   -1    0    0    0  501 -0.00000000000E+00  0.00000000000E+00  0.48513783795E+03  0.48513783795E+03  0.00000000000E+00 0.  1.
          2   -1    0    0  501    0  0.00000000000E+00 -0.00000000000E+00 -0.30446037150E+04  0.30446037150E+04  0.00000000000E+00 0. -1.
         23    2    1    2    0    0  0.84969175555E+02  0.35165634116E+03 -0.29637934786E+04  0.29871894795E+04  0.91363337931E+02 0.  0.
         13    1    3    3    0    0  0.33612768706E+02  0.64528240457E+02 -0.89221735882E+03  0.89517904769E+03  0.00000000000E+00 0. -1.
        -13    1    3    3    0    0  0.51356406849E+02  0.28712810071E+03 -0.20715761198E+04  0.20920104318E+04  0.00000000000E+00 0.  1.
         22    1    1    2    0    0 -0.84969175555E+02 -0.35165634116E+03  0.40432760153E+03  0.54255207348E+03  0.00000000000E+00 0.  1.
<mgrwt>
<rscale>  0 0.24306809E+04</rscale>
<asrwt>0</asrwt>
<pdfrwt beam="1">  1        2 0.46840058E+00 0.24306809E+04</pdfrwt>
<pdfrwt beam="2">  1       -2 0.74636589E-01 0.24306809E+04</pdfrwt>
<totfact> 0.23639744E+00</totfact>
</mgrwt>
</event>
<event>
 6    1  0.1831439E-005  0.1185710E+04  0.7818608E-02  0.9125457E-01
         -1   -1    0    0    0  501 -0.00000000000E+00  0.00000000000E+00  0.12391356502E+04  0.12391356502E+04  0.00000000000E+00 0. -1.
          1   -1    0    0  501    0  0.00000000000E+00 -0.00000000000E+00 -0.28364704100E+03  0.28364704100E+03  0.00000000000E+00 0.  1.
         23    2    1    2    0    0  0.71693049957E+02 -0.58333616136E+03  0.42298194550E+03  0.72969737585E+03  0.90130813483E+02 0.  0.
         13    1    3    3    0    0  0.55736918793E+02 -0.45315914643E+03  0.37218923164E+03  0.58905402151E+03  0.00000000000E+00 0.  1.
        -13    1    3    3    0    0  0.15956131165E+02 -0.13017701493E+03  0.50792713858E+02  0.14064335434E+03  0.00000000000E+00 0. -1.
         22    1    1    2    0    0 -0.71693049957E+02  0.58333616136E+03  0.53250666374E+03  0.79308531539E+03  0.00000000000E+00 0. -1.
<mgrwt>
<rscale>  0 0.11857102E+04</rscale>
<asrwt>0</asrwt>
<pdfrwt beam="1">  1        1 0.43638007E-01 0.11857102E+04</pdfrwt>
<pdfrwt beam="2">  1       -1 0.19063625E+00 0.11857102E+04</pdfrwt>
<totfact> 0.16347901E+01</totfact>
</mgrwt>
</event>
<event>
 6    1  0.1831439E-005  0.1574903E+04  0.7818608E-02  0.8836116E-01
         -2   -1    0    0    0  501 -0.00000000000E+00  0.00000000000E+00  0.40115047149E+03  0.40115047149E+03  0.00000000000E+00 0.  1.
          2   -1    0    0  501    0  0.00000000000E+00 -0.00000000000E+00 -0.15457531229E+04  0.15457531229E+04  0.00000000000E+00 0. -1.
         23    2    1    2    0    0  0.45636775760E+03  0.16081209389E+03  0.18922118461E+03  0.52802442925E+03  0.94197035271E+02 0.  0.
         11    1    3    3    0    0  0.39831662498E+03  0.14137713345E+03  0.19699264034E+03  0.46631505224E+03  0.00000000000E+00 0.  1.
        -11    1    3    3    0    0  0.58051132629E+02  0.19434960445E+02 -0.77714557296E+01  0.61709377011E+02  0.00000000000E+00 0. -1.
         22    1    1    2    0    0 -0.45636775760E+03 -0.16081209389E+03 -0.13338238360E+04  0.14188791651E+04  0.00000000000E+00 0. -1.
<mgrwt>
<rscale>  0 0.15749027E+04</rscale>
<asrwt>0</asrwt>
<pdfrwt beam="1">  1        2 0.23780817E+00 0.15749027E+04</pdfrwt>
<pdfrwt beam="2">  1       -2 0.61715457E-01 0.15749027E+04</pdfrwt>
<totfact> 0.28031880E+01</totfact>
</mgrwt>
</event>
<event>
 6    1  0.1831439E-005  0.2742692E+04  0.7818608E-02  0.8321284E-01
         -2   -1    0    0    0  501 -0.00000000000E+00  0.00000000000E+00  0.12632287269E+04  0.12632287269E+04  0.00000000000E+00 0.  1.
          2   -1    0    0  501    0  0.00000000000E+00 -0.00000000000E+00 -0.14887170847E+04  0.14887170847E+04  0.00000000000E+00 0. -1.
         23    2    1    2    0    0  0.69043835794E+03  0.72437923687E+02  0.10717618994E+04  0.12806162738E+04  0.96706218918E+02 0.  0.
         13    1    3    3    0    0  0.30055843290E+03  0.42783130466E+01  0.53572585853E+03  0.61429298470E+03  0.00000000000E+00 0. -1.
        -13    1    3    3    0    0  0.38987992504E+03  0.68159610640E+02  0.53603604089E+03  0.66632328911E+03  0.00000000000E+00 0.  1.
         22    1    1    2    0    0 -0.69043835794E+03 -0.72437923687E+02 -0.12972502572E+04  0.14713295378E+04  0.00000000000E+00 0. -1.
<mgrwt>
<rscale>  0 0.27426922E+04</rscale>
<asrwt>0</asrwt>
<pdfrwt beam="1">  1        2 0.22903340E+00 0.27426922E+04</pdfrwt>
<pdfrwt beam="2">  1       -2 0.19434288E+00 0.27426922E+04</pdfrwt>
<totfact> 0.16328158E+00</totfact>
</mgrwt>
</event>
<event>
 6    1  0.1831439E-005  0.4345876E+04  0.7818608E-02  0.7938189E-01
          2   -1    0    0  501    0  0.00000000000E+00  0.00000000000E+00  0.17248379609E+04  0.17248379609E+04  0.00000000000E+00 0. -1.
         -2   -1    0    0    0  501 -0.00000000000E+00 -0.00000000000E+00 -0.27374513129E+04  0.27374513129E+04  0.00000000000E+00 0.  1.
         23    2    1    2    0    0 -0.17822890224E+04  0.10179464973E+04 -0.12360229964E+04  0.23976631334E+04  0.90919870306E+02 0.  0.
         11    1    3    3    0    0 -0.40124658750E+03  0.20419356993E+03 -0.23560688613E+03  0.50813821227E+03  0.00000000000E+00 0. -1.
        -11    1    3    3    0    0 -0.13810424349E+04  0.81375292741E+03 -0.10004161103E+04  0.18895249211E+04  0.00000000000E+00 0.  1.
         22    1    1    2    0    0  0.17822890224E+04 -0.10179464973E+04  0.22340964439E+03  0.20646261405E+04  0.00000000000E+00 0. -1.
<mgrwt>
<rscale>  0 0.43458762E+04</rscale>
<asrwt>0</asrwt>
<pdfrwt beam="1">  1        2 0.26535969E+00 0.43458762E+04</pdfrwt>
<pdfrwt beam="2">  1       -2 0.42114636E+00 0.43458762E+04</pdfrwt>
<totfact> 0.39276340E-02</totfact>
</mgrwt>
</event>
<event>
 6    1  0.1831439E-005  0.1409301E+04  0.7818608E-02  0.8947114E-01
          1   -1    0    0  501    0  0.00000000000E+00  0.00000000000E+00  0.17304638755E+04  0.17304638755E+04  0.00000000000E+00 0. -1.
         -1   -1    0    0    0  501 -0.00000000000E+00 -0.00000000000E+00 -0.28693579253E+03  0.28693579253E+03  0.00000000000E+00 0.  1.
         23    2    1    2    0    0 -0.59084657218E+03 -0.34958540547E+03  0.51743222038E+03  0.86459301716E+03  0.92061691597E+02 0.  0.
         13    1    3    3    0    0 -0.17715722841E+03 -0.90333010782E+02  0.20133366066E+03  0.28298406197E+03  0.00000000000E+00 0.  1.
        -13    1    3    3    0    0 -0.41368934377E+03 -0.25925239469E+03  0.31609855973E+03  0.58160895519E+03  0.00000000000E+00 0. -1.
         22    1    1    2    0    0  0.59084657218E+03  0.34958540547E+03  0.92609586260E+03  0.11528066509E+04  0.00000000000E+00 0. -1.
<mgrwt>
<rscale>  0 0.14093006E+04</rscale>
<asrwt>0</asrwt>
<pdfrwt beam="1">  1        1 0.26622521E+00 0.14093006E+04</pdfrwt>
<pdfrwt beam="2">  1       -1 0.44143969E-01 0.14093006E+04</pdfrwt>
<totfact> 0.22475317E+01</totfact>
</mgrwt>
</event>
<event>
 6    1  0.1831439E-005  0.4250249E+04  0.7818608E-02  0.7955882E-01
          2   -1    0    0  501    0  0.00000000000E+00  0.00000000000E+00  0.21013697903E+04  0.21013697903E+04  0.00000000000E+00 0. -1.
         -2   -1    0    0    0  501 -0.00000000000E+00 -0.00000000000E+00 -0.21491474791E+04  0.21491474791E+04  0.00000000000E+00 0.  1.
         23    2    1    2    0    0 -0.97323517382E+02  0.14432305875E+04  0.15316792277E+04  0.21087725258E+04  0.92162429281E+02 0.  0.
         11    1    3    3    0    0 -0.92538673036E+02  0.68819235292E+03  0.73210824855E+03  0.10090364752E+04  0.00000000000E+00 0.  1.
        -11    1    3    3    0    0 -0.47848443460E+01  0.75503823459E+03  0.79957097912E+03  0.10997360506E+04  0.00000000000E+00 0. -1.
         22    1    1    2    0    0  0.97323517382E+02 -0.14432305875E+04 -0.15794569164E+04  0.21417447436E+04  0.00000000000E+00 0.  1.
<mgrwt>
<rscale>  0 0.42502487E+04</rscale>
<asrwt>0</asrwt>
<pdfrwt beam="1">  1        2 0.32328766E+00 0.42502487E+04</pdfrwt>
<pdfrwt beam="2">  1       -2 0.33063807E+00 0.42502487E+04</pdfrwt>
<totfact> 0.93275062E-02</totfact>
</mgrwt>
</event>
<event>
 6    1  0.1831439E-005  0.7313038E+03  0.7818608E-02  0.9665147E-01
          3   -1    0    0  501    0  0.00000000000E+00  0.00000000000E+00  0.18980498194E+03  0.18980498194E+03  0.00000000000E+00 0. -1.
         -3   -1    0    0    0  501 -0.00000000000E+00 -0.00000000000E+00 -0.70441415836E+03  0.70441415836E+03  0.00000000000E+00 0.  1.
         23    2    1    2    0    0 -0.13987387247E+03  0.30273214405E+03 -0.96585416272E+02  0.35947124147E+03  0.93163187844E+02 0.  0.
         11    1    3    3    0    0 -0.10561562003E+03  0.20558056895E+03 -0.21752460358E+02  0.23214478038E+03  0.00000000000E+00 0. -1.
        -11    1    3    3    0    0 -0.34258252432E+02  0.97151575105E+02 -0.74832955914E+02  0.12732646110E+03  0.00000000000E+00 0.  1.
         22    1    1    2    0    0  0.13987387247E+03 -0.30273214405E+03 -0.41802376015E+03  0.53474789882E+03  0.00000000000E+00 0.  1.
<mgrwt>
<rscale>  0 0.73130381E+03</rscale>
<asrwt>0</asrwt>
<pdfrwt beam="1">  1        3 0.29200766E-01 0.73130381E+03</pdfrwt>
<pdfrwt beam="2">  1       -3 0.10837141E+00 0.73130381E+03</pdfrwt>
<totfact> 0.21739582E+01</totfact>
</mgrwt>
</event>
<event>
 6    1  0.1831439E-005  0.1488021E+04  0.7818608E-02  0.8892458E-01
          2   -1    0    0  501    0  0.00000000000E+00  0.00000000000E+00  0.11016100525E+04  0.11016100525E+04  0.00000000000E+00 0. -1.
         -2   -1    0    0    0  501 -0.00000000000E+00 -0.00000000000E+00 -0.50249311420E+03  0.50249311420E+03  0.00000000000E+00 0.  1.
         23    2    1    2    0    0  0.52396243323E+03 -0.39474813706E+03 -0.72907705313E+02  0.66496534680E+03  0.80626644555E+02 0.  0.
         13    1    3    3    0    0  0.33254402909E+03 -0.26192610493E+03 -0.91321277398E+01  0.42340785478E+03  0.00000000000E+00 0. -1.
        -13    1    3    3    0    0  0.19141840413E+03 -0.13282203213E+03 -0.63775577573E+02  0.24155749203E+03  0.00000000000E+00 0.  1.
         22    1    1    2    0    0 -0.52396243323E+03  0.39474813706E+03  0.67202464361E+03  0.93913781990E+03  0.00000000000E+00 0.  1.
<mgrwt>
<rscale>  0 0.14880208E+04</rscale>
<asrwt>0</asrwt>
<pdfrwt beam="1">  1        2 0.16947847E+00 0.14880208E+04</pdfrwt>
<pdfrwt beam="2">  1       -2 0.77306633E-01 0.14880208E+04</pdfrwt>
<totfact> 0.31381630E+01</totfact>
</mgrwt>
</event>
<event>
 6    1  0.1831439E-005  0.2530397E+04  0.7818608E-02  0.8392236E-01
          1   -1    0    0  501    0  0.00000000000E+00  0.00000000000E+00  0.19664918160E+04  0.19664918160E+04  0.00000000000E+00 0. -1.
         -1   -1    0    0    0  501 -0.00000000000E+00 -0.00000000000E+00 -0.81400170268E+03  0.81400170268E+03  0.00000000000E+00 0.  1.
         23    2    1    2    0    0  0.57309578652E+03 -0.47000277654E+03 -0.54742582442E+03  0.92602443404E+03  0.92221628232E+02 0.  0.
         11    1    3    3    0    0  0.40220175025E+03 -0.29049552160E+03 -0.40283463066E+03  0.63908499876E+03  0.00000000000E+00 0. -1.
        -11    1    3    3    0    0  0.17089403626E+03 -0.17950725494E+03 -0.14459119376E+03  0.28693943528E+03  0.00000000000E+00 0.  1.
         22    1    1    2    0    0 -0.57309578652E+03  0.47000277654E+03  0.16999159377E+04  0.18544690846E+04  0.00000000000E+00 0. -1.
<mgrwt>
<rscale>  0 0.25303973E+04</rscale>
<asrwt>0</asrwt>
<pdfrwt beam="1">  1        1 0.30253720E+00 0.25303973E+04</pdfrwt>
<pdfrwt beam="2">  1       -1 0.12523103E+00 0.25303973E+04</pdfrwt>
<totfact> 0.15497520E+00</totfact>
</mgrwt>
</event>
<event>
 6    1  0.1831439E-005  0.2249149E+04  0.7818608E-02  0.8498245E-01
         -2   -1    0    0    0  501 -0.00000000000E+00  0.00000000000E+00  0.55811772396E+03  0.55811772396E+03  0.00000000000E+00 0.  1.
          2   -1    0    0  501    0  0.00000000000E+00 -0.00000000000E+00 -0.22659520809E+04  0.22659520809E+04  0.00000000000E+00 0. -1.
         23    2    1    2    0    0 -0.17478537814E+03  0.53420136318E+03 -0.20759081119E+04  0.21522072342E+04  0.81734113972E+02 0.  0.
         11    1    3    3    0    0  0.22556053328E+01  0.86586086034E+02 -0.32105147410E+03  0.33253012957E+03  0.00000000000E+00 0. -1.
        -11    1    3    3    0    0 -0.17704098347E+03  0.44761527715E+03 -0.17548566378E+04  0.18196771047E+04  0.00000000000E+00 0.  1.
         22    1    1    2    0    0  0.17478537814E+03 -0.53420136318E+03  0.36807375487E+03  0.67186257067E+03  0.00000000000E+00 0.  1.
<mgrwt>
<rscale>  0 0.22491492E+04</rscale>
<asrwt>0</asrwt>
<pdfrwt beam="1">  1        2 0.34860802E+00 0.22491492E+04</pdfrwt>
<pdfrwt beam="2">  1       -2 0.85864265E-01 0.22491492E+04</pdfrwt>
<totfact> 0.50797389E+00</totfact>
</mgrwt>
</event>
<event>
 6    1  0.1831439E-005  0.2047980E+04  0.7818608E-02  0.8584511E-01
         -1   -1    0    0    0  501 -0.00000000000E+00  0.00000000000E+00  0.16516712203E+04  0.16516712203E+04  0.00000000000E+00 0.  1.
          1   -1    0    0  501    0  0.00000000000E+00 -0.00000000000E+00 -0.63484499481E+03  0.63484499481E+03  0.00000000000E+00 0. -1.
         23    2    1    2    0    0 -0.32970991168E+03 -0.60409218409E+03  0.13529449034E+04  0.15206103734E+04  0.90332737152E+02 0.  0.
         13    1    3    3    0    0 -0.11116962417E+03 -0.28646701756E+03  0.64633485147E+03  0.71566107741E+03  0.00000000000E+00 0. -1.
        -13    1    3    3    0    0 -0.21854028751E+03 -0.31762516652E+03  0.70661005191E+03  0.80494929600E+03  0.00000000000E+00 0.  1.
         22    1    1    2    0    0  0.32970991168E+03  0.60409218409E+03 -0.33611867788E+03  0.76590584170E+03  0.00000000000E+00 0. -1.
<mgrwt>
<rscale>  0 0.20479797E+04</rscale>
<asrwt>0</asrwt>
<pdfrwt beam="1">  1        1 0.97668462E-01 0.20479797E+04</pdfrwt>
<pdfrwt beam="2">  1       -1 0.25410326E+00 0.20479797E+04</pdfrwt>
<totfact> 0.19097963E+00</totfact>
</mgrwt>
</event>
<event>
 6    1  0.1831439E-005  0.2255757E+04  0.7818608E-02  0.8495573E-01
         -1   -1    0    0    0  501 -0.00000000000E+00  0.00000000000E+00  0.61748499502E+03  0.61748499502E+03  0.00000000000E+00 0.  1.
          1   -1    0    0  501    0  0.00000000000E+00 -0.00000000000E+00 -0.20601468096E+04  0.20601468096E+04  0.00000000000E+00 0. -1.
         23    2    1    2    0    0  0.91811450276E+03 -0.56282525941E+03 -0.33189297561E+03  0.11305332537E+04  0.90807365039E+02 0.  0.
         13    1    3    3    0    0  0.49486656975E+03 -0.28407100280E+03 -0.13153315004E+03  0.58556829324E+03  0.00000000000E+00 0. -1.
        -13    1    3    3    0    0  0.42324793301E+03 -0.27875425661E+03 -0.20035982557E+03  0.54496496042E+03  0.00000000000E+00 0.  1.
         22    1    1    2    0    0 -0.91811450276E+03  0.56282525941E+03 -0.11107688390E+04  0.15470985510E+04  0.00000000000E+00 0. -1.
<mgrwt>
<rscale>  0 0.22557569E+04</rscale>
<asrwt>0</asrwt>
<pdfrwt beam="1">  1        1 0.31694566E+00 0.22557569E+04</pdfrwt>
<pdfrwt beam="2">  1       -1 0.94997691E-01 0.22557569E+04</pdfrwt>
<totfact> 0.26349251E+00</totfact>
</mgrwt>
</event>
<event>
 6    1  0.1831439E-005  0.7314486E+03  0.7818608E-02  0.9664913E-01
         -2   -1    0    0    0  501 -0.00000000000E+00  0.00000000000E+00  0.21359136482E+03  0.21359136482E+03  0.00000000000E+00 0. -1.
          2   -1    0    0  501    0  0.00000000000E+00 -0.00000000000E+00 -0.62621564249E+03  0.62621564249E+03  0.00000000000E+00 0.  1.
         23    2    1    2    0    0 -0.19568202414E+03  0.27124885089E+03 -0.55234520422E+02  0.35032275601E+03  0.88361685445E+02 0.  0.
         11    1    3    3    0    0 -0.16706913499E+02  0.72094190755E+02  0.10147471427E+02  0.74697151724E+02  0.00000000000E+00 0. -1.
        -11    1    3    3    0    0 -0.17897511064E+03  0.19915466013E+03 -0.65381991849E+02  0.27562560429E+03  0.00000000000E+00 0.  1.
         22    1    1    2    0    0  0.19568202414E+03 -0.27124885089E+03 -0.35738975725E+03  0.48948425130E+03  0.00000000000E+00 0.  1.
<mgrwt>
<rscale>  0 0.73144857E+03</rscale>
<asrwt>0</asrwt>
<pdfrwt beam="1">  1        2 0.96340866E-01 0.73144857E+03</pdfrwt>
<pdfrwt beam="2">  1       -2 0.32860211E-01 0.73144857E+03</pdfrwt>
<totfact> 0.40925876E+02</totfact>
</mgrwt>
</event>
<event>
 6    1  0.1831439E-005  0.1727494E+04  0.7818608E-02  0.8745837E-01
          4   -1    0    0  501    0  0.00000000000E+00  0.00000000000E+00  0.47507591046E+03  0.47507591046E+03  0.00000000000E+00 0. -1.
         -4   -1    0    0    0  501 -0.00000000000E+00 -0.00000000000E+00 -0.15703999897E+04  0.15703999897E+04  0.00000000000E+00 0.  1.
         23    2    1    2    0    0 -0.64598076254E+03 -0.10757310130E+02 -0.12231528648E+04  0.13868811357E+04  0.99646819552E+02 0.  0.
         11    1    3    3    0    0 -0.28811457657E+03 -0.84186842200E+00 -0.44219069051E+03  0.52777203862E+03  0.00000000000E+00 0. -1.
        -11    1    3    3    0    0 -0.35786618597E+03 -0.99154417077E+01 -0.78096217430E+03  0.85910909711E+03  0.00000000000E+00 0.  1.
         22    1    1    2    0    0  0.64598076254E+03  0.10757310130E+02  0.12782878559E+03  0.65859476442E+03  0.00000000000E+00 0. -1.
<mgrwt>
<rscale>  0 0.17274944E+04</rscale>
<asrwt>0</asrwt>
<pdfrwt beam="1">  1        4 0.73088601E-01 0.17274944E+04</pdfrwt>
<pdfrwt beam="2">  1       -4 0.24160000E+00 0.17274944E+04</pdfrwt>
<totfact> 0.23042958E-01</totfact>
</mgrwt>
</event>
<event>
 6    1  0.1831439E-005  0.3109995E+04  0.7818608E-02  0.8213000E-01
         -2   -1    0    0    0  501 -0.00000000000E+00  0.00000000000E+00  0.72106336643E+03  0.72106336643E+03  0.00000000000E+00 0.  1.
          2   -1    0    0  501    0  0.00000000000E+00 -0.00000000000E+00 -0.33534045008E+04  0.33534045008E+04  0.00000000000E+00 0. -1.
         23    2    1    2    0    0 -0.26102096019E+03  0.13517347399E+04 -0.22606805754E+04  0.26484768715E+04  0.91838588153E+02 0.  0.
         13    1    3    3    0    0 -0.77013304085E+02  0.29362688100E+03 -0.43792431951E+03  0.53284660445E+03  0.00000000000E+00 0.  1.
        -13    1    3    3    0    0 -0.18400765611E+03  0.10581078589E+04 -0.18227562559E+04  0.21156302671E+04  0.00000000000E+00 0. -1.
         22    1    1    2    0    0  0.26102096019E+03 -0.13517347399E+04 -0.37166055895E+03  0.14259909957E+04  0.00000000000E+00 0.  1.
<mgrwt>
<rscale>  0 0.31099949E+04</rscale>
<asrwt>0</asrwt>
<pdfrwt beam="1">  1        2 0.51590839E+00 0.31099949E+04</pdfrwt>
<pdfrwt beam="2">  1       -2 0.11093282E+00 0.31099949E+04</pdfrwt>
<totfact> 0.55945095E-01</totfact>
</mgrwt>
</event>
<event>
 6    1  0.1831439E-005  0.5087054E+04  0.7818608E-02  0.7815217E-01
          2   -1    0    0  501    0  0.00000000000E+00  0.00000000000E+00  0.21034231582E+04  0.21034231582E+04  0.00000000000E+00 0. -1.
         -2   -1    0    0    0  501 -0.00000000000E+00 -0.00000000000E+00 -0.30757152531E+04  0.30757152531E+04  0.00000000000E+00 0.  1.
         23    2    1    2    0    0  0.19227193858E+04  0.16520541373E+04 -0.28490588235E+03  0.25526136133E+04  0.92369844520E+02 0.  0.
         13    1    3    3    0    0  0.14018107026E+04  0.11586678848E+04 -0.18125523121E+03  0.18276865081E+04  0.00000000000E+00 0.  1.
        -13    1    3    3    0    0  0.52090868316E+03  0.49338625253E+03 -0.10365065115E+03  0.72492710520E+03  0.00000000000E+00 0. -1.
         22    1    1    2    0    0 -0.19227193858E+04 -0.16520541373E+04 -0.68738621257E+03  0.26265247979E+04  0.00000000000E+00 0. -1.
<mgrwt>
<rscale>  0 0.50870544E+04</rscale>
<asrwt>0</asrwt>
<pdfrwt beam="1">  1        2 0.32360356E+00 0.50870544E+04</pdfrwt>
<pdfrwt beam="2">  1       -2 0.47318696E+00 0.50870544E+04</pdfrwt>
<totfact> 0.10387886E-02</totfact>
</mgrwt>
</event>
<event>
 6    1  0.1831439E-005  0.2283876E+04  0.7818608E-02  0.8484306E-01
         -2   -1    0    0    0  501 -0.00000000000E+00  0.00000000000E+00  0.56342735311E+03  0.56342735311E+03  0.00000000000E+00 0. -1.
          2   -1    0    0  501    0  0.00000000000E+00 -0.00000000000E+00 -0.23144458346E+04  0.23144458346E+04  0.00000000000E+00 0.  1.
         23    2    1    2    0    0 -0.67861888821E+03 -0.43320689503E+02 -0.20301532893E+04  0.21428109329E+04  0.87840986024E+02 0.  0.
         11    1    3    3    0    0 -0.10917577285E+03  0.71954309896E+01 -0.42634995108E+03  0.44016520125E+03  0.00000000000E+00 0.  1.
        -11    1    3    3    0    0 -0.56944311536E+03 -0.50516120492E+02 -0.16038033382E+04  0.17026457317E+04  0.00000000000E+00 0. -1.
         22    1    1    2    0    0  0.67861888821E+03  0.43320689503E+02  0.27913480773E+03  0.73506225482E+03  0.00000000000E+00 0. -1.
<mgrwt>
<rscale>  0 0.22838757E+04</rscale>
<asrwt>0</asrwt>
<pdfrwt beam="1">  1        2 0.35606859E+00 0.22838757E+04</pdfrwt>
<pdfrwt beam="2">  1       -2 0.86681131E-01 0.22838757E+04</pdfrwt>
<totfact> 0.46526504E+00</totfact>
</mgrwt>
</event>
<event>
 6    1  0.1831439E-005  0.2497855E+04  0.7818608E-02  0.8403750E-01
          3   -1    0    0  501    0  0.00000000000E+00  0.00000000000E+00  0.81569227621E+03  0.81569227621E+03  0.00000000000E+00 0. -1.
         -3   -1    0    0    0  501 -0.00000000000E+00 -0.00000000000E+00 -0.19122646505E+04  0.19122646505E+04  0.00000000000E+00 0.  1.
         23    2    1    2    0    0 -0.10439864636E+04  0.27597199924E+03 -0.12307914666E+04  0.16398011267E+04  0.89620423520E+02 0.  0.
         13    1    3    3    0    0 -0.65289299029E+03  0.21348536952E+03 -0.75431940034E+03  0.10202171423E+04  0.00000000000E+00 0.  1.
        -13    1    3    3    0    0 -0.39109347327E+03  0.62486629720E+02 -0.47647206626E+03  0.61958398434E+03  0.00000000000E+00 0. -1.
         22    1    1    2    0    0  0.10439864636E+04 -0.27597199924E+03  0.13421909229E+03  0.10881558001E+04  0.00000000000E+00 0. -1.
<mgrwt>
<rscale>  0 0.24978547E+04</rscale>
<asrwt>0</asrwt>
<pdfrwt beam="1">  1        3 0.12549112E+00 0.24978547E+04</pdfrwt>
<pdfrwt beam="2">  1       -3 0.29419456E+00 0.24978547E+04</pdfrwt>
<totfact> 0.48303485E-02</totfact>
</mgrwt>
</event>
<event>
 6    1  0.1831439E-005  0.1335571E+04  0.7818608E-02  0.9001823E-01
          2   -1    0    0  501    0  0.00000000000E+00  0.00000000000E+00  0.99679936952E+03  0.99679936952E+03  0.00000000000E+00 0. -1.
         -2   -1    0    0    0  501 -0.00000000000E+00 -0.00000000000E+00 -0.44736921847E+03  0.44736921847E+03  0.00000000000E+00 0.  1.
         23    2    1    2    0    0  0.48756055322E+03  0.34371280794E+03 -0.40910038981E+02  0.60490979158E+03  0.91588412318E+02 0.  0.
         11    1    3    3    0    0  0.10537780854E+03  0.68521988516E+02  0.28459337527E+02  0.12887854490E+03  0.00000000000E+00 0.  1.
        -11    1    3    3    0    0  0.38218274468E+03  0.27519081942E+03 -0.69369376508E+02  0.47603124668E+03  0.00000000000E+00 0. -1.
         22    1    1    2    0    0 -0.48756055322E+03 -0.34371280794E+03  0.59034019003E+03  0.83925879641E+03  0.00000000000E+00 0.  1.
<mgrwt>
<rscale>  0 0.13355708E+04</rscale>
<asrwt>0</asrwt>
<pdfrwt beam="1">  1        2 0.15335375E+00 0.13355708E+04</pdfrwt>
<pdfrwt beam="2">  1       -2 0.68826034E-01 0.13355708E+04</pdfrwt>
<totfact> 0.47740990E+01</totfact>
</mgrwt>
</event>
<event>
 6    1  0.1831439E-005  0.5176971E+04  0.7818608E-02  0.7801773E-01
         -2   -1    0    0    0  501 -0.00000000000E+00  0.00000000000E+00  0.20411211701E+04  0.20411211701E+04  0.00000000000E+00 0.  1.
          2   -1    0    0  501    0  0.00000000000E+00 -0.00000000000E+00 -0.32826356096E+04  0.32826356096E+04  0.00000000000E+00 0. -1.
         23    2    1    2    0    0  0.22375385598E+04 -0.12540592661E+04 -0.26920529471E+03  0.25806511450E+04  0.89696109480E+02 0.  0.
         11    1    3    3    0    0  0.76738715040E+03 -0.41022349580E+03 -0.52377727851E+02  0.87172804330E+03  0.00000000000E+00 0. -1.
        -11    1    3    3    0    0  0.14701514094E+04 -0.84383577028E+03 -0.21682756686E+03  0.17089231017E+04  0.00000000000E+00 0.  1.
         22    1    1    2    0    0 -0.22375385598E+04  0.12540592661E+04 -0.97230914478E+03  0.27431056346E+04  0.00000000000E+00 0. -1.
<mgrwt>
<rscale>  0 0.51769709E+04</rscale>
<asrwt>0</asrwt>
<pdfrwt beam="1">  1        2 0.50502086E+00 0.51769709E+04</pdfrwt>
<pdfrwt beam="2">  1       -2 0.31401864E+00 0.51769709E+04</pdfrwt>
<totfact> 0.21381429E-02</totfact>
</mgrwt>
</event>
<event>
 6    1  0.1831439E-005  0.2291509E+04  0.7818608E-02  0.8481276E-01
         -1   -1    0    0    0  501 -0.00000000000E+00  0.00000000000E+00  0.53536788405E+03  0.53536788405E+03  0.00000000000E+00 0.  1.
          1   -1    0    0  501    0  0.00000000000E+00 -0.00000000000E+00 -0.24520592727E+04  0.24520592727E+04  0.00000000000E+00 0. -1.
         23    2    1    2    0    0  0.18845057183E+03 -0.78838430339E+03 -0.20122055948E+04  0.21712247361E+04  0.90454800929E+02 0.  0.
         11    1    3    3    0    0  0.99377377150E+02 -0.47717369483E+03 -0.13185720533E+04  0.14057748248E+04  0.00000000000E+00 0. -1.
        -11    1    3    3    0    0  0.89073194685E+02 -0.31121060857E+03 -0.69363354146E+03  0.76544991131E+03  0.00000000000E+00 0.  1.
         22    1    1    2    0    0 -0.18845057183E+03  0.78838430339E+03  0.95514206177E+02  0.81620242063E+03  0.00000000000E+00 0.  1.
<mgrwt>
<rscale>  0 0.22915094E+04</rscale>
<asrwt>0</asrwt>
<pdfrwt beam="1">  1        1 0.37723988E+00 0.22915094E+04</pdfrwt>
<pdfrwt beam="2">  1       -1 0.82364291E-01 0.22915094E+04</pdfrwt>
<totfact> 0.19384758E+00</totfact>
</mgrwt>
</event>
<event>
 6    1  0.1831439E-005  0.3166582E+04  0.7818608E-02  0.8197699E-01
         -2   -1    0    0    0  501 -0.00000000000E+00  0.00000000000E+00  0.17334168221E+04  0.17334168221E+04  0.00000000000E+00 0.  1.
          2   -1    0    0  501    0  0.00000000000E+00 -0.00000000000E+00 -0.14461666926E+04  0.14461666926E+04  0.00000000000E+00 0. -1.
         23    2    1    2    0    0  0.35315583967E+02  0.62868501580E+03 -0.13134461304E+04  0.14594903324E+04  0.92082860852E+02 0.  0.
         11    1    3    3    0    0  0.52191689166E+02  0.19817036131E+03 -0.45342654973E+03  0.49758526959E+03  0.00000000000E+00 0.  1.
        -11    1    3    3    0    0 -0.16876105199E+02  0.43051465449E+03 -0.86001958070E+03  0.96190506280E+03  0.00000000000E+00 0. -1.
         22    1    1    2    0    0 -0.35315583967E+02 -0.62868501580E+03  0.16006962599E+04  0.17200931824E+04  0.00000000000E+00 0.  1.
<mgrwt>
<rscale>  0 0.31665815E+04</rscale>
<asrwt>0</asrwt>
<pdfrwt beam="1">  1        2 0.22248718E+00 0.31665815E+04</pdfrwt>
<pdfrwt beam="2">  1       -2 0.26667951E+00 0.31665815E+04</pdfrwt>
<totfact> 0.58397610E-01</totfact>
</mgrwt>
</event>
<event>
 6    1  0.1831439E-005  0.2255360E+04  0.7818608E-02  0.8495733E-01
          1   -1    0    0  501    0  0.00000000000E+00  0.00000000000E+00  0.46018930209E+03  0.46018930209E+03  0.00000000000E+00 0. -1.
         -1   -1    0    0    0  501 -0.00000000000E+00 -0.00000000000E+00 -0.27633462594E+04  0.27633462594E+04  0.00000000000E+00 0.  1.
         23    2    1    2    0    0 -0.64742239289E+02  0.65795142687E+03 -0.24559395910E+04  0.25449825637E+04  0.90583315747E+02 0.  0.
         11    1    3    3    0    0 -0.85525186155E+02  0.58631601134E+03 -0.21613600334E+04  0.22411064715E+04  0.00000000000E+00 0. -1.
        -11    1    3    3    0    0  0.20782946867E+02  0.71635415529E+02 -0.29457955762E+03  0.30387609219E+03  0.00000000000E+00 0.  1.
         22    1    1    2    0    0  0.64742239289E+02 -0.65795142687E+03  0.15278263370E+03  0.67855299781E+03  0.00000000000E+00 0. -1.
<mgrwt>
<rscale>  0 0.22553602E+04</rscale>
<asrwt>0</asrwt>
<pdfrwt beam="1">  1        1 0.70798354E-01 0.22553602E+04</pdfrwt>
<pdfrwt beam="2">  1       -1 0.42513020E+00 0.22553602E+04</pdfrwt>
<totfact> 0.21666140E-01</totfact>
</mgrwt>
</event>
<event>
 6    1  0.1831439E-005  0.6760983E+04  0.7818608E-02  0.7602600E-01
         -2   -1    0    0    0  501 -0.00000000000E+00  0.00000000000E+00  0.34690980427E+04  0.34690980427E+04  0.00000000000E+00 0. -1.
          2   -1    0    0  501    0  0.00000000000E+00 -0.00000000000E+00 -0.32941482096E+04  0.32941482096E+04  0.00000000000E+00 0.  1.
         23    2    1    2    0    0 -0.24936483718E+04  0.21794378566E+04 -0.58752785146E+03  0.33647754502E+04  0.91067452816E+02 0.  0.
         13    1    3    3    0    0 -0.25782230995E+03  0.21653404573E+03 -0.87039029182E+02  0.34775728470E+03  0.00000000000E+00 0. -1.
        -13    1    3    3    0    0 -0.22358260619E+04  0.19629038109E+04 -0.50048882228E+03  0.30170181655E+04  0.00000000000E+00 0.  1.
         22    1    1    2    0    0  0.24936483718E+04 -0.21794378566E+04  0.76247768450E+03  0.33984708021E+04  0.00000000000E+00 0.  1.
<mgrwt>
<rscale>  0 0.67609831E+04</rscale>
<asrwt>0</asrwt>
<pdfrwt beam="1">  1        2 0.50679203E+00 0.67609831E+04</pdfrwt>
<pdfrwt beam="2">  1       -2 0.53370739E+00 0.67609831E+04</pdfrwt>
<totfact> 0.75907194E-04</totfact>
</mgrwt>
</event>
<event>
 6    1  0.1831439E-005  0.2465700E+04  0.7818608E-02  0.8415308E-01
          1   -1    0    0  501    0  0.00000000000E+00  0.00000000000E+00  0.32736180458E+04  0.32736180458E+04  0.00000000000E+00 0. -1.
         -1   -1    0    0    0  501 -0.00000000000E+00 -0.00000000000E+00 -0.46429327341E+03  0.46429327341E+03  0.00000000000E+00 0.  1.
         23    2    1    2    0    0  0.59476020115E+03  0.78775009534E+03  0.29123610845E+03  0.10332744805E+04  0.92454159957E+02 0.  0.
         11    1    3    3    0    0  0.13355468763E+03  0.15170614220E+03  0.24639160405E+02  0.20361408692E+03  0.00000000000E+00 0. -1.
        -11    1    3    3    0    0  0.46120551351E+03  0.63604395315E+03  0.26659694805E+03  0.82966039362E+03  0.00000000000E+00 0.  1.
         22    1    1    2    0    0 -0.59476020115E+03 -0.78775009534E+03  0.25180886639E+04  0.27046368387E+04  0.00000000000E+00 0. -1.
<mgrwt>
<rscale>  0 0.24656998E+04</rscale>
<asrwt>0</asrwt>
<pdfrwt beam="1">  1        1 0.50363353E+00 0.24656998E+04</pdfrwt>
<pdfrwt beam="2">  1       -1 0.71429737E-01 0.24656998E+04</pdfrwt>
<totfact> 0.65987904E-01</totfact>
</mgrwt>
</event>
<event>
 6    1  0.1831439E-005  0.6234106E+03  0.7818608E-02  0.9857993E-01
          1   -1    0    0  501    0  0.00000000000E+00  0.00000000000E+00  0.88943213984E+03  0.88943213984E+03  0.00000000000E+00 0. -1.
         -1   -1    0    0    0  501 -0.00000000000E+00 -0.00000000000E+00 -0.10923846214E+03  0.10923846214E+03  0.00000000000E+00 0.  1.
         23    2    1    2    0    0  0.23158593299E+03  0.44282121367E+01  0.71647806028E+03  0.75843876952E+03  0.90757384412E+02 0.  0.
         13    1    3    3    0    0  0.13032649509E+03 -0.36141660535E+02  0.46620612374E+03  0.48542699221E+03  0.00000000000E+00 0. -1.
        -13    1    3    3    0    0  0.10125943790E+03  0.40569872672E+02  0.25027193654E+03  0.27301177731E+03  0.00000000000E+00 0.  1.
         22    1    1    2    0    0 -0.23158593299E+03 -0.44282121367E+01  0.63715617421E+02  0.24023183246E+03  0.00000000000E+00 0.  1.
<mgrwt>
<rscale>  0 0.62341062E+03</rscale>
<asrwt>0</asrwt>
<pdfrwt beam="1">  1        1 0.13683571E+00 0.62341062E+03</pdfrwt>
<pdfrwt beam="2">  1       -1 0.16805918E-01 0.62341062E+03</pdfrwt>
<totfact> 0.51320821E+02</totfact>
</mgrwt>
</event>
<event>
 6    1  0.1831439E-005  0.2191600E+04  0.7818608E-02  0.8521932E-01
         -1   -1    0    0    0  501 -0.00000000000E+00  0.00000000000E+00  0.13687698633E+04  0.13687698633E+04  0.00000000000E+00 0.  1.
          1   -1    0    0  501    0  0.00000000000E+00 -0.00000000000E+00 -0.87726787306E+03  0.87726787306E+03  0.00000000000E+00 0. -1.
         23    2    1    2    0    0 -0.99813474830E+03 -0.42627139973E+03  0.10846585066E+03  0.10950829300E+04  0.97270246622E+02 0.  0.
         11    1    3    3    0    0 -0.23995190719E+03 -0.14787517570E+03  0.19830441182E+02  0.28255482964E+03  0.00000000000E+00 0.  1.
        -11    1    3    3    0    0 -0.75818284111E+03 -0.27839622403E+03  0.88635409479E+02  0.81252810039E+03  0.00000000000E+00 0. -1.
         22    1    1    2    0    0  0.99813474830E+03  0.42627139973E+03  0.38303613957E+03  0.11509548063E+04  0.00000000000E+00 0. -1.
<mgrwt>
<rscale>  0 0.21916002E+04</rscale>
<asrwt>0</asrwt>
<pdfrwt beam="1">  1        1 0.13496429E+00 0.21916002E+04</pdfrwt>
<pdfrwt beam="2">  1       -1 0.21057998E+00 0.21916002E+04</pdfrwt>
<totfact> 0.22084568E+00</totfact>
</mgrwt>
</event>
<event>
 6    1  0.1831439E-005  0.2751029E+04  0.7818608E-02  0.8318635E-01
         -2   -1    0    0    0  501 -0.00000000000E+00  0.00000000000E+00  0.22144316276E+04  0.22144316276E+04  0.00000000000E+00 0.  1.
          2   -1    0    0  501    0  0.00000000000E+00 -0.00000000000E+00 -0.85441335315E+03  0.85441335315E+03  0.00000000000E+00 0. -1.
         23    2    1    2    0    0 -0.72501550019E+03  0.16636325641E+03  0.19694355120E+04  0.21072246929E+04  0.91626751898E+02 0.  0.
         13    1    3    3    0    0 -0.54500121390E+03  0.15218122175E+03  0.14072974145E+04  0.15167964465E+04  0.00000000000E+00 0.  1.
        -13    1    3    3    0    0 -0.18001428629E+03  0.14182034660E+02  0.56213809759E+03  0.59042824639E+03  0.00000000000E+00 0. -1.
         22    1    1    2    0    0  0.72501550019E+03 -0.16636325641E+03 -0.60941723757E+03  0.96162028787E+03  0.00000000000E+00 0. -1.
<mgrwt>
<rscale>  0 0.27510289E+04</rscale>
<asrwt>0</asrwt>
<pdfrwt beam="1">  1        2 0.13144821E+00 0.27510289E+04</pdfrwt>
<pdfrwt beam="2">  1       -2 0.34068179E+00 0.27510289E+04</pdfrwt>
<totfact> 0.49022996E-01</totfact>
</mgrwt>
</event>
<event>
 6    1  0.1831439E-005  0.3358758E+04  0.7818608E-02  0.8148103E-01
          2   -1    0    0  501    0  0.00000000000E+00  0.00000000000E+00  0.26279851779E+04  0.26279851779E+04  0.00000000000E+00 0. -1.
         -2   -1    0    0    0  501 -0.00000000000E+00 -0.00000000000E+00 -0.10731849195E+04  0.10731849195E+04  0.00000000000E+00 0.  1.
         23    2    1    2    0    0  0.47037797421E+03 -0.12484245413E+04  0.18997876274E+04  0.23231876742E+04  0.90491249880E+02 0.  0.
         11    1    3    3    0    0  0.25972468613E+03 -0.78502471464E+03  0.12243901922E+04  0.14774478190E+04  0.00000000000E+00 0.  1.
        -11    1    3    3    0    0  0.21065328808E+03 -0.46339982664E+03  0.67539743518E+03  0.84573985513E+03  0.00000000000E+00 0. -1.
         22    1    1    2    0    0 -0.47037797421E+03  0.12484245413E+04 -0.34498736906E+03  0.13779824232E+04  0.00000000000E+00 0.  1.
<mgrwt>
<rscale>  0 0.33587581E+04</rscale>
<asrwt>0</asrwt>
<pdfrwt beam="1">  1        2 0.40430541E+00 0.33587581E+04</pdfrwt>
<pdfrwt beam="2">  1       -2 0.16510537E+00 0.33587581E+04</pdfrwt>
<totfact> 0.56270058E-01</totfact>
</mgrwt>
</event>
<event>
 6    1  0.1910825E-005  0.4723674E+04  0.7818608E-02  0.7872607E-01
         -1   -1    0    0    0  501 -0.00000000000E+00  0.00000000000E+00  0.15739990044E+04  0.15739990044E+04  0.00000000000E+00 0.  1.
          1   -1    0    0  501    0  0.00000000000E+00 -0.00000000000E+00 -0.35440139254E+04  0.35440139254E+04  0.00000000000E+00 0. -1.
         23    2    1    2    0    0 -0.14560303858E+03  0.23306213948E+04 -0.60773306078E+03  0.24145321740E+04  0.87348814626E+02 0.  0.
         13    1    3    3    0    0 -0.65398229577E+02  0.10851910194E+04 -0.23801260748E+03  0.11129090162E+04  0.00000000000E+00 0. -1.
        -13    1    3    3    0    0 -0.80204808998E+02  0.12454303754E+04 -0.36972045330E+03  0.13016231578E+04  0.00000000000E+00 0.  1.
         22    1    1    2    0    0  0.14560303858E+03 -0.23306213948E+04 -0.13622818602E+04  0.27034807558E+04  0.00000000000E+00 0. -1.
<mgrwt>
<rscale>  0 0.47236742E+04</rscale>
<asrwt>0</asrwt>
<pdfrwt beam="1">  1        1 0.54523290E+00 0.47236742E+04</pdfrwt>
<pdfrwt beam="2">  1       -1 0.24215370E+00 0.47236742E+04</pdfrwt>
<totfact> 0.13336111E-02</totfact>
</mgrwt>
</event>
<event>
 6    1  0.1831439E-005  0.5538460E+03  0.7818608E-02  0.1000608E+00
          2   -1    0    0  501    0  0.00000000000E+00  0.00000000000E+00  0.44726305863E+03  0.44726305863E+03  0.00000000000E+00 0. -1.
         -2   -1    0    0    0  501 -0.00000000000E+00 -0.00000000000E+00 -0.17145690738E+03  0.17145690738E+03  0.00000000000E+00 0.  1.
         23    2    1    2    0    0 -0.30591956891E+02  0.17012782122E+03  0.37209727774E+03  0.42085302986E+03  0.93709899489E+02 0.  0.
         11    1    3    3    0    0 -0.62721798043E+02  0.13590820200E+03  0.28266725183E+03  0.31985283894E+03  0.00000000000E+00 0. -1.
        -11    1    3    3    0    0  0.32129841152E+02  0.34219619228E+02  0.89430025906E+02  0.10100019092E+03  0.00000000000E+00 0.  1.
         22    1    1    2    0    0  0.30591956891E+02 -0.17012782122E+03 -0.96291126494E+02  0.19786693615E+03  0.00000000000E+00 0.  1.
<mgrwt>
<rscale>  0 0.55384597E+03</rscale>
<asrwt>0</asrwt>
<pdfrwt beam="1">  1        2 0.68809701E-01 0.55384597E+03</pdfrwt>
<pdfrwt beam="2">  1       -2 0.26377986E-01 0.55384597E+03</pdfrwt>
<totfact> 0.91361252E+02</totfact>
</mgrwt>
</event>
<event>
 6    1  0.1831439E-005  0.1408542E+04  0.7818608E-02  0.8947658E-01
         -1   -1    0    0    0  501 -0.00000000000E+00  0.00000000000E+00  0.63760940411E+03  0.63760940411E+03  0.00000000000E+00 0.  1.
          1   -1    0    0  501    0  0.00000000000E+00 -0.00000000000E+00 -0.77790226000E+03  0.77790226000E+03  0.00000000000E+00 0. -1.
         23    2    1    2    0    0 -0.37821813023E+03 -0.57998716761E+03 -0.18337293702E+03  0.72176101581E+03  0.88765203190E+02 0.  0.
         13    1    3    3    0    0 -0.11971467807E+03 -0.18223226367E+03 -0.10096747539E+03  0.24028032203E+03  0.00000000000E+00 0. -1.
        -13    1    3    3    0    0 -0.25850345216E+03 -0.39775490393E+03 -0.82405461631E+02  0.48148069378E+03  0.00000000000E+00 0.  1.
         22    1    1    2    0    0  0.37821813023E+03  0.57998716761E+03  0.43080081134E+02  0.69375064830E+03  0.00000000000E+00 0.  1.
<mgrwt>
<rscale>  0 0.14085422E+04</rscale>
<asrwt>0</asrwt>
<pdfrwt beam="1">  1        1 0.11967727E+00 0.14085422E+04</pdfrwt>
<pdfrwt beam="2">  1       -1 0.98093755E-01 0.14085422E+04</pdfrwt>
<totfact> 0.22447773E+01</totfact>
</mgrwt>
</event>
<event>
 6    1  0.1831439E-005  0.1281505E+04  0.7818608E-02  0.9044362E-01
         -1   -1    0    0    0  501 -0.00000000000E+00  0.00000000000E+00  0.41457203851E+03  0.41457203851E+03  0.00000000000E+00 0.  1.
          1   -1    0    0  501    0  0.00000000000E+00 -0.00000000000E+00 -0.99033079881E+03  0.99033079881E+03  0.00000000000E+00 0. -1.
         23    2    1    2    0    0  0.20255891921E+03 -0.60208819770E+03 -0.32238951544E+03  0.72099035183E+03  0.11113853613E+03 0.  0.
         11    1    3    3    0    0  0.15733513043E+03 -0.37080916108E+03 -0.15351116199E+03  0.43106780680E+03  0.00000000000E+00 0. -1.
        -11    1    3    3    0    0  0.45223788777E+02 -0.23127903662E+03 -0.16887835346E+03  0.28992254503E+03  0.00000000000E+00 0.  1.
         22    1    1    2    0    0 -0.20255891921E+03  0.60208819770E+03 -0.25336924486E+03  0.68391248548E+03  0.00000000000E+00 0.  1.
<mgrwt>
<rscale>  0 0.12815045E+04</rscale>
<asrwt>0</asrwt>
<pdfrwt beam="1">  1        1 0.15235858E+00 0.12815045E+04</pdfrwt>
<pdfrwt beam="2">  1       -1 0.63780314E-01 0.12815045E+04</pdfrwt>
<totfact> 0.37771583E+01</totfact>
</mgrwt>
</event>
<event>
 6    1  0.1831439E-005  0.2621281E+04  0.7818608E-02  0.8361008E-01
          1   -1    0    0  501    0  0.00000000000E+00  0.00000000000E+00  0.31998992554E+04  0.31998992554E+04  0.00000000000E+00 0. -1.
         -1   -1    0    0    0  501 -0.00000000000E+00 -0.00000000000E+00 -0.53682273611E+03  0.53682273611E+03  0.00000000000E+00 0.  1.
         23    2    1    2    0    0 -0.47066762408E+03  0.17496375817E+03  0.30563931435E+04  0.30988832219E+04  0.96942489923E+02 0.  0.
         11    1    3    3    0    0 -0.65150720800E+02  0.61459193568E+02  0.60240442792E+03  0.60902622577E+03  0.00000000000E+00 0. -1.
        -11    1    3    3    0    0 -0.40551690328E+03  0.11350456460E+03  0.24539887156E+04  0.24898569962E+04  0.00000000000E+00 0.  1.
         22    1    1    2    0    0  0.47066762408E+03 -0.17496375817E+03 -0.39331662426E+03  0.63783876955E+03  0.00000000000E+00 0.  1.
<mgrwt>
<rscale>  0 0.26212811E+04</rscale>
<asrwt>0</asrwt>
<pdfrwt beam="1">  1        1 0.49229218E+00 0.26212811E+04</pdfrwt>
<pdfrwt beam="2">  1       -1 0.82588115E-01 0.26212811E+04</pdfrwt>
<totfact> 0.54450325E-01</totfact>
</mgrwt>
</event>
<event>
 6    1  0.1831439E-005  0.2692435E+04  0.7818608E-02  0.8337464E-01
          2   -1    0    0  501    0  0.00000000000E+00  0.00000000000E+00  0.14567543116E+04  0.14567543116E+04  0.00000000000E+00 0.  1.
         -2   -1    0    0    0  501 -0.00000000000E+00 -0.00000000000E+00 -0.12440680954E+04  0.12440680954E+04  0.00000000000E+00 0. -1.
         23    2    1    2    0    0 -0.67688019379E+03 -0.10952519002E+04  0.49556903071E+03  0.13825787996E+04  0.90509398369E+02 0.  0.
         13    1    3    3    0    0 -0.51226456372E+03 -0.77351898029E+03  0.38677990625E+03  0.10051593366E+04  0.00000000000E+00 0. -1.
        -13    1    3    3    0    0 -0.16461563007E+03 -0.32173291989E+03  0.10878912446E+03  0.37741946294E+03  0.00000000000E+00 0.  1.
         22    1    1    2    0    0  0.67688019379E+03  0.10952519002E+04 -0.28288281452E+03  0.13182436074E+04  0.00000000000E+00 0. -1.
<mgrwt>
<rscale>  0 0.26924350E+04</rscale>
<asrwt>0</asrwt>
<pdfrwt beam="1">  1        2 0.22411605E+00 0.26924350E+04</pdfrwt>
<pdfrwt beam="2">  1       -2 0.19139509E+00 0.26924350E+04</pdfrwt>
<totfact> 0.17887464E+00</totfact>
</mgrwt>
</event>
<event>
 6    1  0.1831439E-005  0.2042078E+04  0.7818608E-02  0.8587196E-01
         -2   -1    0    0    0  501 -0.00000000000E+00  0.00000000000E+00  0.67799387580E+03  0.67799387580E+03  0.00000000000E+00 0.  1.
          2   -1    0    0  501    0  0.00000000000E+00 -0.00000000000E+00 -0.15376555708E+04  0.15376555708E+04  0.00000000000E+00 0. -1.
         23    2    1    2    0    0 -0.45245145389E+03 -0.12683870257E+03  0.55029611493E+03  0.72945248779E+03  0.92058368629E+02 0.  0.
         11    1    3    3    0    0 -0.22806631080E+03 -0.37134520246E+02  0.32718865500E+03  0.40055665102E+03  0.00000000000E+00 0. -1.
        -11    1    3    3    0    0 -0.22438514309E+03 -0.89704182328E+02  0.22310745993E+03  0.32889583677E+03  0.00000000000E+00 0.  1.
         22    1    1    2    0    0  0.45245145389E+03  0.12683870257E+03 -0.14099578100E+04  0.14861969588E+04  0.00000000000E+00 0. -1.
<mgrwt>
<rscale>  0 0.20420784E+04</rscale>
<asrwt>0</asrwt>
<pdfrwt beam="1">  1        2 0.23656239E+00 0.20420784E+04</pdfrwt>
<pdfrwt beam="2">  1       -2 0.10430675E+00 0.20420784E+04</pdfrwt>
<totfact> 0.83600475E+00</totfact>
</mgrwt>
</event>
<event>
 6    1  0.1831439E-005  0.1458368E+04  0.7818608E-02  0.8912620E-01
         -2   -1    0    0    0  501 -0.00000000000E+00  0.00000000000E+00  0.24485615661E+03  0.24485615661E+03  0.00000000000E+00 0.  1.
          2   -1    0    0  501    0  0.00000000000E+00 -0.00000000000E+00 -0.21715175084E+04  0.21715175084E+04  0.00000000000E+00 0. -1.
         23    2    1    2    0    0  0.50065088776E+03 -0.42060324887E+03 -0.14880562119E+04  0.16290155044E+04  0.10872819050E+03 0.  0.
         11    1    3    3    0    0  0.23706978939E+03 -0.13069741452E+03 -0.58286082605E+03  0.64265904004E+03  0.00000000000E+00 0.  1.
        -11    1    3    3    0    0  0.26358109837E+03 -0.28990583435E+03 -0.90519538585E+03  0.98635646435E+03  0.00000000000E+00 0. -1.
         22    1    1    2    0    0 -0.50065088776E+03  0.42060324887E+03 -0.43860513993E+03  0.78735816065E+03  0.00000000000E+00 0.  1.
<mgrwt>
<rscale>  0 0.14583682E+04</rscale>
<asrwt>0</asrwt>
<pdfrwt beam="1">  1        2 0.33407963E+00 0.14583682E+04</pdfrwt>
<pdfrwt beam="2">  1       -2 0.37670176E-01 0.14583682E+04</pdfrwt>
<totfact> 0.34562877E+01</totfact>
</mgrwt>
</event>
<event>
 6    1  0.1831439E-005  0.1968268E+04  0.7818608E-02  0.8621602E-01
          2   -1    0    0  501    0  0.00000000000E+00  0.00000000000E+00  0.23221851838E+04  0.23221851838E+04  0.00000000000E+00 0.  1.
         -2   -1    0    0    0  501 -0.00000000000E+00 -0.00000000000E+00 -0.41707252614E+03  0.41707252614E+03  0.00000000000E+00 0. -1.
         23    2    1    2    0    0  0.21153105734E+02 -0.93053986117E+03  0.51793706314E+03  0.10687464058E+04  0.87224947747E+02 0.  0.
         13    1    3    3    0    0 -0.30740536092E+02 -0.33228725485E+03  0.16597446280E+03  0.37270272684E+03  0.00000000000E+00 0. -1.
        -13    1    3    3    0    0  0.51893641826E+02 -0.59825260632E+03  0.35196260033E+03  0.69604367899E+03  0.00000000000E+00 0.  1.
         22    1    1    2    0    0 -0.21153105734E+02  0.93053986117E+03  0.13871755946E+04  0.16705113041E+04  0.00000000000E+00 0.  1.
<mgrwt>
<rscale>  0 0.19682679E+04</rscale>
<asrwt>0</asrwt>
<pdfrwt beam="1">  1        2 0.35725925E+00 0.19682679E+04</pdfrwt>
<pdfrwt beam="2">  1       -2 0.64165006E-01 0.19682679E+04</pdfrwt>
<totfact> 0.92097721E+00</totfact>
</mgrwt>
</event>
<event>
 6    1  0.1831439E-005  0.1651069E+04  0.7818608E-02  0.8789774E-01
          1   -1    0    0  501    0  0.00000000000E+00  0.00000000000E+00  0.69580579353E+03  0.69580579353E+03  0.00000000000E+00 0. -1.
         -1   -1    0    0    0  501 -0.00000000000E+00 -0.00000000000E+00 -0.97945076015E+03  0.97945076015E+03  0.00000000000E+00 0.  1.
         23    2    1    2    0    0  0.97863593021E+02  0.54919613601E+03 -0.75584716118E+03  0.94438817210E+03  0.96800877457E+02 0.  0.
         13    1    3    3    0    0  0.41144954358E+02  0.34936862984E+03 -0.40301126652E+03  0.53494806078E+03  0.00000000000E+00 0.  1.
        -13    1    3    3    0    0  0.56718638663E+02  0.19982750617E+03 -0.35283589466E+03  0.40944011132E+03  0.00000000000E+00 0. -1.
         22    1    1    2    0    0 -0.97863593021E+02 -0.54919613601E+03  0.47220219456E+03  0.73086838158E+03  0.00000000000E+00 0. -1.
<mgrwt>
<rscale>  0 0.16510694E+04</rscale>
<asrwt>0</asrwt>
<pdfrwt beam="1">  1        1 0.10704705E+00 0.16510694E+04</pdfrwt>
<pdfrwt beam="2">  1       -1 0.15068473E+00 0.16510694E+04</pdfrwt>
<totfact> 0.90544434E+00</totfact>
</mgrwt>
</event>
<event>
 6    1  0.1831439E-005  0.2271066E+04  0.7818608E-02  0.8489418E-01
          2   -1    0    0  501    0  0.00000000000E+00  0.00000000000E+00  0.23481611028E+04  0.23481611028E+04  0.00000000000E+00 0.  1.
         -2   -1    0    0    0  501 -0.00000000000E+00 -0.00000000000E+00 -0.54912552923E+03  0.54912552923E+03  0.00000000000E+00 0. -1.
         23    2    1    2    0    0 -0.76326160349E+03  0.83214955903E+03  0.77168500682E+03  0.13706922684E+04  0.90875635070E+02 0.  0.
         13    1    3    3    0    0 -0.35196620200E+03  0.45042977748E+03  0.38258478342E+03  0.68785049851E+03  0.00000000000E+00 0. -1.
        -13    1    3    3    0    0 -0.41129540149E+03  0.38171978154E+03  0.38910022339E+03  0.68284176992E+03  0.00000000000E+00 0.  1.
         22    1    1    2    0    0  0.76326160349E+03 -0.83214955903E+03  0.10273505667E+04  0.15265943636E+04  0.00000000000E+00 0.  1.
<mgrwt>
<rscale>  0 0.22710660E+04</rscale>
<asrwt>0</asrwt>
<pdfrwt beam="1">  1        2 0.36125555E+00 0.22710660E+04</pdfrwt>
<pdfrwt beam="2">  1       -2 0.84480852E-01 0.22710660E+04</pdfrwt>
<totfact> 0.47255925E+00</totfact>
</mgrwt>
</event>
<event>
 6    1  0.1831439E-005  0.2189343E+04  0.7818608E-02  0.8522877E-01
         -1   -1    0    0    0  501 -0.00000000000E+00  0.00000000000E+00  0.13090127078E+04  0.13090127078E+04  0.00000000000E+00 0.  1.
          1   -1    0    0  501    0  0.00000000000E+00 -0.00000000000E+00 -0.91542726104E+03  0.91542726104E+03  0.00000000000E+00 0. -1.
         23    2    1    2    0    0 -0.56703364376E+03 -0.88991403545E+03  0.48446559709E+03  0.11653208323E+04  0.98952431712E+02 0.  0.
         11    1    3    3    0    0 -0.14659861618E+02 -0.41564064773E+02  0.25824640578E+01  0.44149203206E+02  0.00000000000E+00 0. -1.
        -11    1    3    3    0    0 -0.55237378215E+03 -0.84834997068E+03  0.48188313303E+03  0.11211716291E+04  0.00000000000E+00 0.  1.
         22    1    1    2    0    0  0.56703364376E+03  0.88991403545E+03 -0.90880150342E+02  0.10591191365E+04  0.00000000000E+00 0. -1.
<mgrwt>
<rscale>  0 0.21893432E+04</rscale>
<asrwt>0</asrwt>
<pdfrwt beam="1">  1        1 0.14083496E+00 0.21893432E+04</pdfrwt>
<pdfrwt beam="2">  1       -1 0.20138657E+00 0.21893432E+04</pdfrwt>
<totfact> 0.23746388E+00</totfact>
</mgrwt>
</event>
<event>
 6    1  0.1831439E-005  0.4339853E+04  0.7818608E-02  0.7939290E-01
         -1   -1    0    0    0  501 -0.00000000000E+00  0.00000000000E+00  0.27424611968E+04  0.27424611968E+04  0.00000000000E+00 0.  1.
          1   -1    0    0  501    0  0.00000000000E+00 -0.00000000000E+00 -0.17169180415E+04  0.17169180415E+04  0.00000000000E+00 0. -1.
         23    2    1    2    0    0 -0.42004079270E+02 -0.21628189329E+04  0.67479579413E+03  0.22679017023E+04  0.92079792872E+02 0.  0.
         11    1    3    3    0    0 -0.27624084319E+02 -0.47091283691E+03  0.11256461977E+03  0.48496678610E+03  0.00000000000E+00 0. -1.
        -11    1    3    3    0    0 -0.14379994951E+02 -0.16919060960E+04  0.56223117436E+03  0.17829349162E+04  0.00000000000E+00 0.  1.
         22    1    1    2    0    0  0.42004079270E+02  0.21628189329E+04  0.35074736124E+03  0.21914775360E+04  0.00000000000E+00 0. -1.
<mgrwt>
<rscale>  0 0.43398530E+04</rscale>
<asrwt>0</asrwt>
<pdfrwt beam="1">  1        1 0.26414124E+00 0.43398530E+04</pdfrwt>
<pdfrwt beam="2">  1       -1 0.42191711E+00 0.43398530E+04</pdfrwt>
<totfact> 0.17865753E-02</totfact>
</mgrwt>
</event>
<event>
 6    1  0.1831439E-005  0.3553568E+04  0.7818608E-02  0.8101211E-01
          2   -1    0    0  501    0  0.00000000000E+00  0.00000000000E+00  0.20494721429E+04  0.20494721429E+04  0.00000000000E+00 0. -1.
         -2   -1    0    0    0  501 -0.00000000000E+00 -0.00000000000E+00 -0.15403780343E+04  0.15403780343E+04  0.00000000000E+00 0.  1.
         23    2    1    2    0    0  0.14619785794E+03  0.10755697883E+04  0.16742227590E+04  0.19974466619E+04  0.92450727139E+02 0.  0.
         13    1    3    3    0    0  0.75883422992E+02  0.65229283634E+03  0.93186813713E+03  0.11400098523E+04  0.00000000000E+00 0. -1.
        -13    1    3    3    0    0  0.70314434950E+02  0.42327695201E+03  0.74235462190E+03  0.85743680964E+03  0.00000000000E+00 0.  1.
         22    1    1    2    0    0 -0.14619785794E+03 -0.10755697883E+04 -0.11651286505E+04  0.15924035153E+04  0.00000000000E+00 0.  1.
<mgrwt>
<rscale>  0 0.35535683E+04</rscale>
<asrwt>0</asrwt>
<pdfrwt beam="1">  1        2 0.31530341E+00 0.35535683E+04</pdfrwt>
<pdfrwt beam="2">  1       -2 0.23698123E+00 0.35535683E+04</pdfrwt>
<totfact> 0.39677737E-01</totfact>
</mgrwt>
</event>
<event>
 6    1  0.1831439E-005  0.1953089E+04  0.7818608E-02  0.8628873E-01
          1   -1    0    0  501    0  0.00000000000E+00  0.00000000000E+00  0.73582408257E+03  0.73582408257E+03  0.00000000000E+00 0. -1.
         -1   -1    0    0    0  501 -0.00000000000E+00 -0.00000000000E+00 -0.12960154557E+04  0.12960154557E+04  0.00000000000E+00 0.  1.
         23    2    1    2    0    0 -0.26967322206E+03  0.11885313543E+03  0.68558910312E+03  0.75167599033E+03  0.90192359021E+02 0.  0.
         11    1    3    3    0    0 -0.14446925029E+03  0.23262901347E+02  0.26769604811E+03  0.30507982731E+03  0.00000000000E+00 0.  1.
        -11    1    3    3    0    0 -0.12520397177E+03  0.95590234083E+02  0.41789305501E+03  0.44659616302E+03  0.00000000000E+00 0. -1.
         22    1    1    2    0    0  0.26967322206E+03 -0.11885313543E+03 -0.12457804763E+04  0.12801635480E+04  0.00000000000E+00 0.  1.
<mgrwt>
<rscale>  0 0.19530892E+04</rscale>
<asrwt>0</asrwt>
<pdfrwt beam="1">  1        1 0.11320371E+00 0.19530892E+04</pdfrwt>
<pdfrwt beam="2">  1       -1 0.19938699E+00 0.19530892E+04</pdfrwt>
<totfact> 0.35710914E+00</totfact>
</mgrwt>
</event>
<event>
 6    1  0.1831439E-005  0.1142443E+04  0.7818608E-02  0.9164784E-01
          2   -1    0    0  501    0  0.00000000000E+00  0.00000000000E+00  0.23292841052E+04  0.23292841052E+04  0.00000000000E+00 0. -1.
         -2   -1    0    0    0  501 -0.00000000000E+00 -0.00000000000E+00 -0.14008334217E+03  0.14008334217E+03  0.00000000000E+00 0.  1.
         23    2    1    2    0    0 -0.32234676686E+03 -0.45645681573E+03  0.88243061293E+03  0.10481326012E+04  0.87395082015E+02 0.  0.
         11    1    3    3    0    0 -0.24912248500E+03 -0.29126386333E+03  0.56166810700E+03  0.67997625917E+03  0.00000000000E+00 0.  1.
        -11    1    3    3    0    0 -0.73224281859E+02 -0.16519295240E+03  0.32076250593E+03  0.36815634204E+03  0.00000000000E+00 0. -1.
         22    1    1    2    0    0  0.32234676686E+03  0.45645681573E+03  0.13067701501E+04  0.14212348461E+04  0.00000000000E+00 0. -1.
<mgrwt>
<rscale>  0 0.11424428E+04</rscale>
<asrwt>0</asrwt>
<pdfrwt beam="1">  1        2 0.35835137E+00 0.11424428E+04</pdfrwt>
<pdfrwt beam="2">  1       -2 0.21551285E-01 0.11424428E+04</pdfrwt>
<totfact> 0.81359169E+01</totfact>
</mgrwt>
</event>
<event>
 6    1  0.1833002E-005  0.2529211E+04  0.7818608E-02  0.8392652E-01
         -1   -1    0    0    0  501 -0.00000000000E+00  0.00000000000E+00  0.76686252048E+03  0.76686252048E+03  0.00000000000E+00 0.  1.
          1   -1    0    0  501    0  0.00000000000E+00 -0.00000000000E+00 -0.20854151173E+04  0.20854151173E+04  0.00000000000E+00 0. -1.
         23    2    1    2    0    0  0.65795893920E+03 -0.41345296202E+03  0.46267825494E+03  0.90892057725E+03  0.90620807074E+02 0.  0.
         13    1    3    3    0    0  0.41674258781E+03 -0.27982199673E+03  0.34503026957E+03  0.60911462080E+03  0.00000000000E+00 0.  1.
        -13    1    3    3    0    0  0.24121635139E+03 -0.13363096529E+03  0.11764798537E+03  0.29980595645E+03  0.00000000000E+00 0. -1.
         22    1    1    2    0    0 -0.65795893920E+03  0.41345296202E+03 -0.17812308517E+04  0.19433570605E+04  0.00000000000E+00 0. -1.
<mgrwt>
<rscale>  0 0.25292107E+04</rscale>
<asrwt>0</asrwt>
<pdfrwt beam="1">  1        1 0.32083310E+00 0.25292107E+04</pdfrwt>
<pdfrwt beam="2">  1       -1 0.11797885E+00 0.25292107E+04</pdfrwt>
<totfact> 0.14906958E+00</totfact>
</mgrwt>
</event>
<event>
 6    1  0.1831439E-005  0.1804658E+04  0.7818608E-02  0.8703826E-01
         -2   -1    0    0    0  501 -0.00000000000E+00  0.00000000000E+00  0.48996496490E+03  0.48996496490E+03  0.00000000000E+00 0.  1.
          2   -1    0    0  501    0  0.00000000000E+00 -0.00000000000E+00 -0.16617461913E+04  0.16617461913E+04  0.00000000000E+00 0. -1.
         23    2    1    2    0    0 -0.71373388583E+03  0.30758664277E+03 -0.11283466757E+04  0.13733075573E+04  0.93711386711E+02 0.  0.
         13    1    3    3    0    0 -0.13571325271E+03  0.91197131254E+02 -0.27918864346E+03  0.32354490005E+03  0.00000000000E+00 0.  1.
        -13    1    3    3    0    0 -0.57802063313E+03  0.21638951151E+03 -0.84915803219E+03  0.10497626573E+04  0.00000000000E+00 0. -1.
         22    1    1    2    0    0  0.71373388583E+03 -0.30758664277E+03 -0.43434550788E+02  0.77840359891E+03  0.00000000000E+00 0.  1.
<mgrwt>
<rscale>  0 0.18046578E+04</rscale>
<asrwt>0</asrwt>
<pdfrwt beam="1">  1        2 0.25565326E+00 0.18046578E+04</pdfrwt>
<pdfrwt beam="2">  1       -2 0.75379226E-01 0.18046578E+04</pdfrwt>
<totfact> 0.15347661E+01</totfact>
</mgrwt>
</event>
<event>
 6    1  0.1831439E-005  0.2212759E+04  0.7818608E-02  0.8513136E-01
         -2   -1    0    0    0  501 -0.00000000000E+00  0.00000000000E+00  0.13796967723E+04  0.13796967723E+04  0.00000000000E+00 0.  1.
          2   -1    0    0  501    0  0.00000000000E+00 -0.00000000000E+00 -0.88720635680E+03  0.88720635680E+03  0.00000000000E+00 0. -1.
         23    2    1    2    0    0 -0.33872640614E+03  0.24932224611E+03 -0.79962773829E+03  0.90805564540E+03  0.90903105932E+02 0.  0.
         11    1    3    3    0    0 -0.11769468411E+03  0.14006576874E+03 -0.31356711587E+03  0.36303552773E+03  0.00000000000E+00 0. -1.
        -11    1    3    3    0    0 -0.22103172203E+03  0.10925647738E+03 -0.48606062242E+03  0.54502011767E+03  0.00000000000E+00 0.  1.
         22    1    1    2    0    0  0.33872640614E+03 -0.24932224611E+03  0.12921181538E+04  0.13588474837E+04  0.00000000000E+00 0.  1.
<mgrwt>
<rscale>  0 0.22127591E+04</rscale>
<asrwt>0</asrwt>
<pdfrwt beam="1">  1        2 0.13649329E+00 0.22127591E+04</pdfrwt>
<pdfrwt beam="2">  1       -2 0.21226104E+00 0.22127591E+04</pdfrwt>
<totfact> 0.30237331E+00</totfact>
</mgrwt>
</event>
<event>
 6    1  0.1831439E-005  0.2920436E+04  0.7818608E-02  0.8266823E-01
         -2   -1    0    0    0  501 -0.00000000000E+00  0.00000000000E+00  0.89594804379E+03  0.89594804379E+03  0.00000000000E+00 0.  1.
          2   -1    0    0  501    0  0.00000000000E+00 -0.00000000000E+00 -0.23798656568E+04  0.23798656568E+04  0.00000000000E+00 0. -1.
         23    2    1    2    0    0 -0.69035357343E+03  0.12709362380E+04 -0.52933983662E+03  0.15428723546E+04  0.91583091450E+02 0.  0.
         11    1    3    3    0    0 -0.28773975573E+03  0.45789086685E+03 -0.22765613044E+03  0.58675849094E+03  0.00000000000E+00 0. -1.
        -11    1    3    3    0    0 -0.40261381771E+03  0.81304537115E+03 -0.30168370618E+03  0.95611386369E+03  0.00000000000E+00 0.  1.
         22    1    1    2    0    0  0.69035357343E+03 -0.12709362380E+04 -0.95457777643E+03  0.17329413460E+04  0.00000000000E+00 0. -1.
<mgrwt>
<rscale>  0 0.29204356E+04</rscale>
<asrwt>0</asrwt>
<pdfrwt beam="1">  1        2 0.36613317E+00 0.29204356E+04</pdfrwt>
<pdfrwt beam="2">  1       -2 0.13783816E+00 0.29204356E+04</pdfrwt>
<totfact> 0.13152534E+00</totfact>
</mgrwt>
</event>
<event>
 6    1  0.1831439E-005  0.1332553E+04  0.7818608E-02  0.9004141E-01
         -2   -1    0    0    0  501 -0.00000000000E+00  0.00000000000E+00  0.18246010770E+03  0.18246010770E+03  0.00000000000E+00 0.  1.
          2   -1    0    0  501    0  0.00000000000E+00 -0.00000000000E+00 -0.24329943198E+04  0.24329943198E+04  0.00000000000E+00 0. -1.
         23    2    1    2    0    0  0.75441783494E+02 -0.57464503414E+03 -0.49720613266E+03  0.76881755684E+03  0.89208292162E+02 0.  0.
         11    1    3    3    0    0  0.69604515783E+02 -0.20100401557E+03 -0.18075093409E+03  0.27913850158E+03  0.00000000000E+00 0.  1.
        -11    1    3    3    0    0  0.58372677107E+01 -0.37364101857E+03 -0.31645519857E+03  0.48967905525E+03  0.00000000000E+00 0. -1.
         22    1    1    2    0    0 -0.75441783494E+02  0.57464503414E+03 -0.17533280794E+04  0.18466368707E+04  0.00000000000E+00 0. -1.
<mgrwt>
<rscale>  0 0.13325530E+04</rscale>
<asrwt>0</asrwt>
<pdfrwt beam="1">  1        2 0.37430679E+00 0.13325530E+04</pdfrwt>
<pdfrwt beam="2">  1       -2 0.28070788E-01 0.13325530E+04</pdfrwt>
<totfact> 0.43346346E+01</totfact>
</mgrwt>
</event>
<event>
 6    1  0.1831439E-005  0.4236876E+04  0.7818608E-02  0.7958394E-01
          1   -1    0    0  501    0  0.00000000000E+00  0.00000000000E+00  0.47405838312E+04  0.47405838312E+04  0.00000000000E+00 0. -1.
         -1   -1    0    0    0  501 -0.00000000000E+00 -0.00000000000E+00 -0.94667246560E+03  0.94667246560E+03  0.00000000000E+00 0.  1.
         23    2    1    2    0    0 -0.11926891648E+04 -0.17307757090E+04  0.15560845518E+04  0.26170835253E+04  0.98158275317E+02 0.  0.
         11    1    3    3    0    0 -0.34781935362E+03 -0.56244402537E+03  0.45017429373E+03  0.79998654936E+03  0.00000000000E+00 0.  1.
        -11    1    3    3    0    0 -0.84486981121E+03 -0.11683316836E+04  0.11059102581E+04  0.18170969759E+04  0.00000000000E+00 0. -1.
         22    1    1    2    0    0  0.11926891648E+04  0.17307757090E+04  0.22378268138E+04  0.30701727716E+04  0.00000000000E+00 0. -1.
<mgrwt>
<rscale>  0 0.42368763E+04</rscale>
<asrwt>0</asrwt>
<pdfrwt beam="1">  1        1 0.72932058E+00 0.42368763E+04</pdfrwt>
<pdfrwt beam="2">  1       -1 0.14564192E+00 0.42368763E+04</pdfrwt>
<totfact> 0.50970888E-03</totfact>
</mgrwt>
</event>
<event>
 6    1  0.1831439E-005  0.6363950E+03  0.7818608E-02  0.9832648E-01
          1   -1    0    0  501    0  0.00000000000E+00  0.00000000000E+00  0.40247616772E+03  0.40247616772E+03  0.00000000000E+00 0. -1.
         -1   -1    0    0    0  501 -0.00000000000E+00 -0.00000000000E+00 -0.25156683914E+03  0.25156683914E+03  0.00000000000E+00 0.  1.
         23    2    1    2    0    0  0.29062280202E+03 -0.55913786775E+02 -0.25717146606E+02  0.30939118785E+03  0.86449817147E+02 0.  0.
         13    1    3    3    0    0  0.16505845474E+03  0.97849012619E+01  0.82936061646E-01  0.16534825264E+03  0.00000000000E+00 0. -1.
        -13    1    3    3    0    0  0.12556434729E+03 -0.65698688037E+02 -0.25800082667E+02  0.14404293521E+03  0.00000000000E+00 0.  1.
         22    1    1    2    0    0 -0.29062280202E+03  0.55913786775E+02  0.17662647518E+03  0.34465181900E+03  0.00000000000E+00 0. -1.
<mgrwt>
<rscale>  0 0.63639503E+03</rscale>
<asrwt>0</asrwt>
<pdfrwt beam="1">  1        1 0.61919410E-01 0.63639503E+03</pdfrwt>
<pdfrwt beam="2">  1       -1 0.38702591E-01 0.63639503E+03</pdfrwt>
<totfact> 0.38972765E+02</totfact>
</mgrwt>
</event>
<event>
 6    1  0.1831439E-005  0.4152129E+04  0.7818608E-02  0.7974541E-01
         -1   -1    0    0    0  501 -0.00000000000E+00  0.00000000000E+00  0.17527801391E+04  0.17527801391E+04  0.00000000000E+00 0.  1.
          1   -1    0    0  501    0  0.00000000000E+00 -0.00000000000E+00 -0.24589755970E+04  0.24589755970E+04  0.00000000000E+00 0. -1.
         23    2    1    2    0    0  0.12167515482E+04 -0.16788091981E+04 -0.43958079418E+03  0.21213088861E+04  0.88518145809E+02 0.  0.
         13    1    3    3    0    0  0.16294278068E+03 -0.23921315329E+03 -0.91798552549E+02  0.30364495176E+03  0.00000000000E+00 0. -1.
        -13    1    3    3    0    0  0.10538087676E+04 -0.14395960448E+04 -0.34778224163E+03  0.18176639344E+04  0.00000000000E+00 0.  1.
         22    1    1    2    0    0 -0.12167515482E+04  0.16788091981E+04 -0.26661466371E+03  0.20904468500E+04  0.00000000000E+00 0.  1.
<mgrwt>
<rscale>  0 0.41521289E+04</rscale>
<asrwt>0</asrwt>
<pdfrwt beam="1">  1        1 0.37830394E+00 0.41521289E+04</pdfrwt>
<pdfrwt beam="2">  1       -1 0.26965848E+00 0.41521289E+04</pdfrwt>
<totfact> 0.58068390E-02</totfact>
</mgrwt>
</event>
<event>
 6    1  0.1831439E-005  0.2302038E+04  0.7818608E-02  0.8477118E-01
          2   -1    0    0  501    0  0.00000000000E+00  0.00000000000E+00  0.13693945874E+04  0.13693945874E+04  0.00000000000E+00 0. -1.
         -2   -1    0    0    0  501 -0.00000000000E+00 -0.00000000000E+00 -0.96746717392E+03  0.96746717392E+03  0.00000000000E+00 0.  1.
         23    2    1    2    0    0  0.97287055958E+03  0.50582582330E+03 -0.14797723791E+03  0.11101865741E+04  0.90994929924E+02 0.  0.
         13    1    3    3    0    0  0.64156255268E+03  0.35618814939E+03 -0.13700987600E+03  0.74648791878E+03  0.00000000000E+00 0. -1.
        -13    1    3    3    0    0  0.33130800690E+03  0.14963767391E+03 -0.10967361906E+02  0.36369865536E+03  0.00000000000E+00 0.  1.
         22    1    1    2    0    0 -0.97287055958E+03 -0.50582582330E+03  0.54990465139E+03  0.12266751872E+04  0.00000000000E+00 0. -1.
<mgrwt>
<rscale>  0 0.23020376E+04</rscale>
<asrwt>0</asrwt>
<pdfrwt beam="1">  1        2 0.21067609E+00 0.23020376E+04</pdfrwt>
<pdfrwt beam="2">  1       -2 0.14884110E+00 0.23020376E+04</pdfrwt>
<totfact> 0.41781619E+00</totfact>
</mgrwt>
</event>
<event>
 6    1  0.1831439E-005  0.8244466E+03  0.7818608E-02  0.9525291E-01
          2   -1    0    0  501    0  0.00000000000E+00  0.00000000000E+00  0.10119161619E+04  0.10119161619E+04  0.00000000000E+00 0. -1.
         -2   -1    0    0    0  501 -0.00000000000E+00 -0.00000000000E+00 -0.16792701127E+03  0.16792701127E+03  0.00000000000E+00 0.  1.
         23    2    1    2    0    0 -0.31627132650E+03 -0.11437370773E+03  0.99137474667E+02  0.36258377973E+03  0.92357249079E+02 0.  0.
         11    1    3    3    0    0 -0.23688465898E+03 -0.10088731765E+03  0.35417499737E+02  0.25989804118E+03  0.00000000000E+00 0. -1.
        -11    1    3    3    0    0 -0.79386667522E+02 -0.13486390086E+02  0.63719974931E+02  0.10268573856E+03  0.00000000000E+00 0.  1.
         22    1    1    2    0    0  0.31627132650E+03  0.11437370773E+03  0.74485167598E+03  0.81725939345E+03  0.00000000000E+00 0. -1.
<mgrwt>
<rscale>  0 0.82444662E+03</rscale>
<asrwt>0</asrwt>
<pdfrwt beam="1">  1        2 0.15567941E+00 0.82444662E+03</pdfrwt>
<pdfrwt beam="2">  1       -2 0.25834925E-01 0.82444662E+03</pdfrwt>
<totfact> 0.33552560E+02</totfact>
</mgrwt>
</event>
<event>
 6    1  0.1831439E-005  0.1617449E+04  0.7818608E-02  0.8809899E-01
          2   -1    0    0  501    0  0.00000000000E+00  0.00000000000E+00  0.20145676422E+04  0.20145676422E+04  0.00000000000E+00 0. -1.
         -2   -1    0    0    0  501 -0.00000000000E+00 -0.00000000000E+00 -0.32465310558E+03  0.32465310558E+03  0.00000000000E+00 0.  1.
         23    2    1    2    0    0  0.30291814240E+03 -0.65417269078E+03  0.32620659326E+03  0.79669014350E+03  0.92753074924E+02 0.  0.
         11    1    3    3    0    0  0.13223817502E+02 -0.10514115410E+03  0.52346590107E+02  0.11819347330E+03  0.00000000000E+00 0. -1.
        -11    1    3    3    0    0  0.28969432490E+03 -0.54903153668E+03  0.27386000315E+03  0.67849667020E+03  0.00000000000E+00 0.  1.
         22    1    1    2    0    0 -0.30291814240E+03  0.65417269078E+03  0.13637079433E+04  0.15425306042E+04  0.00000000000E+00 0. -1.
<mgrwt>
<rscale>  0 0.16174494E+04</rscale>
<asrwt>0</asrwt>
<pdfrwt beam="1">  1        2 0.30993348E+00 0.16174494E+04</pdfrwt>
<pdfrwt beam="2">  1       -2 0.49946633E-01 0.16174494E+04</pdfrwt>
<totfact> 0.23822174E+01</totfact>
</mgrwt>
</event>
<event>
 6    1  0.1831439E-005  0.2523425E+04  0.7818608E-02  0.8394688E-01
         -1   -1    0    0    0  501 -0.00000000000E+00  0.00000000000E+00  0.69267723135E+03  0.69267723135E+03  0.00000000000E+00 0.  1.
          1   -1    0    0  501    0  0.00000000000E+00 -0.00000000000E+00 -0.22982106250E+04  0.22982106250E+04  0.00000000000E+00 0. -1.
         23    2    1    2    0    0 -0.94099448029E+02 -0.41372420468E+03  0.60242797561E+03  0.74252938143E+03  0.91695107988E+02 0.  0.
         11    1    3    3    0    0  0.83191401911E+01 -0.75546311222E+02  0.15293797396E+03  0.17078195780E+03  0.00000000000E+00 0.  1.
        -11    1    3    3    0    0 -0.10241858822E+03 -0.33817789346E+03  0.44949000165E+03  0.57174742363E+03  0.00000000000E+00 0. -1.
         22    1    1    2    0    0  0.94099448029E+02  0.41372420468E+03 -0.22079613693E+04  0.22483584749E+04  0.00000000000E+00 0. -1.
<mgrwt>
<rscale>  0 0.25234248E+04</rscale>
<asrwt>0</asrwt>
<pdfrwt beam="1">  1        1 0.35357087E+00 0.25234248E+04</pdfrwt>
<pdfrwt beam="2">  1       -1 0.10656573E+00 0.25234248E+04</pdfrwt>
<totfact> 0.13604610E+00</totfact>
</mgrwt>
</event>
<event>
 6    1  0.1831439E-005  0.4141865E+04  0.7818608E-02  0.7976524E-01
         -1   -1    0    0    0  501 -0.00000000000E+00  0.00000000000E+00  0.11432416394E+04  0.11432416394E+04  0.00000000000E+00 0.  1.
          1   -1    0    0  501    0  0.00000000000E+00 -0.00000000000E+00 -0.37514036345E+04  0.37514036345E+04  0.00000000000E+00 0. -1.
         23    2    1    2    0    0  0.14888756453E+04  0.11970138566E+04 -0.22463828016E+04  0.29503003855E+04  0.91890223034E+02 0.  0.
         13    1    3    3    0    0  0.12441285815E+04  0.97995626897E+03 -0.18129328529E+04  0.24072589694E+04  0.00000000000E+00 0.  1.
        -13    1    3    3    0    0  0.24474706381E+03  0.21705758758E+03 -0.43344994870E+03  0.54304141610E+03  0.00000000000E+00 0. -1.
         22    1    1    2    0    0 -0.14888756453E+04 -0.11970138566E+04 -0.36177919350E+03  0.19443448884E+04  0.00000000000E+00 0. -1.
<mgrwt>
<rscale>  0 0.41418647E+04</rscale>
<asrwt>0</asrwt>
<pdfrwt beam="1">  1        1 0.57713902E+00 0.41418647E+04</pdfrwt>
<pdfrwt beam="2">  1       -1 0.17588333E+00 0.41418647E+04</pdfrwt>
<totfact> 0.26916132E-02</totfact>
</mgrwt>
</event>
<event>
 6    1  0.1831439E-005  0.1202590E+04  0.7818608E-02  0.9110593E-01
         -2   -1    0    0    0  501 -0.00000000000E+00  0.00000000000E+00  0.26037682010E+03  0.26037682010E+03  0.00000000000E+00 0.  1.
          2   -1    0    0  501    0  0.00000000000E+00 -0.00000000000E+00 -0.13885862455E+04  0.13885862455E+04  0.00000000000E+00 0. -1.
         23    2    1    2    0    0 -0.49577093833E+03  0.33171101501E+03 -0.51262818727E+03  0.79178089039E+03  0.91149872313E+02 0.  0.
         11    1    3    3    0    0 -0.29553664939E+03  0.18704198086E+03 -0.24170576129E+03  0.42514502088E+03  0.00000000000E+00 0. -1.
        -11    1    3    3    0    0 -0.20023428894E+03  0.14466903416E+03 -0.27092242598E+03  0.36663586951E+03  0.00000000000E+00 0.  1.
         22    1    1    2    0    0  0.49577093833E+03 -0.33171101501E+03 -0.61558123811E+03  0.85718217520E+03  0.00000000000E+00 0. -1.
<mgrwt>
<rscale>  0 0.12025900E+04</rscale>
<asrwt>0</asrwt>
<pdfrwt beam="1">  1        2 0.21362866E+00 0.12025900E+04</pdfrwt>
<pdfrwt beam="2">  1       -2 0.40057972E-01 0.12025900E+04</pdfrwt>
<totfact> 0.85422439E+01</totfact>
</mgrwt>
</event>
<event>
 6    1  0.1831439E-005  0.1999008E+04  0.7818608E-02  0.8607084E-01
         -2   -1    0    0    0  501 -0.00000000000E+00  0.00000000000E+00  0.27170675944E+03  0.27170675944E+03  0.00000000000E+00 0.  1.
          2   -1    0    0  501    0  0.00000000000E+00 -0.00000000000E+00 -0.36767893237E+04  0.36767893237E+04  0.00000000000E+00 0. -1.
         23    2    1    2    0    0 -0.80115421854E+03  0.55484113360E+02 -0.53573912746E+03  0.96888900719E+03  0.82479857173E+02 0.  0.
         13    1    3    3    0    0 -0.30348009773E+03 -0.18826257972E+02 -0.19696636444E+03  0.36228489677E+03  0.00000000000E+00 0.  1.
        -13    1    3    3    0    0 -0.49767412082E+03  0.74310371332E+02 -0.33877276303E+03  0.60660411043E+03  0.00000000000E+00 0. -1.
         22    1    1    2    0    0  0.80115421854E+03 -0.55484113360E+02 -0.28693434368E+04  0.29796070759E+04  0.00000000000E+00 0. -1.
<mgrwt>
<rscale>  0 0.19990083E+04</rscale>
<asrwt>0</asrwt>
<pdfrwt beam="1">  1        2 0.56565986E+00 0.19990083E+04</pdfrwt>
<pdfrwt beam="2">  1       -2 0.41801042E-01 0.19990083E+04</pdfrwt>
<totfact> 0.30813982E+00</totfact>
</mgrwt>
</event>
<event>
 6    1  0.1831439E-005  0.1844227E+04  0.7818608E-02  0.8683127E-01
          2   -1    0    0  501    0  0.00000000000E+00  0.00000000000E+00  0.31717059718E+04  0.31717059718E+04  0.00000000000E+00 0. -1.
         -2   -1    0    0    0  501 -0.00000000000E+00 -0.00000000000E+00 -0.26808717145E+03  0.26808717145E+03  0.00000000000E+00 0.  1.
         23    2    1    2    0    0  0.20180273148E+03 -0.62015170551E+03  0.26652073264E+04  0.27454211167E+04  0.93244490765E+02 0.  0.
         11    1    3    3    0    0  0.97152694579E+02 -0.37080143506E+03  0.13920199066E+04  0.14438323208E+04  0.00000000000E+00 0. -1.
        -11    1    3    3    0    0  0.10465003690E+03 -0.24935027045E+03  0.12731874199E+04  0.13015887959E+04  0.00000000000E+00 0.  1.
         22    1    1    2    0    0 -0.20180273148E+03  0.62015170551E+03  0.23841147388E+03  0.69437202648E+03  0.00000000000E+00 0.  1.
<mgrwt>
<rscale>  0 0.18442274E+04</rscale>
<asrwt>0</asrwt>
<pdfrwt beam="1">  1        2 0.48795474E+00 0.18442274E+04</pdfrwt>
<pdfrwt beam="2">  1       -2 0.41244182E-01 0.18442274E+04</pdfrwt>
<totfact> 0.71208660E+00</totfact>
</mgrwt>
</event>
<event>
 6    1  0.1831439E-005  0.2441112E+04  0.7818608E-02  0.8424270E-01
          1   -1    0    0  501    0  0.00000000000E+00  0.00000000000E+00  0.10741268810E+04  0.10741268810E+04  0.00000000000E+00 0. -1.
         -1   -1    0    0    0  501 -0.00000000000E+00 -0.00000000000E+00 -0.13869467106E+04  0.13869467106E+04  0.00000000000E+00 0.  1.
         23    2    1    2    0    0  0.63985617539E+03 -0.42872440306E+03  0.79573973543E+03  0.11112125438E+04  0.91493453441E+02 0.  0.
         11    1    3    3    0    0  0.39220353860E+03 -0.20831794273E+03  0.45484280085E+03  0.63569014027E+03  0.00000000000E+00 0.  1.
        -11    1    3    3    0    0  0.24765263679E+03 -0.22040646033E+03  0.34089693458E+03  0.47552240354E+03  0.00000000000E+00 0. -1.
         22    1    1    2    0    0 -0.63985617539E+03  0.42872440306E+03 -0.11085595651E+04  0.13498610478E+04  0.00000000000E+00 0.  1.
<mgrwt>
<rscale>  0 0.24411118E+04</rscale>
<asrwt>0</asrwt>
<pdfrwt beam="1">  1        1 0.16525029E+00 0.24411118E+04</pdfrwt>
<pdfrwt beam="2">  1       -1 0.21337642E+00 0.24411118E+04</pdfrwt>
<totfact> 0.14444182E+00</totfact>
</mgrwt>
</event>
<event>
 6    1  0.1831439E-005  0.1854771E+04  0.7818608E-02  0.8677703E-01
          1   -1    0    0  501    0  0.00000000000E+00  0.00000000000E+00  0.16080673778E+04  0.16080673778E+04  0.00000000000E+00 0. -1.
         -1   -1    0    0    0  501 -0.00000000000E+00 -0.00000000000E+00 -0.53483057930E+03  0.53483057930E+03  0.00000000000E+00 0.  1.
         23    2    1    2    0    0  0.21611104524E+03  0.61273534466E+01  0.15771919326E+04  0.15945255421E+04  0.90751218296E+02 0.  0.
         13    1    3    3    0    0  0.15569676599E+03  0.56595859535E+01  0.13661764344E+04  0.13750314774E+04  0.00000000000E+00 0. -1.
        -13    1    3    3    0    0  0.60414279254E+02  0.46776749309E+00  0.21101549822E+03  0.21949406469E+03  0.00000000000E+00 0.  1.
         22    1    1    2    0    0 -0.21611104524E+03 -0.61273534466E+01 -0.50395513414E+03  0.54837241502E+03  0.00000000000E+00 0.  1.
<mgrwt>
<rscale>  0 0.18547707E+04</rscale>
<asrwt>0</asrwt>
<pdfrwt beam="1">  1        1 0.24739498E+00 0.18547707E+04</pdfrwt>
<pdfrwt beam="2">  1       -1 0.82281628E-01 0.18547707E+04</pdfrwt>
<totfact> 0.75992566E+00</totfact>
</mgrwt>
</event>
<event>
 6    1  0.1831439E-005  0.2420396E+04  0.7818608E-02  0.8431907E-01
          4   -1    0    0  501    0  0.00000000000E+00  0.00000000000E+00  0.17577644381E+04  0.17577644381E+04  0.00000000000E+00 0. -1.
         -4   -1    0    0    0  501 -0.00000000000E+00 -0.00000000000E+00 -0.83320591159E+03  0.83320591159E+03  0.00000000000E+00 0.  1.
         23    2    1    2    0    0  0.27947555346E+03  0.11473576231E+04  0.73711914473E+03  0.13952824213E+04  0.94510853921E+02 0.  0.
         11    1    3    3    0    0  0.74447557644E+02  0.21975997555E+03  0.18291522412E+03  0.29545704410E+03  0.00000000000E+00 0. -1.
        -11    1    3    3    0    0  0.20502799581E+03  0.92759764753E+03  0.55420392062E+03  0.10998253772E+04  0.00000000000E+00 0.  1.
         22    1    1    2    0    0 -0.27947555346E+03 -0.11473576231E+04  0.18743938179E+03  0.11956879284E+04  0.00000000000E+00 0.  1.
<mgrwt>
<rscale>  0 0.24203964E+04</rscale>
<asrwt>0</asrwt>
<pdfrwt beam="1">  1        4 0.27042530E+00 0.24203964E+04</pdfrwt>
<pdfrwt beam="2">  1       -4 0.12818552E+00 0.24203964E+04</pdfrwt>
<totfact> 0.37889998E-02</totfact>
</mgrwt>
</event>
<event>
 6    1  0.1831439E-005  0.5101770E+04  0.7818608E-02  0.7812997E-01
          2   -1    0    0  501    0  0.00000000000E+00  0.00000000000E+00  0.25423956614E+04  0.25423956614E+04  0.00000000000E+00 0.  1.
         -2   -1    0    0    0  501 -0.00000000000E+00 -0.00000000000E+00 -0.25594030079E+04  0.25594030079E+04  0.00000000000E+00 0. -1.
         23    2    1    2    0    0 -0.27525905375E+03 -0.68160761430E+03  0.24333170283E+04  0.25435871791E+04  0.91910232144E+02 0.  0.
         13    1    3    3    0    0 -0.11462615083E+03 -0.29641355307E+03  0.12099483285E+04  0.12509896509E+04  0.00000000000E+00 0. -1.
        -13    1    3    3    0    0 -0.16063290291E+03 -0.38519406122E+03  0.12233686998E+04  0.12925975282E+04  0.00000000000E+00 0.  1.
         22    1    1    2    0    0  0.27525905375E+03  0.68160761430E+03 -0.24503243748E+04  0.25582114901E+04  0.00000000000E+00 0. -1.
<mgrwt>
<rscale>  0 0.51017703E+04</rscale>
<asrwt>0</asrwt>
<pdfrwt beam="1">  1        2 0.39113779E+00 0.51017703E+04</pdfrwt>
<pdfrwt beam="2">  1       -2 0.39375431E+00 0.51017703E+04</pdfrwt>
<totfact> 0.19378110E-02</totfact>
</mgrwt>
</event>
<event>
 6    1  0.3525774E-005  0.4284719E+04  0.7818608E-02  0.7949450E-01
         -2   -1    0    0    0  501 -0.00000000000E+00  0.00000000000E+00  0.17606797272E+04  0.17606797272E+04  0.00000000000E+00 0.  1.
          2   -1    0    0  501    0  0.00000000000E+00 -0.00000000000E+00 -0.26067794321E+04  0.26067794321E+04  0.00000000000E+00 0. -1.
         23    2    1    2    0    0  0.10410849660E+04 -0.16620348551E+04  0.45387113255E+03  0.20145584082E+04  0.78922803712E+02 0.  0.
         13    1    3    3    0    0  0.45731583365E+03 -0.76957822386E+03  0.24127963921E+03  0.92714846634E+03  0.00000000000E+00 0. -1.
        -13    1    3    3    0    0  0.58376913239E+03 -0.89245663126E+03  0.21259149334E+03  0.10874099419E+04  0.00000000000E+00 0.  1.
         22    1    1    2    0    0 -0.10410849660E+04  0.16620348551E+04 -0.12999708375E+04  0.23529007511E+04  0.00000000000E+00 0. -1.
<mgrwt>
<rscale>  0 0.42847188E+04</rscale>
<asrwt>0</asrwt>
<pdfrwt beam="1">  1        2 0.40104299E+00 0.42847188E+04</pdfrwt>
<pdfrwt beam="2">  1       -2 0.27087381E+00 0.42847188E+04</pdfrwt>
<totfact> 0.11129623E-01</totfact>
</mgrwt>
</event>
<event>
 6    1  0.1831439E-005  0.2288516E+04  0.7818608E-02  0.8482463E-01
          1   -1    0    0  501    0  0.00000000000E+00  0.00000000000E+00  0.72087778305E+03  0.72087778305E+03  0.00000000000E+00 0. -1.
         -1   -1    0    0    0  501 -0.00000000000E+00 -0.00000000000E+00 -0.18162937825E+04  0.18162937825E+04  0.00000000000E+00 0.  1.
         23    2    1    2    0    0 -0.74803229402E+03  0.32580818479E+03  0.33813547410E+03  0.88769494751E+03  0.89238079411E+02 0.  0.
         11    1    3    3    0    0 -0.71429607182E+03  0.29358521639E+03  0.30430794439E+03  0.83006896251E+03  0.00000000000E+00 0. -1.
        -11    1    3    3    0    0 -0.33736222194E+02  0.32222968408E+02  0.33827529708E+02  0.57625984999E+02  0.00000000000E+00 0.  1.
         22    1    1    2    0    0  0.74803229402E+03 -0.32580818479E+03 -0.14335514736E+04  0.16494766181E+04  0.00000000000E+00 0.  1.
<mgrwt>
<rscale>  0 0.22885155E+04</rscale>
<asrwt>0</asrwt>
<pdfrwt beam="1">  1        1 0.11090428E+00 0.22885155E+04</pdfrwt>
<pdfrwt beam="2">  1       -1 0.27942981E+00 0.22885155E+04</pdfrwt>
<totfact> 0.10578634E+00</totfact>
</mgrwt>
</event>
<event>
 6    1  0.1831439E-005  0.1650855E+04  0.7818608E-02  0.8789901E-01
         -2   -1    0    0    0  501 -0.00000000000E+00  0.00000000000E+00  0.67942515478E+03  0.67942515478E+03  0.00000000000E+00 0. -1.
          2   -1    0    0  501    0  0.00000000000E+00 -0.00000000000E+00 -0.10028046779E+04  0.10028046779E+04  0.00000000000E+00 0.  1.
         23    2    1    2    0    0 -0.60371657503E+03  0.46932066195E+03  0.14770662247E+03  0.78408856138E+03  0.90785676529E+02 0.  0.
         11    1    3    3    0    0 -0.18101499522E+03  0.18748788482E+03  0.27808184097E+02  0.26209050068E+03  0.00000000000E+00 0.  1.
        -11    1    3    3    0    0 -0.42270157981E+03  0.28183277713E+03  0.11989843837E+03  0.52199806069E+03  0.00000000000E+00 0. -1.
         22    1    1    2    0    0  0.60371657503E+03 -0.46932066195E+03 -0.47108614564E+03  0.89814127135E+03  0.00000000000E+00 0.  1.
<mgrwt>
<rscale>  0 0.16508552E+04</rscale>
<asrwt>0</asrwt>
<pdfrwt beam="1">  1        2 0.15427764E+00 0.16508552E+04</pdfrwt>
<pdfrwt beam="2">  1       -2 0.10452695E+00 0.16508552E+04</pdfrwt>
<totfact> 0.17807677E+01</totfact>
</mgrwt>
</event>
<event>
 6    1  0.1831439E-005  0.2629962E+04  0.7818608E-02  0.8358095E-01
         -2   -1    0    0    0  501 -0.00000000000E+00  0.00000000000E+00  0.14822763258E+04  0.14822763258E+04  0.00000000000E+00 0.  1.
          2   -1    0    0  501    0  0.00000000000E+00 -0.00000000000E+00 -0.11665669762E+04  0.11665669762E+04  0.00000000000E+00 0. -1.
         23    2    1    2    0    0 -0.40322925102E+03 -0.79250308660E+03 -0.81547463510E+03  0.12100131597E+04  0.92076028838E+02 0.  0.
         13    1    3    3    0    0 -0.19178003334E+03 -0.47397009165E+03 -0.48245129508E+03  0.70298398352E+03  0.00000000000E+00 0. -1.
        -13    1    3    3    0    0 -0.21144921768E+03 -0.31853299495E+03 -0.33302334002E+03  0.50702917622E+03  0.00000000000E+00 0.  1.
         22    1    1    2    0    0  0.40322925102E+03  0.79250308660E+03  0.11311839847E+04  0.14388301423E+04  0.00000000000E+00 0.  1.
<mgrwt>
<rscale>  0 0.26299617E+04</rscale>
<asrwt>0</asrwt>
<pdfrwt beam="1">  1        2 0.17947184E+00 0.26299617E+04</pdfrwt>
<pdfrwt beam="2">  1       -2 0.22804251E+00 0.26299617E+04</pdfrwt>
<totfact> 0.15394639E+00</totfact>
</mgrwt>
</event>
<event>
 6    1  0.1831439E-005  0.2600625E+04  0.7818608E-02  0.8367989E-01
         -2   -1    0    0    0  501 -0.00000000000E+00  0.00000000000E+00  0.44987642513E+03  0.44987642513E+03  0.00000000000E+00 0.  1.
          2   -1    0    0  501    0  0.00000000000E+00 -0.00000000000E+00 -0.37583931146E+04  0.37583931146E+04  0.00000000000E+00 0. -1.
         23    2    1    2    0    0  0.74709450835E+03 -0.49586443736E+03 -0.31766794043E+04  0.33019512654E+04  0.86938923292E+02 0.  0.
         13    1    3    3    0    0  0.11732520764E+03 -0.10962937769E+03 -0.64454973271E+03  0.66425007545E+03  0.00000000000E+00 0.  1.
        -13    1    3    3    0    0  0.62976930071E+03 -0.38623505967E+03 -0.25321296716E+04  0.26377011899E+04  0.00000000000E+00 0. -1.
         22    1    1    2    0    0 -0.74709450835E+03  0.49586443736E+03 -0.13183728511E+03  0.90631827433E+03  0.00000000000E+00 0.  1.
<mgrwt>
<rscale>  0 0.26006249E+04</rscale>
<asrwt>0</asrwt>
<pdfrwt beam="1">  1        2 0.57821432E+00 0.26006249E+04</pdfrwt>
<pdfrwt beam="2">  1       -2 0.69211758E-01 0.26006249E+04</pdfrwt>
<totfact> 0.89126382E-01</totfact>
</mgrwt>
</event>
<event>
 6    1  0.1831439E-005  0.4281448E+04  0.7818608E-02  0.7950057E-01
         -2   -1    0    0    0  501 -0.00000000000E+00  0.00000000000E+00  0.17493370046E+04  0.17493370046E+04  0.00000000000E+00 0.  1.
          2   -1    0    0  501    0  0.00000000000E+00 -0.00000000000E+00 -0.26196778479E+04  0.26196778479E+04  0.00000000000E+00 0. -1.
         23    2    1    2    0    0 -0.16034800745E+04  0.81268701464E+02 -0.18787884103E+04  0.24730403152E+04  0.91266416394E+02 0.  0.
         11    1    3    3    0    0 -0.14480075816E+04  0.10007801245E+03 -0.16893145533E+04  0.22272236584E+04  0.00000000000E+00 0.  1.
        -11    1    3    3    0    0 -0.15547249291E+03 -0.18809310990E+02 -0.18947385703E+03  0.24581665673E+03  0.00000000000E+00 0. -1.
         22    1    1    2    0    0  0.16034800745E+04 -0.81268701464E+02  0.10084475670E+04  0.18959745374E+04  0.00000000000E+00 0.  1.
<mgrwt>
<rscale>  0 0.42814481E+04</rscale>
<asrwt>0</asrwt>
<pdfrwt beam="1">  1        2 0.40302736E+00 0.42814481E+04</pdfrwt>
<pdfrwt beam="2">  1       -2 0.26912877E+00 0.42814481E+04</pdfrwt>
<totfact> 0.11211316E-01</totfact>
</mgrwt>
</event>
<event>
 6    1  0.1831439E-005  0.1372195E+04  0.7818608E-02  0.8974195E-01
         -2   -1    0    0    0  501 -0.00000000000E+00  0.00000000000E+00  0.55774406334E+03  0.55774406334E+03  0.00000000000E+00 0. -1.
          2   -1    0    0  501    0  0.00000000000E+00 -0.00000000000E+00 -0.84398841593E+03  0.84398841593E+03  0.00000000000E+00 0.  1.
         23    2    1    2    0    0 -0.82864367534E+02  0.53368490798E+03  0.28330343242E+03  0.61683072501E+03  0.92375451749E+02 0.  0.
         11    1    3    3    0    0 -0.45705489791E+02  0.29058081764E+03  0.10215036921E+03  0.31138545455E+03  0.00000000000E+00 0.  1.
        -11    1    3    3    0    0 -0.37158877743E+02  0.24310409034E+03  0.18115306321E+03  0.30544527046E+03  0.00000000000E+00 0. -1.
         22    1    1    2    0    0  0.82864367534E+02 -0.53368490798E+03 -0.56954778501E+03  0.78490175425E+03  0.00000000000E+00 0.  1.
<mgrwt>
<rscale>  0 0.13721946E+04</rscale>
<asrwt>0</asrwt>
<pdfrwt beam="1">  1        2 0.12984437E+00 0.13721946E+04</pdfrwt>
<pdfrwt beam="2">  1       -2 0.85806780E-01 0.13721946E+04</pdfrwt>
<totfact> 0.36868506E+01</totfact>
</mgrwt>
</event>
<event>
 6    1  0.1831439E-005  0.7050652E+03  0.7818608E-02  0.9708609E-01
          1   -1    0    0  501    0  0.00000000000E+00  0.00000000000E+00  0.40872529599E+03  0.40872529599E+03  0.00000000000E+00 0. -1.
         -1   -1    0    0    0  501 -0.00000000000E+00 -0.00000000000E+00 -0.30406544049E+03  0.30406544049E+03  0.00000000000E+00 0.  1.
         23    2    1    2    0    0  0.12628564074E+03 -0.10707174608E+03  0.36105800688E+03  0.40758189994E+03  0.91365742799E+02 0.  0.
         11    1    3    3    0    0  0.26444473777E+02  0.13308565230E+02  0.88750903142E+02  0.93558275477E+02  0.00000000000E+00 0. -1.
        -11    1    3    3    0    0  0.99841166966E+02 -0.12038031131E+03  0.27230710374E+03  0.31402362446E+03  0.00000000000E+00 0.  1.
         22    1    1    2    0    0 -0.12628564074E+03  0.10707174608E+03 -0.25639815138E+03  0.30520883653E+03  0.00000000000E+00 0.  1.
<mgrwt>
<rscale>  0 0.70506521E+03</rscale>
<asrwt>0</asrwt>
<pdfrwt beam="1">  1        1 0.62880815E-01 0.70506521E+03</pdfrwt>
<pdfrwt beam="2">  1       -1 0.46779299E-01 0.70506521E+03</pdfrwt>
<totfact> 0.26897596E+02</totfact>
</mgrwt>
</event>
<event>
 6    1  0.1831439E-005  0.4483149E+04  0.7818608E-02  0.7913594E-01
          2   -1    0    0  501    0  0.00000000000E+00  0.00000000000E+00  0.25155047948E+04  0.25155047948E+04  0.00000000000E+00 0. -1.
         -2   -1    0    0    0  501 -0.00000000000E+00 -0.00000000000E+00 -0.19974742820E+04  0.19974742820E+04  0.00000000000E+00 0.  1.
         23    2    1    2    0    0  0.11649761237E+04  0.97991654240E+03 -0.13958745773E+04  0.20674855698E+04  0.92870592836E+02 0.  0.
         13    1    3    3    0    0  0.45348612706E+03  0.39801803341E+03 -0.61282031935E+03  0.86000974771E+03  0.00000000000E+00 0. -1.
        -13    1    3    3    0    0  0.71148999662E+03  0.58189850899E+03 -0.78305425794E+03  0.12074758221E+04  0.00000000000E+00 0.  1.
         22    1    1    2    0    0 -0.11649761237E+04 -0.97991654240E+03  0.19139050901E+04  0.24454935070E+04  0.00000000000E+00 0. -1.
<mgrwt>
<rscale>  0 0.44831490E+04</rscale>
<asrwt>0</asrwt>
<pdfrwt beam="1">  1        2 0.38700074E+00 0.44831490E+04</pdfrwt>
<pdfrwt beam="2">  1       -2 0.30730374E+00 0.44831490E+04</pdfrwt>
<totfact> 0.74167414E-02</totfact>
</mgrwt>
</event>
<event>
 6    1  0.1831439E-005  0.2577980E+04  0.7818608E-02  0.8375720E-01
          1   -1    0    0  501    0  0.00000000000E+00  0.00000000000E+00  0.23701402833E+04  0.23701402833E+04  0.00000000000E+00 0.  1.
         -1   -1    0    0    0  501 -0.00000000000E+00 -0.00000000000E+00 -0.70101132312E+03  0.70101132312E+03  0.00000000000E+00 0. -1.
         23    2    1    2    0    0  0.84885265342E+03  0.85848600414E+02  0.19841765493E+04  0.21616595544E+04  0.88851791324E+02 0.  0.
         13    1    3    3    0    0  0.28313482459E+03 -0.12089236644E+02  0.63036801117E+03  0.69114058486E+03  0.00000000000E+00 0. -1.
        -13    1    3    3    0    0  0.56571782883E+03  0.97937837058E+02  0.13538085381E+04  0.14705189695E+04  0.00000000000E+00 0.  1.
         22    1    1    2    0    0 -0.84885265342E+03 -0.85848600414E+02 -0.31504758908E+03  0.90949205208E+03  0.00000000000E+00 0. -1.
<mgrwt>
<rscale>  0 0.25779800E+04</rscale>
<asrwt>0</asrwt>
<pdfrwt beam="1">  1        1 0.36463696E+00 0.25779800E+04</pdfrwt>
<pdfrwt beam="2">  1       -1 0.10784790E+00 0.25779800E+04</pdfrwt>
<totfact> 0.11749452E+00</totfact>
</mgrwt>
</event>
<event>
 6    1  0.1831439E-005  0.1599386E+04  0.7818608E-02  0.8820925E-01
          1   -1    0    0  501    0  0.00000000000E+00  0.00000000000E+00  0.85878579682E+03  0.85878579682E+03  0.00000000000E+00 0. -1.
         -1   -1    0    0    0  501 -0.00000000000E+00 -0.00000000000E+00 -0.74466676791E+03  0.74466676791E+03  0.00000000000E+00 0.  1.
         23    2    1    2    0    0  0.37690887496E+03 -0.64698126446E+03 -0.21670000070E+03  0.78486458111E+03  0.91697676087E+02 0.  0.
         11    1    3    3    0    0  0.32339471328E+03 -0.48827965615E+03 -0.14981002906E+03  0.60451981605E+03  0.00000000000E+00 0.  1.
        -11    1    3    3    0    0  0.53514161672E+02 -0.15870160831E+03 -0.66889971640E+02  0.18034476507E+03  0.00000000000E+00 0. -1.
         22    1    1    2    0    0 -0.37690887496E+03  0.64698126446E+03  0.33081902960E+03  0.81858798362E+03  0.00000000000E+00 0.  1.
<mgrwt>
<rscale>  0 0.15993864E+04</rscale>
<asrwt>0</asrwt>
<pdfrwt beam="1">  1        1 0.13212089E+00 0.15993864E+04</pdfrwt>
<pdfrwt beam="2">  1       -1 0.11456412E+00 0.15993864E+04</pdfrwt>
<totfact> 0.13090851E+01</totfact>
</mgrwt>
</event>
<event>
 6    1  0.1831439E-005  0.2291231E+04  0.7818608E-02  0.8481387E-01
          2   -1    0    0  501    0  0.00000000000E+00  0.00000000000E+00  0.32273080489E+04  0.32273080489E+04  0.00000000000E+00 0. -1.
         -2   -1    0    0    0  501 -0.00000000000E+00 -0.00000000000E+00 -0.40666560922E+03  0.40666560922E+03  0.00000000000E+00 0.  1.
         23    2    1    2    0    0  0.79675315165E+03  0.27188073976E+03  0.18629700691E+03  0.86837958442E+03  0.10315913214E+03 0.  0.
         13    1    3    3    0    0  0.44872216198E+03  0.20449439481E+03  0.12369909939E+03  0.50840043602E+03  0.00000000000E+00 0. -1.
        -13    1    3    3    0    0  0.34803098967E+03  0.67386344955E+02  0.62597907519E+02  0.35997914840E+03  0.00000000000E+00 0.  1.
         22    1    1    2    0    0 -0.79675315165E+03 -0.27188073976E+03  0.26343454328E+04  0.27655940737E+04  0.00000000000E+00 0. -1.
<mgrwt>
<rscale>  0 0.22912313E+04</rscale>
<asrwt>0</asrwt>
<pdfrwt beam="1">  1        2 0.49650891E+00 0.22912313E+04</pdfrwt>
<pdfrwt beam="2">  1       -2 0.62563942E-01 0.22912313E+04</pdfrwt>
<totfact> 0.26794025E+00</totfact>
</mgrwt>
</event>
<event>
 6    1  0.1831439E-005  0.1670268E+04  0.7818608E-02  0.8778505E-01
          2   -1    0    0  501    0  0.00000000000E+00  0.00000000000E+00  0.31957078928E+04  0.31957078928E+04  0.00000000000E+00 0. -1.
         -2   -1    0    0    0  501 -0.00000000000E+00 -0.00000000000E+00 -0.21824555943E+03  0.21824555943E+03  0.00000000000E+00 0.  1.
         23    2    1    2    0    0 -0.13031235543E+03  0.64286795910E+02  0.31689941489E+04  0.31735401861E+04  0.87859518794E+02 0.  0.
         11    1    3    3    0    0 -0.15791110228E+02  0.43181821887E+02  0.53460686039E+03  0.53658039852E+03  0.00000000000E+00 0.  1.
        -11    1    3    3    0    0 -0.11452124520E+03  0.21104974023E+02  0.26343872885E+04  0.26369597876E+04  0.00000000000E+00 0. -1.
         22    1    1    2    0    0  0.13031235543E+03 -0.64286795910E+02 -0.19153181559E+03  0.24041326604E+03  0.00000000000E+00 0.  1.
<mgrwt>
<rscale>  0 0.16702683E+04</rscale>
<asrwt>0</asrwt>
<pdfrwt beam="1">  1        2 0.49164733E+00 0.16702683E+04</pdfrwt>
<pdfrwt beam="2">  1       -2 0.33576242E-01 0.16702683E+04</pdfrwt>
<totfact> 0.10395638E+01</totfact>
</mgrwt>
</event>
<event>
 6    1  0.1831439E-005  0.2521090E+04  0.7818608E-02  0.8395511E-01
          2   -1    0    0  501    0  0.00000000000E+00  0.00000000000E+00  0.22944664592E+04  0.22944664592E+04  0.00000000000E+00 0. -1.
         -2   -1    0    0    0  501 -0.00000000000E+00 -0.00000000000E+00 -0.69252408038E+03  0.69252408038E+03  0.00000000000E+00 0.  1.
         23    2    1    2    0    0 -0.10719025055E+04 -0.19526253785E+03  0.15491884222E+04  0.18961718470E+04  0.91544885210E+02 0.  0.
         13    1    3    3    0    0 -0.78333161357E+03 -0.18329341127E+03  0.11303015036E+04  0.13873667073E+04  0.00000000000E+00 0.  1.
        -13    1    3    3    0    0 -0.28857089195E+03 -0.11969126575E+02  0.41888691857E+03  0.50880513974E+03  0.00000000000E+00 0. -1.
         22    1    1    2    0    0  0.10719025055E+04  0.19526253785E+03  0.52753956601E+02  0.10908186925E+04  0.00000000000E+00 0.  1.
<mgrwt>
<rscale>  0 0.25210897E+04</rscale>
<asrwt>0</asrwt>
<pdfrwt beam="1">  1        2 0.35299484E+00 0.25210897E+04</pdfrwt>
<pdfrwt beam="2">  1       -2 0.10654217E+00 0.25210897E+04</pdfrwt>
<totfact> 0.28851597E+00</totfact>
</mgrwt>
</event>
<event>
 6    1  0.1831439E-005  0.2232407E+04  0.7818608E-02  0.8505059E-01
         -1   -1    0    0    0  501 -0.00000000000E+00  0.00000000000E+00  0.66167722813E+03  0.66167722813E+03  0.00000000000E+00 0.  1.
          1   -1    0    0  501    0  0.00000000000E+00 -0.00000000000E+00 -0.18829578489E+04  0.18829578489E+04  0.00000000000E+00 0. -1.
         23    2    1    2    0    0  0.85957793905E+03  0.30836936953E+03 -0.13394294430E+04  0.16238066209E+04  0.93331709278E+02 0.  0.
         13    1    3    3    0    0  0.43881467676E+03  0.10793450234E+03 -0.66417462624E+03  0.80332814683E+03  0.00000000000E+00 0. -1.
        -13    1    3    3    0    0  0.42076326229E+03  0.20043486718E+03 -0.67525481678E+03  0.82047847410E+03  0.00000000000E+00 0.  1.
         22    1    1    2    0    0 -0.85957793905E+03 -0.30836936953E+03  0.11814882226E+03  0.92082845610E+03  0.00000000000E+00 0.  1.
<mgrwt>
<rscale>  0 0.22324071E+04</rscale>
<asrwt>0</asrwt>
<pdfrwt beam="1">  1        1 0.28968582E+00 0.22324071E+04</pdfrwt>
<pdfrwt beam="2">  1       -1 0.10179650E+00 0.22324071E+04</pdfrwt>
<totfact> 0.29756373E+00</totfact>
</mgrwt>
</event>
<event>
 6    1  0.1831439E-005  0.1738709E+04  0.7818608E-02  0.8739590E-01
          2   -1    0    0  501    0  0.00000000000E+00  0.00000000000E+00  0.16851034953E+04  0.16851034953E+04  0.00000000000E+00 0. -1.
         -2   -1    0    0    0  501 -0.00000000000E+00 -0.00000000000E+00 -0.44850476313E+03  0.44850476313E+03  0.00000000000E+00 0.  1.
         23    2    1    2    0    0  0.13125938926E+03 -0.70845759772E+03  0.12117316132E+04  0.14126647318E+04  0.90481749357E+02 0.  0.
         13    1    3    3    0    0  0.22091755561E+02 -0.36153701009E+03  0.58534175223E+03  0.68834731221E+03  0.00000000000E+00 0.  1.
        -13    1    3    3    0    0  0.10916763370E+03 -0.34692058763E+03  0.62638986099E+03  0.72431741959E+03  0.00000000000E+00 0. -1.
         22    1    1    2    0    0 -0.13125938926E+03  0.70845759772E+03  0.24867118995E+02  0.72094352667E+03  0.00000000000E+00 0.  1.
<mgrwt>
<rscale>  0 0.17387087E+04</rscale>
<asrwt>0</asrwt>
<pdfrwt beam="1">  1        2 0.25924669E+00 0.17387087E+04</pdfrwt>
<pdfrwt beam="2">  1       -2 0.69000734E-01 0.17387087E+04</pdfrwt>
<totfact> 0.18188157E+01</totfact>
</mgrwt>
</event>
<event>
 6    1  0.1831439E-005  0.1688479E+04  0.7818608E-02  0.8767963E-01
          1   -1    0    0  501    0  0.00000000000E+00  0.00000000000E+00  0.81202591166E+03  0.81202591166E+03  0.00000000000E+00 0. -1.
         -1   -1    0    0    0  501 -0.00000000000E+00 -0.00000000000E+00 -0.87773083217E+03  0.87773083217E+03  0.00000000000E+00 0.  1.
         23    2    1    2    0    0  0.65226715029E+03 -0.50290164993E+03  0.14108763559E+03  0.84056556035E+03  0.91006788104E+02 0.  0.
         13    1    3    3    0    0  0.15158350319E+03 -0.15067933012E+03  0.67756249577E+01  0.21384042662E+03  0.00000000000E+00 0.  1.
        -13    1    3    3    0    0  0.50068364710E+03 -0.35222231981E+03  0.13431201063E+03  0.62672513373E+03  0.00000000000E+00 0. -1.
         22    1    1    2    0    0 -0.65226715029E+03  0.50290164993E+03 -0.20679255611E+03  0.84919118348E+03  0.00000000000E+00 0. -1.
<mgrwt>
<rscale>  0 0.16884788E+04</rscale>
<asrwt>0</asrwt>
<pdfrwt beam="1">  1        1 0.12492706E+00 0.16884788E+04</pdfrwt>
<pdfrwt beam="2">  1       -1 0.13503551E+00 0.16884788E+04</pdfrwt>
<totfact> 0.94654161E+00</totfact>
</mgrwt>
</event>
<event>
 6    1  0.1831439E-005  0.3050187E+04  0.7818608E-02  0.8229543E-01
         -2   -1    0    0    0  501 -0.00000000000E+00  0.00000000000E+00  0.10060170892E+04  0.10060170892E+04  0.00000000000E+00 0.  1.
          2   -1    0    0  501    0  0.00000000000E+00 -0.00000000000E+00 -0.23119981292E+04  0.23119981292E+04  0.00000000000E+00 0. -1.
         23    2    1    2    0    0  0.55751100175E+03 -0.86522858907E+03  0.56849469804E+03  0.11795348419E+04  0.93151452204E+02 0.  0.
         11    1    3    3    0    0  0.28951230856E+03 -0.49218155579E+03  0.26915209040E+03  0.63127086772E+03  0.00000000000E+00 0. -1.
        -11    1    3    3    0    0  0.26799869319E+03 -0.37304703328E+03  0.29934260764E+03  0.54826397414E+03  0.00000000000E+00 0.  1.
         22    1    1    2    0    0 -0.55751100175E+03  0.86522858907E+03 -0.18744757380E+04  0.21384803765E+04  0.00000000000E+00 0. -1.
<mgrwt>
<rscale>  0 0.30501866E+04</rscale>
<asrwt>0</asrwt>
<pdfrwt beam="1">  1        2 0.35569201E+00 0.30501866E+04</pdfrwt>
<pdfrwt beam="2">  1       -2 0.15477186E+00 0.30501866E+04</pdfrwt>
<totfact> 0.10485366E+00</totfact>
</mgrwt>
</event>
<event>
 6    1  0.1831439E-005  0.3280859E+04  0.7818608E-02  0.8167783E-01
         -2   -1    0    0    0  501 -0.00000000000E+00  0.00000000000E+00  0.20518178514E+04  0.20518178514E+04  0.00000000000E+00 0.  1.
          2   -1    0    0  501    0  0.00000000000E+00 -0.00000000000E+00 -0.13115243209E+04  0.13115243209E+04  0.00000000000E+00 0. -1.
         23    2    1    2    0    0 -0.62488712785E+03  0.14522745265E+04 -0.73288071786E+02  0.15852813616E+04  0.90336210397E+02 0.  0.
         11    1    3    3    0    0 -0.38071897115E+03  0.97771566078E+03 -0.26748136714E+02  0.10495667254E+04  0.00000000000E+00 0. -1.
        -11    1    3    3    0    0 -0.24416815670E+03  0.47455886575E+03 -0.46539935073E+02  0.53571463613E+03  0.00000000000E+00 0.  1.
         22    1    1    2    0    0  0.62488712785E+03 -0.14522745265E+04  0.81358160225E+03  0.17780608107E+04  0.00000000000E+00 0.  1.
<mgrwt>
<rscale>  0 0.32808590E+04</rscale>
<asrwt>0</asrwt>
<pdfrwt beam="1">  1        2 0.20177297E+00 0.32808590E+04</pdfrwt>
<pdfrwt beam="2">  1       -2 0.31566429E+00 0.32808590E+04</pdfrwt>
<totfact> 0.34668531E-01</totfact>
</mgrwt>
</event>
<event>
 6    1  0.1831439E-005  0.1889910E+04  0.7818608E-02  0.8659895E-01
          2   -1    0    0  501    0  0.00000000000E+00  0.00000000000E+00  0.16637833318E+04  0.16637833318E+04  0.00000000000E+00 0. -1.
         -2   -1    0    0    0  501 -0.00000000000E+00 -0.00000000000E+00 -0.53669222411E+03  0.53669222411E+03  0.00000000000E+00 0.  1.
         23    2    1    2    0    0  0.20818841334E+03 -0.57508232728E+03  0.14006350393E+04  0.15304842268E+04  0.80878652854E+02 0.  0.
         13    1    3    3    0    0  0.11115371933E+03 -0.41392856075E+03  0.95416180106E+03  0.10460003563E+04  0.00000000000E+00 0.  1.
        -13    1    3    3    0    0  0.97034694008E+02 -0.16115376654E+03  0.44647323827E+03  0.48448387053E+03  0.00000000000E+00 0. -1.
         22    1    1    2    0    0 -0.20818841334E+03  0.57508232728E+03 -0.27354393161E+03  0.66999132914E+03  0.00000000000E+00 0.  1.
<mgrwt>
<rscale>  0 0.18899096E+04</rscale>
<asrwt>0</asrwt>
<pdfrwt beam="1">  1        2 0.25596666E+00 0.18899096E+04</pdfrwt>
<pdfrwt beam="2">  1       -2 0.82568035E-01 0.18899096E+04</pdfrwt>
<totfact> 0.12393204E+01</totfact>
</mgrwt>
</event>
<event>
 6    1  0.1831439E-005  0.2678865E+04  0.7818608E-02  0.8341895E-01
         -1   -1    0    0    0  501 -0.00000000000E+00  0.00000000000E+00  0.20813658403E+04  0.20813658403E+04  0.00000000000E+00 0. -1.
          1   -1    0    0  501    0  0.00000000000E+00 -0.00000000000E+00 -0.86197192459E+03  0.86197192459E+03  0.00000000000E+00 0.  1.
         23    2    1    2    0    0  0.99565505991E+03  0.63078049198E+03  0.13057055718E+04  0.17615329039E+04  0.94435713259E+02 0.  0.
         13    1    3    3    0    0  0.61481346874E+03  0.43124827667E+03  0.78719165731E+03  0.10879528404E+04  0.00000000000E+00 0.  1.
        -13    1    3    3    0    0  0.38084159117E+03  0.19953221530E+03  0.51851391450E+03  0.67358006357E+03  0.00000000000E+00 0. -1.
         22    1    1    2    0    0 -0.99565505991E+03 -0.63078049198E+03 -0.86311656123E+02  0.11818048610E+04  0.00000000000E+00 0. -1.
<mgrwt>
<rscale>  0 0.26788646E+04</rscale>
<asrwt>0</asrwt>
<pdfrwt beam="1">  1        1 0.13261107E+00 0.26788646E+04</pdfrwt>
<pdfrwt beam="2">  1       -1 0.32021013E+00 0.26788646E+04</pdfrwt>
<totfact> 0.41762854E-01</totfact>
</mgrwt>
</event>
<event>
 6    1  0.1831439E-005  0.1503081E+04  0.7818608E-02  0.8882407E-01
          1   -1    0    0  501    0  0.00000000000E+00  0.00000000000E+00  0.30394329719E+04  0.30394329719E+04  0.00000000000E+00 0. -1.
         -1   -1    0    0    0  501 -0.00000000000E+00 -0.00000000000E+00 -0.18582839487E+03  0.18582839487E+03  0.00000000000E+00 0.  1.
         23    2    1    2    0    0 -0.47529589783E+03  0.43384221205E+03  0.22528559956E+04  0.23449068282E+04  0.95407760198E+02 0.  0.
         11    1    3    3    0    0 -0.39986985928E+03  0.31277346959E+03  0.17852899341E+04  0.18560666196E+04  0.00000000000E+00 0. -1.
        -11    1    3    3    0    0 -0.75426038550E+02  0.12106874246E+03  0.46756606149E+03  0.48884020861E+03  0.00000000000E+00 0.  1.
         22    1    1    2    0    0  0.47529589783E+03 -0.43384221205E+03  0.60074858144E+03  0.88035453856E+03  0.00000000000E+00 0.  1.
<mgrwt>
<rscale>  0 0.15030808E+04</rscale>
<asrwt>0</asrwt>
<pdfrwt beam="1">  1        1 0.46760504E+00 0.15030808E+04</pdfrwt>
<pdfrwt beam="2">  1       -1 0.28588986E-01 0.15030808E+04</pdfrwt>
<totfact> 0.60449583E+00</totfact>
</mgrwt>
</event>
<event>
 6    1  0.1831439E-005  0.2935854E+04  0.7818608E-02  0.8262289E-01
          1   -1    0    0  501    0  0.00000000000E+00  0.00000000000E+00  0.13426608839E+04  0.13426608839E+04  0.00000000000E+00 0. -1.
         -1   -1    0    0    0  501 -0.00000000000E+00 -0.00000000000E+00 -0.16048802117E+04  0.16048802117E+04  0.00000000000E+00 0.  1.
         23    2    1    2    0    0  0.11646779272E+04  0.73876531861E+03  0.36904879806E+03  0.14307193141E+04  0.92259796725E+02 0.  0.
         13    1    3    3    0    0  0.17444275474E+03  0.10996255564E+03  0.21633645757E+02  0.20734042768E+03  0.00000000000E+00 0.  1.
        -13    1    3    3    0    0  0.99023517249E+03  0.62880276297E+03  0.34741515231E+03  0.12233788864E+04  0.00000000000E+00 0. -1.
         22    1    1    2    0    0 -0.11646779272E+04 -0.73876531861E+03 -0.63126812586E+03  0.15168217815E+04  0.00000000000E+00 0.  1.
<mgrwt>
<rscale>  0 0.29358541E+04</rscale>
<asrwt>0</asrwt>
<pdfrwt beam="1">  1        1 0.20656321E+00 0.29358541E+04</pdfrwt>
<pdfrwt beam="2">  1       -1 0.24690465E+00 0.29358541E+04</pdfrwt>
<totfact> 0.52719264E-01</totfact>
</mgrwt>
</event>
<event>
 6    1  0.1831439E-005  0.2049298E+04  0.7818608E-02  0.8583913E-01
         -2   -1    0    0    0  501 -0.00000000000E+00  0.00000000000E+00  0.16640011534E+04  0.16640011534E+04  0.00000000000E+00 0. -1.
          2   -1    0    0  501    0  0.00000000000E+00 -0.00000000000E+00 -0.63095215038E+03  0.63095215038E+03  0.00000000000E+00 0.  1.
         23    2    1    2    0    0 -0.56607578894E+02 -0.10073485349E+04  0.70440862512E+03  0.12338406864E+04  0.90641268569E+02 0.  0.
         13    1    3    3    0    0  0.10335733592E+02 -0.40877571361E+03  0.32106771225E+03  0.51989314987E+03  0.00000000000E+00 0. -1.
        -13    1    3    3    0    0 -0.66943312486E+02 -0.59857282129E+03  0.38334091287E+03  0.71394753656E+03  0.00000000000E+00 0.  1.
         22    1    1    2    0    0  0.56607578894E+02  0.10073485349E+04  0.32864037794E+03  0.10611126174E+04  0.00000000000E+00 0.  1.
<mgrwt>
<rscale>  0 0.20492975E+04</rscale>
<asrwt>0</asrwt>
<pdfrwt beam="1">  1        2 0.97069562E-01 0.20492975E+04</pdfrwt>
<pdfrwt beam="2">  1       -2 0.25600018E+00 0.20492975E+04</pdfrwt>
<totfact> 0.25476724E+00</totfact>
</mgrwt>
</event>
<event>
 6    1  0.1831439E-005  0.1400194E+04  0.7818608E-02  0.8953678E-01
          1   -1    0    0  501    0  0.00000000000E+00  0.00000000000E+00  0.94723472179E+03  0.94723472179E+03  0.00000000000E+00 0. -1.
         -1   -1    0    0    0  501 -0.00000000000E+00 -0.00000000000E+00 -0.51743843125E+03  0.51743843125E+03  0.00000000000E+00 0.  1.
         23    2    1    2    0    0 -0.59051107738E+03  0.30379886799E+03  0.43791573201E+03  0.80054740438E+03  0.90049284393E+02 0.  0.
         11    1    3    3    0    0 -0.16876791471E+03  0.56172027998E+02  0.15245955520E+03  0.23426869560E+03  0.00000000000E+00 0. -1.
        -11    1    3    3    0    0 -0.42174316267E+03  0.24762683999E+03  0.28545617681E+03  0.56627870878E+03  0.00000000000E+00 0.  1.
         22    1    1    2    0    0  0.59051107738E+03 -0.30379886799E+03 -0.81194414699E+01  0.66412574866E+03  0.00000000000E+00 0.  1.
<mgrwt>
<rscale>  0 0.14001938E+04</rscale>
<asrwt>0</asrwt>
<pdfrwt beam="1">  1        1 0.14572842E+00 0.14001938E+04</pdfrwt>
<pdfrwt beam="2">  1       -1 0.79605913E-01 0.14001938E+04</pdfrwt>
<totfact> 0.25613884E+01</totfact>
</mgrwt>
</event>
<event>
 6    1  0.1831439E-005  0.7959874E+03  0.7818608E-02  0.9565843E-01
         -3   -1    0    0    0  501 -0.00000000000E+00  0.00000000000E+00  0.13518805760E+03  0.13518805760E+03  0.00000000000E+00 0.  1.
          3   -1    0    0  501    0  0.00000000000E+00 -0.00000000000E+00 -0.11716935008E+04  0.11716935008E+04  0.00000000000E+00 0. -1.
         23    2    1    2    0    0  0.18551172074E+03  0.15992497945E+03 -0.10291397399E+04  0.10618410492E+04  0.91581722907E+02 0.  0.
         13    1    3    3    0    0  0.17123300065E+03  0.14609228334E+03 -0.10079868450E+04  0.10328122654E+04  0.00000000000E+00 0.  1.
        -13    1    3    3    0    0  0.14278720090E+02  0.13832696117E+02 -0.21152894843E+02  0.29028783810E+02  0.00000000000E+00 0. -1.
         22    1    1    2    0    0 -0.18551172074E+03 -0.15992497945E+03 -0.73657033646E+01  0.24504050925E+03  0.00000000000E+00 0.  1.
<mgrwt>
<rscale>  0 0.79598736E+03</rscale>
<asrwt>0</asrwt>
<pdfrwt beam="1">  1        3 0.18026054E+00 0.79598736E+03</pdfrwt>
<pdfrwt beam="2">  1       -3 0.20798163E-01 0.79598736E+03</pdfrwt>
<totfact> 0.11200309E+01</totfact>
</mgrwt>
</event>
<event>
 6    1  0.1831439E-005  0.4494200E+04  0.7818608E-02  0.7911653E-01
          2   -1    0    0  501    0  0.00000000000E+00  0.00000000000E+00  0.37412256020E+04  0.37412256020E+04  0.00000000000E+00 0. -1.
         -2   -1    0    0    0  501 -0.00000000000E+00 -0.00000000000E+00 -0.13496804637E+04  0.13496804637E+04  0.00000000000E+00 0.  1.
         23    2    1    2    0    0  0.27296953708E+03 -0.14320048968E+04  0.31321242006E+04  0.34557890240E+04  0.84411953726E+02 0.  0.
         13    1    3    3    0    0  0.13729960889E+03 -0.87053368016E+03  0.18199505291E+04  0.20221028657E+04  0.00000000000E+00 0.  1.
        -13    1    3    3    0    0  0.13566992818E+03 -0.56147121659E+03  0.13121736715E+04  0.14336861583E+04  0.00000000000E+00 0. -1.
         22    1    1    2    0    0 -0.27296953708E+03  0.14320048968E+04 -0.74057906225E+03  0.16351170417E+04  0.00000000000E+00 0.  1.
<mgrwt>
<rscale>  0 0.44942003E+04</rscale>
<asrwt>0</asrwt>
<pdfrwt beam="1">  1        2 0.57557317E+00 0.44942003E+04</pdfrwt>
<pdfrwt beam="2">  1       -2 0.20764315E+00 0.44942003E+04</pdfrwt>
<totfact> 0.48756199E-02</totfact>
</mgrwt>
</event>
<event>
 6    1  0.1831439E-005  0.1773592E+04  0.7818608E-02  0.8720470E-01
          2   -1    0    0  501    0  0.00000000000E+00  0.00000000000E+00  0.12493157344E+04  0.12493157344E+04  0.00000000000E+00 0.  1.
         -2   -1    0    0    0  501 -0.00000000000E+00 -0.00000000000E+00 -0.62947010830E+03  0.62947010830E+03  0.00000000000E+00 0. -1.
         23    2    1    2    0    0  0.16580610505E+03  0.98107671058E+02  0.12256242896E+04  0.12431093773E+04  0.77776892712E+02 0.  0.
         13    1    3    3    0    0  0.32494811800E+02  0.58905462634E+02  0.47372252020E+03  0.47847548784E+03  0.00000000000E+00 0.  1.
        -13    1    3    3    0    0  0.13331129325E+03  0.39202208424E+02  0.75190176939E+03  0.76463388943E+03  0.00000000000E+00 0. -1.
         22    1    1    2    0    0 -0.16580610505E+03 -0.98107671058E+02 -0.60577866348E+03  0.63567646544E+03  0.00000000000E+00 0. -1.
<mgrwt>
<rscale>  0 0.17735917E+04</rscale>
<asrwt>0</asrwt>
<pdfrwt beam="1">  1        2 0.19220242E+00 0.17735917E+04</pdfrwt>
<pdfrwt beam="2">  1       -2 0.96841555E-01 0.17735917E+04</pdfrwt>
<totfact> 0.14925564E+01</totfact>
</mgrwt>
</event>
<event>
 6    1  0.1831439E-005  0.5029339E+03  0.7818608E-02  0.1013016E+00
         -2   -1    0    0    0  501 -0.00000000000E+00  0.00000000000E+00  0.40147185689E+02  0.40147185689E+02  0.00000000000E+00 0.  1.
          2   -1    0    0  501    0  0.00000000000E+00 -0.00000000000E+00 -0.15750949573E+04  0.15750949573E+04  0.00000000000E+00 0. -1.
         23    2    1    2    0    0  0.14687627997E+03  0.19246887236E+03 -0.87010074595E+03  0.90768403514E+03  0.90543310664E+02 0.  0.
         13    1    3    3    0    0  0.46565219759E+02  0.11854595608E+03 -0.33832285188E+03  0.36150216527E+03  0.00000000000E+00 0.  1.
        -13    1    3    3    0    0  0.10031106021E+03  0.73922916285E+02 -0.53177789407E+03  0.54618186987E+03  0.00000000000E+00 0. -1.
         22    1    1    2    0    0 -0.14687627997E+03 -0.19246887236E+03 -0.66484702569E+03  0.70755810787E+03  0.00000000000E+00 0.  1.
<mgrwt>
<rscale>  0 0.50293391E+03</rscale>
<asrwt>0</asrwt>
<pdfrwt beam="1">  1        2 0.24232227E+00 0.50293391E+03</pdfrwt>
<pdfrwt beam="2">  1       -2 0.61764910E-02 0.50293391E+03</pdfrwt>
<totfact> 0.17456200E+03</totfact>
</mgrwt>
</event>
<event>
 6    1  0.1831439E-005  0.1690379E+04  0.7818608E-02  0.8766871E-01
          1   -1    0    0  501    0  0.00000000000E+00  0.00000000000E+00  0.55449827462E+03  0.55449827462E+03  0.00000000000E+00 0. -1.
         -1   -1    0    0    0  501 -0.00000000000E+00 -0.00000000000E+00 -0.12882726323E+04  0.12882726323E+04  0.00000000000E+00 0.  1.
         23    2    1    2    0    0  0.33227141178E+03 -0.63148258379E+03 -0.85643927650E+03  0.11187396735E+04  0.94422868052E+02 0.  0.
         13    1    3    3    0    0  0.64910057078E+02 -0.58175096210E+02 -0.10737392755E+03  0.13829973842E+03  0.00000000000E+00 0. -1.
        -13    1    3    3    0    0  0.26736135470E+03 -0.57330748758E+03 -0.74906534896E+03  0.98043993509E+03  0.00000000000E+00 0.  1.
         22    1    1    2    0    0 -0.33227141178E+03  0.63148258379E+03  0.12266491879E+03  0.72403123346E+03  0.00000000000E+00 0. -1.
<mgrwt>
<rscale>  0 0.16903786E+04</rscale>
<asrwt>0</asrwt>
<pdfrwt beam="1">  1        1 0.85307427E-01 0.16903786E+04</pdfrwt>
<pdfrwt beam="2">  1       -1 0.19819579E+00 0.16903786E+04</pdfrwt>
<totfact> 0.56555511E+00</totfact>
</mgrwt>
</event>
<event>
 6    1  0.1831439E-005  0.1181005E+04  0.7818608E-02  0.9129647E-01
         -3   -1    0    0    0  501 -0.00000000000E+00  0.00000000000E+00  0.12489356514E+04  0.12489356514E+04  0.00000000000E+00 0.  1.
          3   -1    0    0  501    0  0.00000000000E+00 -0.00000000000E+00 -0.27919232433E+03  0.27919232433E+03  0.00000000000E+00 0. -1.
         23    2    1    2    0    0  0.26039974572E+03 -0.51373378771E+03  0.34215056667E+03  0.67630457556E+03  0.92684607364E+02 0.  0.
         13    1    3    3    0    0  0.12522222494E+03 -0.18312704950E+03  0.17177265321E+03  0.28057435069E+03  0.00000000000E+00 0. -1.
        -13    1    3    3    0    0  0.13517752078E+03 -0.33060673821E+03  0.17037791346E+03  0.39573022486E+03  0.00000000000E+00 0.  1.
         22    1    1    2    0    0 -0.26039974572E+03  0.51373378771E+03  0.62759276043E+03  0.85182340021E+03  0.00000000000E+00 0.  1.
<mgrwt>
<rscale>  0 0.11810051E+04</rscale>
<asrwt>0</asrwt>
<pdfrwt beam="1">  1        3 0.42952666E-01 0.11810051E+04</pdfrwt>
<pdfrwt beam="2">  1       -3 0.19214394E+00 0.11810051E+04</pdfrwt>
<totfact> 0.22990420E+00</totfact>
</mgrwt>
</event>
<event>
 6    1  0.1831439E-005  0.8657275E+03  0.7818608E-02  0.9469468E-01
         -4   -1    0    0    0  501 -0.00000000000E+00  0.00000000000E+00  0.16464973944E+03  0.16464973944E+03  0.00000000000E+00 0.  1.
          4   -1    0    0  501    0  0.00000000000E+00 -0.00000000000E+00 -0.11379975847E+04  0.11379975847E+04  0.00000000000E+00 0. -1.
         23    2    1    2    0    0  0.19043971170E+03  0.37569568448E+03 -0.60689206976E+03  0.74434241952E+03  0.91176323833E+02 0.  0.
         11    1    3    3    0    0  0.85074985135E+02  0.87625491609E+02 -0.20722057254E+03  0.24053346037E+03  0.00000000000E+00 0. -1.
        -11    1    3    3    0    0  0.10536472656E+03  0.28807019287E+03 -0.39967149722E+03  0.50380895915E+03  0.00000000000E+00 0.  1.
         22    1    1    2    0    0 -0.19043971170E+03 -0.37569568448E+03 -0.36645577550E+03  0.55830490462E+03  0.00000000000E+00 0. -1.
<mgrwt>
<rscale>  0 0.86572745E+03</rscale>
<asrwt>0</asrwt>
<pdfrwt beam="1">  1        4 0.17507654E+00 0.86572745E+03</pdfrwt>
<pdfrwt beam="2">  1       -4 0.25330730E-01 0.86572745E+03</pdfrwt>
<totfact> 0.57826262E+00</totfact>
</mgrwt>
</event>
<event>
 6    1  0.1831439E-005  0.1999372E+04  0.7818608E-02  0.8606914E-01
         -2   -1    0    0    0  501 -0.00000000000E+00  0.00000000000E+00  0.90892133205E+03  0.90892133205E+03  0.00000000000E+00 0.  1.
          2   -1    0    0  501    0  0.00000000000E+00 -0.00000000000E+00 -0.10995149239E+04  0.10995149239E+04  0.00000000000E+00 0. -1.
         23    2    1    2    0    0  0.83803093429E+02 -0.91910899173E+03  0.28467326817E+03  0.97033082517E+03  0.93374212257E+02 0.  0.
         11    1    3    3    0    0  0.76043950615E+00 -0.34486690215E+03  0.71552704725E+02  0.35221236211E+03  0.00000000000E+00 0. -1.
        -11    1    3    3    0    0  0.83042653923E+02 -0.57424208958E+03  0.21312056345E+03  0.61811846307E+03  0.00000000000E+00 0.  1.
         22    1    1    2    0    0 -0.83803093429E+02  0.91910899173E+03 -0.47526686002E+03  0.10381054308E+04  0.00000000000E+00 0. -1.
<mgrwt>
<rscale>  0 0.19993725E+04</rscale>
<asrwt>0</asrwt>
<pdfrwt beam="1">  1        2 0.16915614E+00 0.19993725E+04</pdfrwt>
<pdfrwt beam="2">  1       -2 0.13983405E+00 0.19993725E+04</pdfrwt>
<totfact> 0.72978076E+00</totfact>
</mgrwt>
</event>
<event>
 6    1  0.1831439E-005  0.1593925E+04  0.7818608E-02  0.8824289E-01
          1   -1    0    0  501    0  0.00000000000E+00  0.00000000000E+00  0.17890043271E+04  0.17890043271E+04  0.00000000000E+00 0. -1.
         -1   -1    0    0    0  501 -0.00000000000E+00 -0.00000000000E+00 -0.35502931333E+03  0.35502931333E+03  0.00000000000E+00 0.  1.
         23    2    1    2    0    0  0.18061749941E+03 -0.75597293605E+03  0.49955071064E+03  0.92860509894E+03  0.92944909178E+02 0.  0.
         13    1    3    3    0    0  0.19978026080E+02 -0.83362018719E+02  0.92753072335E+02  0.12629916911E+03  0.00000000000E+00 0. -1.
        -13    1    3    3    0    0  0.16063947333E+03 -0.67261091733E+03  0.40679763830E+03  0.80230592983E+03  0.00000000000E+00 0.  1.
         22    1    1    2    0    0 -0.18061749941E+03  0.75597293605E+03  0.93442430309E+03  0.12154285414E+04  0.00000000000E+00 0. -1.
<mgrwt>
<rscale>  0 0.15939247E+04</rscale>
<asrwt>0</asrwt>
<pdfrwt beam="1">  1        1 0.27523143E+00 0.15939247E+04</pdfrwt>
<pdfrwt beam="2">  1       -1 0.54619895E-01 0.15939247E+04</pdfrwt>
<totfact> 0.13475974E+01</totfact>
</mgrwt>
</event>
<event>
 6    1  0.1831439E-005  0.2865481E+04  0.7818608E-02  0.8283223E-01
         -2   -1    0    0    0  501 -0.00000000000E+00  0.00000000000E+00  0.13699516962E+04  0.13699516962E+04  0.00000000000E+00 0. -1.
          2   -1    0    0  501    0  0.00000000000E+00 -0.00000000000E+00 -0.14984070731E+04  0.14984070731E+04  0.00000000000E+00 0.  1.
         23    2    1    2    0    0 -0.96226950998E+02 -0.54776743863E+03  0.12557882478E+04  0.13765681656E+04  0.92881635739E+02 0.  0.
         13    1    3    3    0    0 -0.60561106184E+02 -0.33671782252E+03  0.65820987680E+03  0.74181317156E+03  0.00000000000E+00 0. -1.
        -13    1    3    3    0    0 -0.35665844814E+02 -0.21104961611E+03  0.59757837100E+03  0.63475499402E+03  0.00000000000E+00 0.  1.
         22    1    1    2    0    0  0.96226950998E+02  0.54776743863E+03 -0.13842436247E+04  0.14917906038E+04  0.00000000000E+00 0.  1.
<mgrwt>
<rscale>  0 0.28654810E+04</rscale>
<asrwt>0</asrwt>
<pdfrwt beam="1">  1        2 0.23052416E+00 0.28654810E+04</pdfrwt>
<pdfrwt beam="2">  1       -2 0.21076180E+00 0.28654810E+04</pdfrwt>
<totfact> 0.12466235E+00</totfact>
</mgrwt>
</event>
<event>
 6    1  0.1831439E-005  0.1450839E+04  0.7818608E-02  0.8917819E-01
         -2   -1    0    0    0  501 -0.00000000000E+00  0.00000000000E+00  0.38947245103E+03  0.38947245103E+03  0.00000000000E+00 0. -1.
          2   -1    0    0  501    0  0.00000000000E+00 -0.00000000000E+00 -0.13511449065E+04  0.13511449065E+04  0.00000000000E+00 0.  1.
         23    2    1    2    0    0 -0.32693702520E+03 -0.30621036752E+03  0.19722049781E+03  0.49816595615E+03  0.92848195942E+02 0.  0.
         11    1    3    3    0    0 -0.19469753210E+03 -0.17443020644E+03  0.16386201838E+03  0.30851869796E+03  0.00000000000E+00 0.  1.
        -11    1    3    3    0    0 -0.13223949310E+03 -0.13178016108E+03  0.33358479432E+02  0.18964725819E+03  0.00000000000E+00 0. -1.
         22    1    1    2    0    0  0.32693702520E+03  0.30621036752E+03 -0.11588929533E+04  0.12424514014E+04  0.00000000000E+00 0.  1.
<mgrwt>
<rscale>  0 0.14508394E+04</rscale>
<asrwt>0</asrwt>
<pdfrwt beam="1">  1        2 0.20786845E+00 0.14508394E+04</pdfrwt>
<pdfrwt beam="2">  1       -2 0.59918838E-01 0.14508394E+04</pdfrwt>
<totfact> 0.38881485E+01</totfact>
</mgrwt>
</event>
<event>
 6    1  0.1831439E-005  0.2126295E+04  0.7818608E-02  0.8549748E-01
         -2   -1    0    0    0  501 -0.00000000000E+00  0.00000000000E+00  0.11679303433E+04  0.11679303433E+04  0.00000000000E+00 0.  1.
          2   -1    0    0  501    0  0.00000000000E+00 -0.00000000000E+00 -0.96776541639E+03  0.96776541639E+03  0.00000000000E+00 0. -1.
         23    2    1    2    0    0 -0.10859010534E+03  0.58780001634E+03 -0.78043310763E+03  0.98727372250E+03  0.91284705510E+02 0.  0.
         13    1    3    3    0    0 -0.61088545239E+02  0.31571579851E+03 -0.34498312059E+03  0.47161597649E+03  0.00000000000E+00 0. -1.
        -13    1    3    3    0    0 -0.47501560098E+02  0.27208421783E+03 -0.43544998704E+03  0.51565774601E+03  0.00000000000E+00 0.  1.
         22    1    1    2    0    0  0.10859010534E+03 -0.58780001634E+03  0.98059803453E+03  0.11484220372E+04  0.00000000000E+00 0.  1.
<mgrwt>
<rscale>  0 0.21262950E+04</rscale>
<asrwt>0</asrwt>
<pdfrwt beam="1">  1        2 0.14888699E+00 0.21262950E+04</pdfrwt>
<pdfrwt beam="2">  1       -2 0.17968159E+00 0.21262950E+04</pdfrwt>
<totfact> 0.44284366E+00</totfact>
</mgrwt>
</event>
<event>
 6    1  0.1831439E-005  0.8405906E+03  0.7818608E-02  0.9503054E-01
         -2   -1    0    0    0  501 -0.00000000000E+00  0.00000000000E+00  0.36356766302E+04  0.36356766302E+04  0.00000000000E+00 0.  1.
          2   -1    0    0  501    0  0.00000000000E+00 -0.00000000000E+00 -0.48587415413E+02  0.48587415413E+02  0.00000000000E+00 0. -1.
         23    2    1    2    0    0  0.25113348274E+03  0.21222490431E+03  0.29260301426E+04  0.29459507429E+04  0.94159160618E+02 0.  0.
         13    1    3    3    0    0  0.11309784620E+03  0.39300364554E+02  0.92142365508E+03  0.92917016397E+03  0.00000000000E+00 0. -1.
        -13    1    3    3    0    0  0.13803563654E+03  0.17292453976E+03  0.20046064876E+04  0.20167805789E+04  0.00000000000E+00 0.  1.
         22    1    1    2    0    0 -0.25113348274E+03 -0.21222490431E+03  0.66105907213E+03  0.73831330274E+03  0.00000000000E+00 0. -1.
<mgrwt>
<rscale>  0 0.84059058E+03</rscale>
<asrwt>0</asrwt>
<pdfrwt beam="1">  1        2 0.74749898E-02 0.84059058E+03</pdfrwt>
<pdfrwt beam="2">  1       -2 0.55933465E+00 0.84059058E+03</pdfrwt>
<totfact> 0.76099271E-01</totfact>
</mgrwt>
</event>
<event>
 6    1  0.1831439E-005  0.1894887E+04  0.7818608E-02  0.8657406E-01
         -2   -1    0    0    0  501 -0.00000000000E+00  0.00000000000E+00  0.44811074423E+03  0.44811074423E+03  0.00000000000E+00 0. -1.
          2   -1    0    0  501    0  0.00000000000E+00 -0.00000000000E+00 -0.20031864283E+04  0.20031864283E+04  0.00000000000E+00 0.  1.
         23    2    1    2    0    0  0.33052835122E+03 -0.56428178565E+03 -0.16619345436E+04  0.17886647402E+04  0.98143777857E+02 0.  0.
         13    1    3    3    0    0  0.17027507491E+03 -0.38352414193E+03 -0.10402985412E+04  0.11217421376E+04  0.00000000000E+00 0.  1.
        -13    1    3    3    0    0  0.16025327631E+03 -0.18075764372E+03 -0.62163600239E+03  0.66692260256E+03  0.00000000000E+00 0. -1.
         22    1    1    2    0    0 -0.33052835122E+03  0.56428178565E+03  0.10685885946E+03  0.66263243237E+03  0.00000000000E+00 0. -1.
<mgrwt>
<rscale>  0 0.18948872E+04</rscale>
<asrwt>0</asrwt>
<pdfrwt beam="1">  1        2 0.30818253E+00 0.18948872E+04</pdfrwt>
<pdfrwt beam="2">  1       -2 0.68940114E-01 0.18948872E+04</pdfrwt>
<totfact> 0.11981119E+01</totfact>
</mgrwt>
</event>
<event>
 6    1  0.1831439E-005  0.2145745E+04  0.7818608E-02  0.8541356E-01
         -2   -1    0    0    0  501 -0.00000000000E+00  0.00000000000E+00  0.51852336247E+03  0.51852336247E+03  0.00000000000E+00 0.  1.
          2   -1    0    0  501    0  0.00000000000E+00 -0.00000000000E+00 -0.22198728425E+04  0.22198728425E+04  0.00000000000E+00 0. -1.
         23    2    1    2    0    0 -0.35211346302E+03  0.52592850445E+02 -0.21418286168E+04  0.21720290372E+04  0.59417305655E+02 0.  0.
         11    1    3    3    0    0 -0.25985211716E+03  0.49041147374E+02 -0.17204210000E+04  0.17406253400E+04  0.00000000000E+00 0. -1.
        -11    1    3    3    0    0 -0.92261345857E+02  0.35517030711E+01 -0.42140761675E+03  0.43140369723E+03  0.00000000000E+00 0.  1.
         22    1    1    2    0    0  0.35211346302E+03 -0.52592850445E+02  0.44047913675E+03  0.56636716772E+03  0.00000000000E+00 0.  1.
<mgrwt>
<rscale>  0 0.21457455E+04</rscale>
<asrwt>0</asrwt>
<pdfrwt beam="1">  1        2 0.34151890E+00 0.21457455E+04</pdfrwt>
<pdfrwt beam="2">  1       -2 0.79772826E-01 0.21457455E+04</pdfrwt>
<totfact> 0.64271403E+00</totfact>
</mgrwt>
</event>
<event>
 6    1  0.1831439E-005  0.3490233E+04  0.7818608E-02  0.8116109E-01
         -1   -1    0    0    0  501 -0.00000000000E+00  0.00000000000E+00  0.25753114111E+04  0.25753114111E+04  0.00000000000E+00 0.  1.
          1   -1    0    0  501    0  0.00000000000E+00 -0.00000000000E+00 -0.11825487780E+04  0.11825487780E+04  0.00000000000E+00 0. -1.
         23    2    1    2    0    0 -0.13807318712E+04  0.92187543250E+03  0.12182229028E+03  0.16670316050E+04  0.88763102397E+02 0.  0.
         11    1    3    3    0    0 -0.26927831008E+03  0.19411780553E+03  0.57999446888E+02  0.33698140385E+03  0.00000000000E+00 0.  1.
        -11    1    3    3    0    0 -0.11114535611E+04  0.72775762698E+03  0.63822843394E+02  0.13300502011E+04  0.00000000000E+00 0. -1.
         22    1    1    2    0    0  0.13807318712E+04 -0.92187543250E+03  0.12709403428E+04  0.20908285841E+04  0.00000000000E+00 0. -1.
<mgrwt>
<rscale>  0 0.34902329E+04</rscale>
<asrwt>0</asrwt>
<pdfrwt beam="1">  1        1 0.18193058E+00 0.34902329E+04</pdfrwt>
<pdfrwt beam="2">  1       -1 0.39620175E+00 0.34902329E+04</pdfrwt>
<totfact> 0.68184922E-02</totfact>
</mgrwt>
</event>
<event>
 6    1  0.1831439E-005  0.3638952E+04  0.7818608E-02  0.8081627E-01
          2   -1    0    0  501    0  0.00000000000E+00  0.00000000000E+00  0.11238602810E+04  0.11238602810E+04  0.00000000000E+00 0. -1.
         -2   -1    0    0    0  501 -0.00000000000E+00 -0.00000000000E+00 -0.29456452242E+04  0.29456452242E+04  0.00000000000E+00 0.  1.
         23    2    1    2    0    0 -0.14599468867E+04  0.61765488191E+03  0.84835631844E+02  0.15899602884E+04  0.88510841384E+02 0.  0.
         11    1    3    3    0    0 -0.48559432392E+03  0.25034086959E+03  0.21600432481E+02  0.54675312262E+03  0.00000000000E+00 0.  1.
        -11    1    3    3    0    0 -0.97435256282E+03  0.36731401232E+03  0.63235199363E+02  0.10432071658E+04  0.00000000000E+00 0. -1.
         22    1    1    2    0    0  0.14599468867E+04 -0.61765488191E+03 -0.19066205750E+04  0.24795452168E+04  0.00000000000E+00 0.  1.
<mgrwt>
<rscale>  0 0.36389524E+04</rscale>
<asrwt>0</asrwt>
<pdfrwt beam="1">  1        2 0.17290158E+00 0.36389524E+04</pdfrwt>
<pdfrwt beam="2">  1       -2 0.45317619E+00 0.36389524E+04</pdfrwt>
<totfact> 0.56542941E-02</totfact>
</mgrwt>
</event>
<event>
 6    1  0.1831439E-005  0.1517352E+04  0.7818608E-02  0.8872995E-01
          2   -1    0    0  501    0  0.00000000000E+00  0.00000000000E+00  0.13576100761E+04  0.13576100761E+04  0.00000000000E+00 0. -1.
         -2   -1    0    0    0  501 -0.00000000000E+00 -0.00000000000E+00 -0.42397270850E+03  0.42397270850E+03  0.00000000000E+00 0.  1.
         23    2    1    2    0    0  0.51925971931E+03  0.61677002684E+02 -0.17228948708E+03  0.55826397225E+03  0.92413671056E+02 0.  0.
         11    1    3    3    0    0  0.13190443958E+03 -0.11395874580E+01 -0.59328744086E+01  0.13204271597E+03  0.00000000000E+00 0.  1.
        -11    1    3    3    0    0  0.38735527973E+03  0.62816590142E+02 -0.16635661267E+03  0.42622125629E+03  0.00000000000E+00 0. -1.
         22    1    1    2    0    0 -0.51925971931E+03 -0.61677002684E+02  0.11059268547E+04  0.12233188124E+04  0.00000000000E+00 0. -1.
<mgrwt>
<rscale>  0 0.15173525E+04</rscale>
<asrwt>0</asrwt>
<pdfrwt beam="1">  1        2 0.20886309E+00 0.15173525E+04</pdfrwt>
<pdfrwt beam="2">  1       -2 0.65226571E-01 0.15173525E+04</pdfrwt>
<totfact> 0.32001933E+01</totfact>
</mgrwt>
</event>
<event>
 6    1  0.1831439E-005  0.5750347E+04  0.7818608E-02  0.7722150E-01
         -2   -1    0    0    0  501 -0.00000000000E+00  0.00000000000E+00  0.34549222752E+04  0.34549222752E+04  0.00000000000E+00 0.  1.
          2   -1    0    0  501    0  0.00000000000E+00 -0.00000000000E+00 -0.23927086155E+04  0.23927086155E+04  0.00000000000E+00 0. -1.
         23    2    1    2    0    0 -0.20195201815E+04 -0.11285215307E+04  0.22661169765E+04  0.32396803918E+04  0.90665766363E+02 0.  0.
         13    1    3    3    0    0 -0.12098796905E+04 -0.62506893801E+03  0.13291214058E+04  0.19029145420E+04  0.00000000000E+00 0.  1.
        -13    1    3    3    0    0 -0.80964049098E+03 -0.50345259273E+03  0.93699557067E+03  0.13367658498E+04  0.00000000000E+00 0. -1.
         22    1    1    2    0    0  0.20195201815E+04  0.11285215307E+04 -0.12039033168E+04  0.26079504989E+04  0.00000000000E+00 0. -1.
<mgrwt>
<rscale>  0 0.57503469E+04</rscale>
<asrwt>0</asrwt>
<pdfrwt beam="1">  1        2 0.36810902E+00 0.57503469E+04</pdfrwt>
<pdfrwt beam="2">  1       -2 0.53152650E+00 0.57503469E+04</pdfrwt>
<totfact> 0.29989163E-03</totfact>
</mgrwt>
</event>
<event>
 6    1  0.2092007E-005  0.3103267E+04  0.7818608E-02  0.8214842E-01
          1   -1    0    0  501    0  0.00000000000E+00  0.00000000000E+00  0.17786393349E+04  0.17786393349E+04  0.00000000000E+00 0. -1.
         -1   -1    0    0    0  501 -0.00000000000E+00 -0.00000000000E+00 -0.13536001107E+04  0.13536001107E+04  0.00000000000E+00 0.  1.
         23    2    1    2    0    0  0.42130376474E+03  0.10640135321E+04  0.12687941067E+04  0.17104293457E+04  0.78156272036E+02 0.  0.
         11    1    3    3    0    0  0.14856401253E+03  0.46756313473E+03  0.57050946554E+03  0.75244109474E+03  0.00000000000E+00 0.  1.
        -11    1    3    3    0    0  0.27273975221E+03  0.59645039732E+03  0.69828464112E+03  0.95798825093E+03  0.00000000000E+00 0. -1.
         22    1    1    2    0    0 -0.42130376474E+03 -0.10640135321E+04 -0.84375488251E+03  0.14218101000E+04  0.00000000000E+00 0.  1.
<mgrwt>
<rscale>  0 0.31032669E+04</rscale>
<asrwt>0</asrwt>
<pdfrwt beam="1">  1        1 0.27363682E+00 0.31032669E+04</pdfrwt>
<pdfrwt beam="2">  1       -1 0.20824617E+00 0.31032669E+04</pdfrwt>
<totfact> 0.46961172E-01</totfact>
</mgrwt>
</event>
<event>
 6    1  0.1831439E-005  0.2558475E+04  0.7818608E-02  0.8382445E-01
          1   -1    0    0  501    0  0.00000000000E+00  0.00000000000E+00  0.17491613141E+04  0.17491613141E+04  0.00000000000E+00 0. -1.
         -1   -1    0    0    0  501 -0.00000000000E+00 -0.00000000000E+00 -0.93556208852E+03  0.93556208852E+03  0.00000000000E+00 0.  1.
         23    2    1    2    0    0  0.44847750589E+03 -0.11934502250E+04  0.49283985511E+03  0.13700591540E+04  0.93356573003E+02 0.  0.
         13    1    3    3    0    0  0.23190964163E+03 -0.66724970755E+03  0.31885054630E+03  0.77502898331E+03  0.00000000000E+00 0.  1.
        -13    1    3    3    0    0  0.21656786426E+03 -0.52620051746E+03  0.17398930882E+03  0.59503017066E+03  0.00000000000E+00 0. -1.
         22    1    1    2    0    0 -0.44847750589E+03  0.11934502250E+04  0.32075937043E+03  0.13146642486E+04  0.00000000000E+00 0.  1.
<mgrwt>
<rscale>  0 0.25584753E+04</rscale>
<asrwt>0</asrwt>
<pdfrwt beam="1">  1        1 0.26910174E+00 0.25584753E+04</pdfrwt>
<pdfrwt beam="2">  1       -1 0.14393263E+00 0.25584753E+04</pdfrwt>
<totfact> 0.15194900E+00</totfact>
</mgrwt>
</event>
<event>
 6    1  0.1831439E-005  0.1752547E+04  0.7818608E-02  0.8731950E-01
         -1   -1    0    0    0  501 -0.00000000000E+00  0.00000000000E+00  0.80205933666E+03  0.80205933666E+03  0.00000000000E+00 0.  1.
          1   -1    0    0  501    0  0.00000000000E+00 -0.00000000000E+00 -0.95735478207E+03  0.95735478207E+03  0.00000000000E+00 0. -1.
         23    2    1    2    0    0  0.62806856604E+03  0.53829323843E+03  0.20514935755E+03  0.85711140336E+03  0.91235764280E+02 0.  0.
         11    1    3    3    0    0  0.37655425771E+03  0.31779874744E+03  0.16792875359E+03  0.52056624858E+03  0.00000000000E+00 0. -1.
        -11    1    3    3    0    0  0.25151430833E+03  0.22049449098E+03  0.37220603962E+02  0.33654515478E+03  0.00000000000E+00 0.  1.
         22    1    1    2    0    0 -0.62806856604E+03 -0.53829323843E+03 -0.36044480296E+03  0.90230271537E+03  0.00000000000E+00 0. -1.
<mgrwt>
<rscale>  0 0.17525471E+04</rscale>
<asrwt>0</asrwt>
<pdfrwt beam="1">  1        1 0.14728535E+00 0.17525471E+04</pdfrwt>
<pdfrwt beam="2">  1       -1 0.12339374E+00 0.17525471E+04</pdfrwt>
<totfact> 0.89547619E+00</totfact>
</mgrwt>
</event>
<event>
 6    1  0.2311387E-005  0.4751647E+04  0.7818608E-02  0.7868003E-01
         -1   -1    0    0    0  501 -0.00000000000E+00  0.00000000000E+00  0.22062991720E+04  0.22062991720E+04  0.00000000000E+00 0.  1.
          1   -1    0    0  501    0  0.00000000000E+00 -0.00000000000E+00 -0.25583736023E+04  0.25583736023E+04  0.00000000000E+00 0. -1.
         23    2    1    2    0    0  0.23620145648E+04  0.24743202756E+03 -0.18480034411E+03  0.23838502206E+04  0.90858650038E+02 0.  0.
         13    1    3    3    0    0  0.57787051841E+03  0.33994804238E+02 -0.16261325548E+02  0.57909793081E+03  0.00000000000E+00 0. -1.
        -13    1    3    3    0    0  0.17841440464E+04  0.21343722332E+03 -0.16853901856E+03  0.18047522897E+04  0.00000000000E+00 0.  1.
         22    1    1    2    0    0 -0.23620145648E+04 -0.24743202756E+03 -0.16727408612E+03  0.23808225538E+04  0.00000000000E+00 0. -1.
<mgrwt>
<rscale>  0 0.47516471E+04</rscale>
<asrwt>0</asrwt>
<pdfrwt beam="1">  1        1 0.39359594E+00 0.47516471E+04</pdfrwt>
<pdfrwt beam="2">  1       -1 0.33943064E+00 0.47516471E+04</pdfrwt>
<totfact> 0.16580963E-02</totfact>
</mgrwt>
</event>
<event>
 6    1  0.1831439E-005  0.5309722E+04  0.7818608E-02  0.7782428E-01
         -2   -1    0    0    0  501 -0.00000000000E+00  0.00000000000E+00  0.19047017922E+04  0.19047017922E+04  0.00000000000E+00 0.  1.
          2   -1    0    0  501    0  0.00000000000E+00 -0.00000000000E+00 -0.37004672848E+04  0.37004672848E+04  0.00000000000E+00 0. -1.
         23    2    1    2    0    0 -0.14201177111E+04 -0.91578878518E+03  0.12623394343E+04  0.21112587810E+04  0.92246303638E+02 0.  0.
         13    1    3    3    0    0 -0.11959840680E+04 -0.74165800283E+03  0.10796576237E+04  0.17737235040E+04  0.00000000000E+00 0. -1.
        -13    1    3    3    0    0 -0.22413364308E+03 -0.17413078235E+03  0.18268181068E+03  0.33753527708E+03  0.00000000000E+00 0.  1.
         22    1    1    2    0    0  0.14201177111E+04  0.91578878518E+03 -0.30581049269E+04  0.34939102960E+04  0.00000000000E+00 0. -1.
<mgrwt>
<rscale>  0 0.53097219E+04</rscale>
<asrwt>0</asrwt>
<pdfrwt beam="1">  1        2 0.56930265E+00 0.53097219E+04</pdfrwt>
<pdfrwt beam="2">  1       -2 0.29303105E+00 0.53097219E+04</pdfrwt>
<totfact> 0.14483445E-02</totfact>
</mgrwt>
</event>
<event>
 6    1  0.1831439E-005  0.1372355E+04  0.7818608E-02  0.8974076E-01
          1   -1    0    0  501    0  0.00000000000E+00  0.00000000000E+00  0.58131553214E+03  0.58131553214E+03  0.00000000000E+00 0. -1.
         -1   -1    0    0    0  501 -0.00000000000E+00 -0.00000000000E+00 -0.80995477839E+03  0.80995477839E+03  0.00000000000E+00 0.  1.
         23    2    1    2    0    0 -0.18579968225E+03  0.63523425888E+03 -0.28644463770E+03  0.72690177661E+03  0.91058095730E+02 0.  0.
         11    1    3    3    0    0 -0.14858247538E+03  0.50432794075E+03 -0.18575623719E+03  0.55760990260E+03  0.00000000000E+00 0. -1.
        -11    1    3    3    0    0 -0.37217206872E+02  0.13090631812E+03 -0.10068840050E+03  0.16929187402E+03  0.00000000000E+00 0.  1.
         22    1    1    2    0    0  0.18579968225E+03 -0.63523425888E+03  0.57805391458E+02  0.66436853392E+03  0.00000000000E+00 0. -1.
<mgrwt>
<rscale>  0 0.13723546E+04</rscale>
<asrwt>0</asrwt>
<pdfrwt beam="1">  1        1 0.89433159E-01 0.13723546E+04</pdfrwt>
<pdfrwt beam="2">  1       -1 0.12460843E+00 0.13723546E+04</pdfrwt>
<totfact> 0.19762959E+01</totfact>
</mgrwt>
</event>
<event>
 6    1  0.1831439E-005  0.4581559E+04  0.7818608E-02  0.7896512E-01
          2   -1    0    0  501    0  0.00000000000E+00  0.00000000000E+00  0.29399515113E+04  0.29399515113E+04  0.00000000000E+00 0. -1.
         -2   -1    0    0    0  501 -0.00000000000E+00 -0.00000000000E+00 -0.17849513764E+04  0.17849513764E+04  0.00000000000E+00 0.  1.
         23    2    1    2    0    0  0.28519230021E+03 -0.10662055275E+04  0.26467567770E+04  0.28692448497E+04  0.95476151456E+02 0.  0.
         13    1    3    3    0    0  0.40326057060E+02 -0.11828541037E+03  0.23097025082E+03  0.26261166377E+03  0.00000000000E+00 0. -1.
        -13    1    3    3    0    0  0.24486624315E+03 -0.94792011717E+03  0.24157865262E+04  0.26066331859E+04  0.00000000000E+00 0.  1.
         22    1    1    2    0    0 -0.28519230021E+03  0.10662055275E+04 -0.14917566421E+04  0.18556580381E+04  0.00000000000E+00 0.  1.
<mgrwt>
<rscale>  0 0.45815589E+04</rscale>
<asrwt>0</asrwt>
<pdfrwt beam="1">  1        2 0.45230023E+00 0.45815589E+04</pdfrwt>
<pdfrwt beam="2">  1       -2 0.27460790E+00 0.45815589E+04</pdfrwt>
<totfact> 0.64873695E-02</totfact>
</mgrwt>
</event>
<event>
 6    1  0.1831439E-005  0.2282703E+04  0.7818608E-02  0.8484772E-01
          1   -1    0    0  501    0  0.00000000000E+00  0.00000000000E+00  0.93539030069E+03  0.93539030069E+03  0.00000000000E+00 0. -1.
         -1   -1    0    0    0  501 -0.00000000000E+00 -0.00000000000E+00 -0.13926630864E+04  0.13926630864E+04  0.00000000000E+00 0.  1.
         23    2    1    2    0    0 -0.28974194573E+03  0.11020362358E+04 -0.24020139857E+03  0.11680731083E+04  0.90905524174E+02 0.  0.
         13    1    3    3    0    0 -0.10887177529E+03  0.26071192506E+03 -0.63098700366E+02  0.28949130783E+03  0.00000000000E+00 0. -1.
        -13    1    3    3    0    0 -0.18087017043E+03  0.84132431074E+03 -0.17710269820E+03  0.87858180046E+03  0.00000000000E+00 0.  1.
         22    1    1    2    0    0  0.28974194573E+03 -0.11020362358E+04 -0.21707138717E+03  0.11599802788E+04  0.00000000000E+00 0.  1.
<mgrwt>
<rscale>  0 0.22827033E+04</rscale>
<asrwt>0</asrwt>
<pdfrwt beam="1">  1        1 0.14390620E+00 0.22827033E+04</pdfrwt>
<pdfrwt beam="2">  1       -1 0.21425586E+00 0.22827033E+04</pdfrwt>
<totfact> 0.18542998E+00</totfact>
</mgrwt>
</event>
<event>
 6    1  0.1831439E-005  0.4249702E+03  0.7818608E-02  0.1035461E+00
          2   -1    0    0  501    0  0.00000000000E+00  0.00000000000E+00  0.24001869685E+04  0.24001869685E+04  0.00000000000E+00 0. -1.
         -2   -1    0    0    0  501 -0.00000000000E+00 -0.00000000000E+00 -0.18810998629E+02  0.18810998629E+02  0.00000000000E+00 0.  1.
         23    2    1    2    0    0 -0.27078593358E+02 -0.15026763548E+03  0.20052194911E+04  0.20130333024E+04  0.89912493930E+02 0.  0.
         11    1    3    3    0    0 -0.12454959729E+02 -0.58624647306E+02  0.13437136184E+04  0.13450495395E+04  0.00000000000E+00 0.  1.
        -11    1    3    3    0    0 -0.14623633630E+02 -0.91642988177E+02  0.66150587268E+03  0.66798376293E+03  0.00000000000E+00 0. -1.
         22    1    1    2    0    0  0.27078593358E+02  0.15026763548E+03  0.37615647877E+03  0.40596466473E+03  0.00000000000E+00 0.  1.
<mgrwt>
<rscale>  0 0.42497018E+03</rscale>
<asrwt>0</asrwt>
<pdfrwt beam="1">  1        2 0.36925929E+00 0.42497018E+03</pdfrwt>
<pdfrwt beam="2">  1       -2 0.28940017E-02 0.42497018E+03</pdfrwt>
<totfact> 0.20062916E+03</totfact>
</mgrwt>
</event>
<event>
 6    1  0.1831439E-005  0.2823430E+04  0.7818608E-02  0.8296031E-01
         -1   -1    0    0    0  501 -0.00000000000E+00  0.00000000000E+00  0.86990085395E+03  0.86990085395E+03  0.00000000000E+00 0.  1.
          1   -1    0    0  501    0  0.00000000000E+00 -0.00000000000E+00 -0.22909962456E+04  0.22909962456E+04  0.00000000000E+00 0. -1.
         23    2    1    2    0    0 -0.12317002492E+04  0.10088940834E+03 -0.14718308715E+04  0.19240307909E+04  0.91346555592E+02 0.  0.
         13    1    3    3    0    0 -0.37311778156E+03 -0.57632717840E+01 -0.41116724981E+03  0.55525543809E+03  0.00000000000E+00 0. -1.
        -13    1    3    3    0    0 -0.85858246769E+03  0.10665268013E+03 -0.10606636217E+04  0.13687753528E+04  0.00000000000E+00 0.  1.
         22    1    1    2    0    0  0.12317002492E+04 -0.10088940834E+03  0.50735479808E+02  0.12368663087E+04  0.00000000000E+00 0.  1.
<mgrwt>
<rscale>  0 0.28234302E+04</rscale>
<asrwt>0</asrwt>
<pdfrwt beam="1">  1        1 0.35246096E+00 0.28234302E+04</pdfrwt>
<pdfrwt beam="2">  1       -1 0.13383090E+00 0.28234302E+04</pdfrwt>
<totfact> 0.76804028E-01</totfact>
</mgrwt>
</event>
<event>
 6    1  0.1831439E-005  0.2776276E+04  0.7818608E-02  0.8310672E-01
          1   -1    0    0  501    0  0.00000000000E+00  0.00000000000E+00  0.24159629265E+04  0.24159629265E+04  0.00000000000E+00 0. -1.
         -1   -1    0    0    0  501 -0.00000000000E+00 -0.00000000000E+00 -0.79758167907E+03  0.79758167907E+03  0.00000000000E+00 0.  1.
         23    2    1    2    0    0 -0.17386015922E+03  0.53086683980E+03 -0.65894095693E+03  0.86871126841E+03  0.91701289994E+02 0.  0.
         11    1    3    3    0    0 -0.48187413479E+02  0.99338598114E+02 -0.18574734719E+03  0.21608392093E+03  0.00000000000E+00 0. -1.
        -11    1    3    3    0    0 -0.12567274574E+03  0.43152824168E+03 -0.47319360973E+03  0.65262734749E+03  0.00000000000E+00 0.  1.
         22    1    1    2    0    0  0.17386015922E+03 -0.53086683980E+03  0.22773222044E+04  0.23448333372E+04  0.00000000000E+00 0. -1.
<mgrwt>
<rscale>  0 0.27762765E+04</rscale>
<asrwt>0</asrwt>
<pdfrwt beam="1">  1        1 0.37168660E+00 0.27762765E+04</pdfrwt>
<pdfrwt beam="2">  1       -1 0.12270487E+00 0.27762765E+04</pdfrwt>
<totfact> 0.78706769E-01</totfact>
</mgrwt>
</event>
<event>
 6    1  0.1831439E-005  0.1707409E+04  0.7818608E-02  0.8757150E-01
          2   -1    0    0  501    0  0.00000000000E+00  0.00000000000E+00  0.29906831874E+03  0.29906831874E+03  0.00000000000E+00 0. -1.
         -2   -1    0    0    0  501 -0.00000000000E+00 -0.00000000000E+00 -0.24369388866E+04  0.24369388866E+04  0.00000000000E+00 0.  1.
         23    2    1    2    0    0  0.68852644653E+03  0.61168089178E+02 -0.18681293254E+04  0.19940027979E+04  0.91267623339E+02 0.  0.
         13    1    3    3    0    0  0.37814331195E+03  0.77982189248E+02 -0.10058388896E+04  0.10773975394E+04  0.00000000000E+00 0.  1.
        -13    1    3    3    0    0  0.31038313457E+03 -0.16814100070E+02 -0.86229043584E+03  0.91660525851E+03  0.00000000000E+00 0. -1.
         22    1    1    2    0    0 -0.68852644653E+03 -0.61168089178E+02 -0.26974124245E+03  0.74200440739E+03  0.00000000000E+00 0. -1.
<mgrwt>
<rscale>  0 0.17074088E+04</rscale>
<asrwt>0</asrwt>
<pdfrwt beam="1">  1        2 0.46010511E-01 0.17074088E+04</pdfrwt>
<pdfrwt beam="2">  1       -2 0.37491367E+00 0.17074088E+04</pdfrwt>
<totfact> 0.11374384E+00</totfact>
</mgrwt>
</event>
<event>
 6    1  0.1831439E-005  0.2331890E+04  0.7818608E-02  0.8465453E-01
          2   -1    0    0  501    0  0.00000000000E+00  0.00000000000E+00  0.12067387149E+04  0.12067387149E+04  0.00000000000E+00 0. -1.
         -2   -1    0    0    0  501 -0.00000000000E+00 -0.00000000000E+00 -0.11265300763E+04  0.11265300763E+04  0.00000000000E+00 0.  1.
         23    2    1    2    0    0 -0.31741246015E+03 -0.10833675571E+04 -0.24456445757E+03  0.11585715972E+04  0.89668489965E+02 0.  0.
         13    1    3    3    0    0 -0.18096021368E+03 -0.46177203681E+03 -0.99301987944E+02  0.50580717445E+03  0.00000000000E+00 0.  1.
        -13    1    3    3    0    0 -0.13645224647E+03 -0.62159552033E+03 -0.14526246962E+03  0.65276442270E+03  0.00000000000E+00 0. -1.
         22    1    1    2    0    0  0.31741246015E+03  0.10833675571E+04  0.32477309613E+03  0.11746971940E+04  0.00000000000E+00 0. -1.
<mgrwt>
<rscale>  0 0.23318898E+04</rscale>
<asrwt>0</asrwt>
<pdfrwt beam="1">  1        2 0.18565211E+00 0.23318898E+04</pdfrwt>
<pdfrwt beam="2">  1       -2 0.17331232E+00 0.23318898E+04</pdfrwt>
<totfact> 0.34266679E+00</totfact>
</mgrwt>
</event>
<event>
 6    1  0.1831439E-005  0.1573445E+04  0.7818608E-02  0.8837030E-01
         -1   -1    0    0    0  501 -0.00000000000E+00  0.00000000000E+00  0.73255893594E+03  0.73255893594E+03  0.00000000000E+00 0.  1.
          1   -1    0    0  501    0  0.00000000000E+00 -0.00000000000E+00 -0.84489125101E+03  0.84489125101E+03  0.00000000000E+00 0. -1.
         23    2    1    2    0    0 -0.37191347471E+03 -0.95119206790E+02  0.62897505254E+03  0.74264247888E+03  0.92417198328E+02 0.  0.
         11    1    3    3    0    0 -0.17488749391E+03 -0.11054416212E+01  0.24630274570E+03  0.30207929434E+03  0.00000000000E+00 0.  1.
        -11    1    3    3    0    0 -0.19702598079E+03 -0.94013765169E+02  0.38267230684E+03  0.44056318454E+03  0.00000000000E+00 0. -1.
         22    1    1    2    0    0  0.37191347471E+03  0.95119206790E+02 -0.74130736762E+03  0.83480770807E+03  0.00000000000E+00 0. -1.
<mgrwt>
<rscale>  0 0.15734454E+04</rscale>
<asrwt>0</asrwt>
<pdfrwt beam="1">  1        1 0.12998327E+00 0.15734454E+04</pdfrwt>
<pdfrwt beam="2">  1       -1 0.11270137E+00 0.15734454E+04</pdfrwt>
<totfact> 0.14017324E+01</totfact>
</mgrwt>
</event>
<event>
 6    1  0.1831439E-005  0.3378786E+04  0.7818608E-02  0.8143133E-01
          2   -1    0    0  501    0  0.00000000000E+00  0.00000000000E+00  0.12921486152E+04  0.12921486152E+04  0.00000000000E+00 0.  1.
         -2   -1    0    0    0  501 -0.00000000000E+00 -0.00000000000E+00 -0.22087621873E+04  0.22087621873E+04  0.00000000000E+00 0. -1.
         23    2    1    2    0    0  0.11511486176E+04  0.47674288750E+03  0.72156334399E+03  0.14427440140E+04  0.91813452514E+02 0.  0.
         11    1    3    3    0    0  0.51779369506E+03  0.20660315717E+03  0.37508466575E+03  0.67192535424E+03  0.00000000000E+00 0.  1.
        -11    1    3    3    0    0  0.63335492253E+03  0.27013973033E+03  0.34647867825E+03  0.77081865979E+03  0.00000000000E+00 0. -1.
         22    1    1    2    0    0 -0.11511486176E+04 -0.47674288750E+03 -0.16381769162E+04  0.20581667885E+04  0.00000000000E+00 0. -1.
<mgrwt>
<rscale>  0 0.33787862E+04</rscale>
<asrwt>0</asrwt>
<pdfrwt beam="1">  1        2 0.19879210E+00 0.33787862E+04</pdfrwt>
<pdfrwt beam="2">  1       -2 0.33980956E+00 0.33787862E+04</pdfrwt>
<totfact> 0.24989601E-01</totfact>
</mgrwt>
</event>
<event>
 6    1  0.3917660E-005  0.2955551E+04  0.7818608E-02  0.8256539E-01
          2   -1    0    0  501    0  0.00000000000E+00  0.00000000000E+00  0.21770628006E+04  0.21770628006E+04  0.00000000000E+00 0. -1.
         -2   -1    0    0    0  501 -0.00000000000E+00 -0.00000000000E+00 -0.10031038574E+04  0.10031038574E+04  0.00000000000E+00 0.  1.
         23    2    1    2    0    0  0.40479336152E+03 -0.14171541341E+04  0.68083050091E+03  0.16260240758E+04  0.90777853766E+02 0.  0.
         13    1    3    3    0    0  0.24015914798E+03 -0.93365808275E+03  0.40640280634E+03  0.10462108166E+04  0.00000000000E+00 0. -1.
        -13    1    3    3    0    0  0.16463421353E+03 -0.48349605135E+03  0.27442769457E+03  0.57981325915E+03  0.00000000000E+00 0.  1.
         22    1    1    2    0    0 -0.40479336152E+03  0.14171541341E+04  0.49312844230E+03  0.15541425822E+04  0.00000000000E+00 0.  1.
<mgrwt>
<rscale>  0 0.29555508E+04</rscale>
<asrwt>0</asrwt>
<pdfrwt beam="1">  1        2 0.33493274E+00 0.29555508E+04</pdfrwt>
<pdfrwt beam="2">  1       -2 0.15432367E+00 0.29555508E+04</pdfrwt>
<totfact> 0.12694196E+00</totfact>
</mgrwt>
</event>
<event>
 6    1  0.1831439E-005  0.1931234E+04  0.7818608E-02  0.8639464E-01
         -2   -1    0    0    0  501 -0.00000000000E+00  0.00000000000E+00  0.34987850880E+03  0.34987850880E+03  0.00000000000E+00 0.  1.
          2   -1    0    0  501    0  0.00000000000E+00 -0.00000000000E+00 -0.26649712200E+04  0.26649712200E+04  0.00000000000E+00 0. -1.
         23    2    1    2    0    0  0.82670380951E+03  0.30392036610E+03 -0.17696558459E+04  0.19788438641E+04  0.91293198342E+02 0.  0.
         13    1    3    3    0    0  0.59105245372E+03  0.18478208259E+03 -0.13026971247E+04  0.14423963463E+04  0.00000000000E+00 0. -1.
        -13    1    3    3    0    0  0.23565135578E+03  0.11913828351E+03 -0.46695872120E+03  0.53644751783E+03  0.00000000000E+00 0.  1.
         22    1    1    2    0    0 -0.82670380951E+03 -0.30392036610E+03 -0.54543686525E+03  0.10360058646E+04  0.00000000000E+00 0.  1.
<mgrwt>
<rscale>  0 0.19312340E+04</rscale>
<asrwt>0</asrwt>
<pdfrwt beam="1">  1        2 0.40999555E+00 0.19312340E+04</pdfrwt>
<pdfrwt beam="2">  1       -2 0.53827465E-01 0.19312340E+04</pdfrwt>
<totfact> 0.84731362E+00</totfact>
</mgrwt>
</event>
<event>
 6    1  0.1831439E-005  0.2548140E+04  0.7818608E-02  0.8386033E-01
         -2   -1    0    0    0  501 -0.00000000000E+00  0.00000000000E+00  0.14135186206E+04  0.14135186206E+04  0.00000000000E+00 0.  1.
          2   -1    0    0  501    0  0.00000000000E+00 -0.00000000000E+00 -0.11483781432E+04  0.11483781432E+04  0.00000000000E+00 0. -1.
         23    2    1    2    0    0  0.55495693941E+03 -0.49465854341E+03  0.11708452102E+04  0.13901607261E+04  0.94889719677E+02 0.  0.
         11    1    3    3    0    0  0.29317813076E+03 -0.21009766123E+03  0.61719744701E+03  0.71486161752E+03  0.00000000000E+00 0. -1.
        -11    1    3    3    0    0  0.26177880865E+03 -0.28456088218E+03  0.55364776321E+03  0.67529910857E+03  0.00000000000E+00 0.  1.
         22    1    1    2    0    0 -0.55495693941E+03  0.49465854341E+03 -0.90570473279E+03  0.11717360378E+04  0.00000000000E+00 0. -1.
<mgrwt>
<rscale>  0 0.25481396E+04</rscale>
<asrwt>0</asrwt>
<pdfrwt beam="1">  1        2 0.17667356E+00 0.25481396E+04</pdfrwt>
<pdfrwt beam="2">  1       -2 0.21746440E+00 0.25481396E+04</pdfrwt>
<totfact> 0.18539886E+00</totfact>
</mgrwt>
</event>
<event>
 6    1  0.1831439E-005  0.1793497E+04  0.7818608E-02  0.8709765E-01
          2   -1    0    0  501    0  0.00000000000E+00  0.00000000000E+00  0.18765849938E+04  0.18765849938E+04  0.00000000000E+00 0.  1.
         -2   -1    0    0    0  501 -0.00000000000E+00 -0.00000000000E+00 -0.42852188123E+03  0.42852188123E+03  0.00000000000E+00 0. -1.
         23    2    1    2    0    0 -0.21699562905E+03  0.34072716467E+03  0.17515569440E+04  0.17998439638E+04  0.91128823150E+02 0.  0.
         13    1    3    3    0    0 -0.33192644670E+02  0.12525661725E+03  0.61840789101E+03  0.63183802630E+03  0.00000000000E+00 0.  1.
        -13    1    3    3    0    0 -0.18380298438E+03  0.21547054743E+03  0.11331490530E+04  0.11680059375E+04  0.00000000000E+00 0. -1.
         22    1    1    2    0    0  0.21699562905E+03 -0.34072716467E+03 -0.30349383137E+03  0.50526291122E+03  0.00000000000E+00 0. -1.
<mgrwt>
<rscale>  0 0.17934968E+04</rscale>
<asrwt>0</asrwt>
<pdfrwt beam="1">  1        2 0.28870538E+00 0.17934968E+04</pdfrwt>
<pdfrwt beam="2">  1       -2 0.65926444E-01 0.17934968E+04</pdfrwt>
<totfact> 0.15648191E+01</totfact>
</mgrwt>
</event>
<event>
 6    1  0.1831439E-005  0.1936164E+04  0.7818608E-02  0.8637062E-01
         -2   -1    0    0    0  501 -0.00000000000E+00  0.00000000000E+00  0.29054569903E+03  0.29054569903E+03  0.00000000000E+00 0.  1.
          2   -1    0    0  501    0  0.00000000000E+00 -0.00000000000E+00 -0.32255940699E+04  0.32255940699E+04  0.00000000000E+00 0. -1.
         23    2    1    2    0    0  0.59226269269E+02  0.42739811180E+03 -0.30402298782E+04  0.30720226150E+04  0.90268144465E+02 0.  0.
         13    1    3    3    0    0 -0.10144975716E+02  0.23329882558E+03 -0.17264535498E+04  0.17421748254E+04  0.00000000000E+00 0. -1.
        -13    1    3    3    0    0  0.69371244985E+02  0.19409928622E+03 -0.13137763284E+04  0.13298477896E+04  0.00000000000E+00 0.  1.
         22    1    1    2    0    0 -0.59226269269E+02 -0.42739811180E+03  0.10518150731E+03  0.44411715394E+03  0.00000000000E+00 0.  1.
<mgrwt>
<rscale>  0 0.19361637E+04</rscale>
<asrwt>0</asrwt>
<pdfrwt beam="1">  1        2 0.49624524E+00 0.19361637E+04</pdfrwt>
<pdfrwt beam="2">  1       -2 0.44699339E-01 0.19361637E+04</pdfrwt>
<totfact> 0.55537170E+00</totfact>
</mgrwt>
</event>
<event>
 6    1  0.1831439E-005  0.1536653E+04  0.7818608E-02  0.8860439E-01
         -2   -1    0    0    0  501 -0.00000000000E+00  0.00000000000E+00  0.45818530195E+03  0.45818530195E+03  0.00000000000E+00 0.  1.
          2   -1    0    0  501    0  0.00000000000E+00 -0.00000000000E+00 -0.12883988497E+04  0.12883988497E+04  0.00000000000E+00 0. -1.
         23    2    1    2    0    0  0.57668343601E+03  0.50350900888E+03 -0.41262560397E+03  0.87453782365E+03  0.92040255089E+02 0.  0.
         13    1    3    3    0    0  0.71640675279E+02  0.30613193380E+02 -0.27031427885E+02  0.82463640817E+02  0.00000000000E+00 0. -1.
        -13    1    3    3    0    0  0.50504276073E+03  0.47289581550E+03 -0.38559417608E+03  0.79207418284E+03  0.00000000000E+00 0.  1.
         22    1    1    2    0    0 -0.57668343601E+03 -0.50350900888E+03 -0.41758794381E+03  0.87204632802E+03  0.00000000000E+00 0. -1.
<mgrwt>
<rscale>  0 0.15366527E+04</rscale>
<asrwt>0</asrwt>
<pdfrwt beam="1">  1        2 0.19821520E+00 0.15366527E+04</pdfrwt>
<pdfrwt beam="2">  1       -2 0.70490048E-01 0.15366527E+04</pdfrwt>
<totfact> 0.29621545E+01</totfact>
</mgrwt>
</event>
<event>
 6    1  0.1831439E-005  0.9826385E+03  0.7818608E-02  0.9327794E-01
          2   -1    0    0  501    0  0.00000000000E+00  0.00000000000E+00  0.36105142851E+04  0.36105142851E+04  0.00000000000E+00 0. -1.
         -2   -1    0    0    0  501 -0.00000000000E+00 -0.00000000000E+00 -0.66858789961E+02  0.66858789961E+02  0.00000000000E+00 0.  1.
         23    2    1    2    0    0  0.96209452056E+02 -0.33937863075E+03  0.30431591227E+04  0.30650571987E+04  0.96561230891E+02 0.  0.
         13    1    3    3    0    0  0.19434043562E+02 -0.11894744866E+03  0.69995276134E+03  0.71025350805E+03  0.00000000000E+00 0.  1.
        -13    1    3    3    0    0  0.76775408494E+02 -0.22043118209E+03  0.23432063614E+04  0.23548036906E+04  0.00000000000E+00 0. -1.
         22    1    1    2    0    0 -0.96209452056E+02  0.33937863075E+03  0.50049637246E+03  0.61231587642E+03  0.00000000000E+00 0.  1.
<mgrwt>
<rscale>  0 0.98263852E+03</rscale>
<asrwt>0</asrwt>
<pdfrwt beam="1">  1        2 0.55546358E+00 0.98263852E+03</pdfrwt>
<pdfrwt beam="2">  1       -2 0.10285971E-01 0.98263852E+03</pdfrwt>
<totfact> 0.46574596E+01</totfact>
</mgrwt>
</event>
<event>
 6    1  0.1831439E-005  0.3968938E+04  0.7818608E-02  0.8010842E-01
          3   -1    0    0  501    0  0.00000000000E+00  0.00000000000E+00  0.11864879637E+04  0.11864879637E+04  0.00000000000E+00 0.  1.
         -3   -1    0    0    0  501 -0.00000000000E+00 -0.00000000000E+00 -0.33191382799E+04  0.33191382799E+04  0.00000000000E+00 0. -1.
         23    2    1    2    0    0  0.10597538968E+04 -0.16573908639E+04 -0.77954038089E+03  0.21179643549E+04  0.89816511404E+02 0.  0.
         11    1    3    3    0    0  0.45784080896E+03 -0.79868732553E+03 -0.36988516418E+03  0.99213642459E+03  0.00000000000E+00 0. -1.
        -11    1    3    3    0    0  0.60191308785E+03 -0.85870353835E+03 -0.40965521671E+03  0.11258279303E+04  0.00000000000E+00 0.  1.
         22    1    1    2    0    0 -0.10597538968E+04  0.16573908639E+04 -0.13531099353E+04  0.23876618887E+04  0.00000000000E+00 0. -1.
<mgrwt>
<rscale>  0 0.39689382E+04</rscale>
<asrwt>0</asrwt>
<pdfrwt beam="1">  1        3 0.18253661E+00 0.39689382E+04</pdfrwt>
<pdfrwt beam="2">  1       -3 0.51063665E+00 0.39689382E+04</pdfrwt>
<totfact> 0.10390678E-03</totfact>
</mgrwt>
</event>
<event>
 6    1  0.1831439E-005  0.3495248E+04  0.7818608E-02  0.8114917E-01
         -2   -1    0    0    0  501 -0.00000000000E+00  0.00000000000E+00  0.13932748141E+04  0.13932748141E+04  0.00000000000E+00 0.  1.
          2   -1    0    0  501    0  0.00000000000E+00 -0.00000000000E+00 -0.21920938105E+04  0.21920938105E+04  0.00000000000E+00 0. -1.
         23    2    1    2    0    0 -0.11458335185E+04  0.11346289788E+04  0.28778891717E+03  0.16408804838E+04  0.96689863464E+02 0.  0.
         13    1    3    3    0    0 -0.62340606285E+03  0.68122781541E+03  0.17980416992E+03  0.94076351715E+03  0.00000000000E+00 0.  1.
        -13    1    3    3    0    0 -0.52242745567E+03  0.45340116340E+03  0.10798474726E+03  0.70011696669E+03  0.00000000000E+00 0. -1.
         22    1    1    2    0    0  0.11458335185E+04 -0.11346289788E+04 -0.10866079135E+04  0.19444881407E+04  0.00000000000E+00 0.  1.
<mgrwt>
<rscale>  0 0.34952477E+04</rscale>
<asrwt>0</asrwt>
<pdfrwt beam="1">  1        2 0.33724520E+00 0.34952477E+04</pdfrwt>
<pdfrwt beam="2">  1       -2 0.21434997E+00 0.34952477E+04</pdfrwt>
<totfact> 0.46049155E-01</totfact>
</mgrwt>
</event>
<event>
 6    1  0.1831439E-005  0.1420335E+04  0.7818608E-02  0.8939229E-01
          2   -1    0    0  501    0  0.00000000000E+00  0.00000000000E+00  0.12304805979E+04  0.12304805979E+04  0.00000000000E+00 0. -1.
         -2   -1    0    0    0  501 -0.00000000000E+00 -0.00000000000E+00 -0.40987050308E+03  0.40987050308E+03  0.00000000000E+00 0.  1.
         23    2    1    2    0    0 -0.11552647696E+03 -0.99441986447E+02  0.12096455681E+04  0.12225189876E+04  0.89862111424E+02 0.  0.
         13    1    3    3    0    0 -0.27062663719E+02 -0.82272789030E+02  0.56217754585E+03  0.56880997938E+03  0.00000000000E+00 0.  1.
        -13    1    3    3    0    0 -0.88463813240E+02 -0.17169197417E+02  0.64746802224E+03  0.65370900822E+03  0.00000000000E+00 0. -1.
         22    1    1    2    0    0  0.11552647696E+03  0.99441986447E+02 -0.38903547325E+03  0.41783211341E+03  0.00000000000E+00 0.  1.
<mgrwt>
<rscale>  0 0.14203348E+04</rscale>
<asrwt>0</asrwt>
<pdfrwt beam="1">  1        2 0.18930471E+00 0.14203348E+04</pdfrwt>
<pdfrwt beam="2">  1       -2 0.63057001E-01 0.14203348E+04</pdfrwt>
<totfact> 0.41134842E+01</totfact>
</mgrwt>
</event>
<event>
 6    1  0.1831439E-005  0.2626700E+04  0.7818608E-02  0.8359188E-01
         -1   -1    0    0    0  501 -0.00000000000E+00  0.00000000000E+00  0.68416372524E+03  0.68416372524E+03  0.00000000000E+00 0.  1.
          1   -1    0    0  501    0  0.00000000000E+00 -0.00000000000E+00 -0.25211630542E+04  0.25211630542E+04  0.00000000000E+00 0. -1.
         23    2    1    2    0    0  0.47403575986E+03  0.92928808351E+03 -0.18900410075E+04  0.21607696181E+04  0.91564667604E+02 0.  0.
         13    1    3    3    0    0  0.14026251883E+03  0.32915935935E+03 -0.72287466544E+03  0.80657748541E+03  0.00000000000E+00 0. -1.
        -13    1    3    3    0    0  0.33377324103E+03  0.60012872416E+03 -0.11671663421E+04  0.13541921326E+04  0.00000000000E+00 0.  1.
         22    1    1    2    0    0 -0.47403575986E+03 -0.92928808351E+03  0.53041678563E+02  0.10445571614E+04  0.00000000000E+00 0.  1.
<mgrwt>
<rscale>  0 0.26267001E+04</rscale>
<asrwt>0</asrwt>
<pdfrwt beam="1">  1        1 0.38787124E+00 0.26267001E+04</pdfrwt>
<pdfrwt beam="2">  1       -1 0.10525596E+00 0.26267001E+04</pdfrwt>
<totfact> 0.97377414E-01</totfact>
</mgrwt>
</event>
<event>
 6    1  0.1831439E-005  0.4009820E+04  0.7818608E-02  0.8002568E-01
         -2   -1    0    0    0  501 -0.00000000000E+00  0.00000000000E+00  0.34453193175E+04  0.34453193175E+04  0.00000000000E+00 0.  1.
          2   -1    0    0  501    0  0.00000000000E+00 -0.00000000000E+00 -0.11667030103E+04  0.11667030103E+04  0.00000000000E+00 0. -1.
         23    2    1    2    0    0 -0.73654699101E+01 -0.18101341073E+04  0.15187617790E+03  0.18192345961E+04  0.99540975697E+02 0.  0.
         11    1    3    3    0    0  0.33647812429E+02 -0.34205591133E+03  0.11647103193E+02  0.34390416800E+03  0.00000000000E+00 0.  1.
        -11    1    3    3    0    0 -0.41013282340E+02 -0.14680781960E+04  0.14022907470E+03  0.14753304281E+04  0.00000000000E+00 0. -1.
         22    1    1    2    0    0  0.73654699101E+01  0.18101341073E+04  0.21267401293E+04  0.27927877317E+04  0.00000000000E+00 0.  1.
<mgrwt>
<rscale>  0 0.40098202E+04</rscale>
<asrwt>0</asrwt>
<pdfrwt beam="1">  1        2 0.17949277E+00 0.40098202E+04</pdfrwt>
<pdfrwt beam="2">  1       -2 0.53004912E+00 0.40098202E+04</pdfrwt>
<totfact> 0.17125442E-02</totfact>
</mgrwt>
</event>
<event>
 6    1  0.1831439E-005  0.2422755E+04  0.7818608E-02  0.8431033E-01
         -1   -1    0    0    0  501 -0.00000000000E+00  0.00000000000E+00  0.78900075286E+03  0.78900075286E+03  0.00000000000E+00 0.  1.
          1   -1    0    0  501    0  0.00000000000E+00 -0.00000000000E+00 -0.18598652653E+04  0.18598652653E+04  0.00000000000E+00 0. -1.
         23    2    1    2    0    0  0.20111999886E+03 -0.11925030406E+04 -0.56642101026E+03  0.13385317086E+04  0.91222903978E+02 0.  0.
         11    1    3    3    0    0  0.33587585052E+02 -0.43473478712E+03 -0.18230206644E+03  0.47260607743E+03  0.00000000000E+00 0. -1.
        -11    1    3    3    0    0  0.16753241381E+03 -0.75776825351E+03 -0.38411894382E+03  0.86592563116E+03  0.00000000000E+00 0.  1.
         22    1    1    2    0    0 -0.20111999886E+03  0.11925030406E+04 -0.50444350213E+03  0.13103343095E+04  0.00000000000E+00 0. -1.
<mgrwt>
<rscale>  0 0.24227547E+04</rscale>
<asrwt>0</asrwt>
<pdfrwt beam="1">  1        1 0.28613312E+00 0.24227547E+04</pdfrwt>
<pdfrwt beam="2">  1       -1 0.12138473E+00 0.24227547E+04</pdfrwt>
<totfact> 0.19966164E+00</totfact>
</mgrwt>
</event>
<event>
 6    1  0.1831439E-005  0.1289491E+04  0.7818608E-02  0.9037940E-01
          2   -1    0    0  501    0  0.00000000000E+00  0.00000000000E+00  0.38690932306E+03  0.38690932306E+03  0.00000000000E+00 0. -1.
         -2   -1    0    0    0  501 -0.00000000000E+00 -0.00000000000E+00 -0.10744039976E+04  0.10744039976E+04  0.00000000000E+00 0.  1.
         23    2    1    2    0    0  0.27642639618E+03  0.32481393429E+03  0.19775162955E+03  0.47867571538E+03  0.90050480839E+02 0.  0.
         11    1    3    3    0    0  0.68837345812E+02  0.52506549978E+02  0.73492490120E+01  0.86888028118E+02  0.00000000000E+00 0. -1.
        -11    1    3    3    0    0  0.20758905037E+03  0.27230738431E+03  0.19040238053E+03  0.39178768727E+03  0.00000000000E+00 0.  1.
         22    1    1    2    0    0 -0.27642639618E+03 -0.32481393429E+03 -0.88524630406E+03  0.98263760525E+03  0.00000000000E+00 0.  1.
<mgrwt>
<rscale>  0 0.12894913E+04</rscale>
<asrwt>0</asrwt>
<pdfrwt beam="1">  1        2 0.59524511E-01 0.12894913E+04</pdfrwt>
<pdfrwt beam="2">  1       -2 0.16529292E+00 0.12894913E+04</pdfrwt>
<totfact> 0.18635546E+01</totfact>
</mgrwt>
</event>
<event>
 6    1  0.1831439E-005  0.3309857E+04  0.7818608E-02  0.8160392E-01
          2   -1    0    0  501    0  0.00000000000E+00  0.00000000000E+00  0.33123540664E+04  0.33123540664E+04  0.00000000000E+00 0. -1.
         -2   -1    0    0    0  501 -0.00000000000E+00 -0.00000000000E+00 -0.82684039030E+03  0.82684039030E+03  0.00000000000E+00 0.  1.
         23    2    1    2    0    0 -0.13595232091E+03  0.10484824513E+04 -0.34648923371E+03  0.11162755088E+04  0.90651742101E+02 0.  0.
         11    1    3    3    0    0 -0.11517224446E+03  0.63846267299E+03 -0.24396086206E+03  0.69312057602E+03  0.00000000000E+00 0. -1.
        -11    1    3    3    0    0 -0.20780076451E+02  0.41001977829E+03 -0.10252837165E+03  0.42315493281E+03  0.00000000000E+00 0.  1.
         22    1    1    2    0    0  0.13595232091E+03 -0.10484824513E+04  0.28320029099E+04  0.30229189479E+04  0.00000000000E+00 0. -1.
<mgrwt>
<rscale>  0 0.33098569E+04</rscale>
<asrwt>0</asrwt>
<pdfrwt beam="1">  1        2 0.50959293E+00 0.33098569E+04</pdfrwt>
<pdfrwt beam="2">  1       -2 0.12720622E+00 0.33098569E+04</pdfrwt>
<totfact> 0.41797799E-01</totfact>
</mgrwt>
</event>
<event>
 6    1  0.1831439E-005  0.1706790E+04  0.7818608E-02  0.8757501E-01
          2   -1    0    0  501    0  0.00000000000E+00  0.00000000000E+00  0.26411909051E+04  0.26411909051E+04  0.00000000000E+00 0. -1.
         -2   -1    0    0    0  501 -0.00000000000E+00 -0.00000000000E+00 -0.27574033490E+03  0.27574033490E+03  0.00000000000E+00 0.  1.
         23    2    1    2    0    0  0.33697564798E+03  0.38952319113E+03  0.28602083925E+02  0.52399543820E+03  0.92044751543E+02 0.  0.
         13    1    3    3    0    0  0.12635000786E+03  0.82693581865E+02  0.52108236427E+01  0.15109502192E+03  0.00000000000E+00 0. -1.
        -13    1    3    3    0    0  0.21062564012E+03  0.30682960927E+03  0.23391260283E+02  0.37290041627E+03  0.00000000000E+00 0.  1.
         22    1    1    2    0    0 -0.33697564798E+03 -0.38952319113E+03  0.23368484862E+04  0.23929358018E+04  0.00000000000E+00 0. -1.
<mgrwt>
<rscale>  0 0.17067898E+04</rscale>
<asrwt>0</asrwt>
<pdfrwt beam="1">  1        2 0.40633704E+00 0.17067898E+04</pdfrwt>
<pdfrwt beam="2">  1       -2 0.42421592E-01 0.17067898E+04</pdfrwt>
<totfact> 0.14449653E+01</totfact>
</mgrwt>
</event>
<event>
 6    1  0.1831439E-005  0.3841246E+04  0.7818608E-02  0.8037361E-01
         -3   -1    0    0    0  501 -0.00000000000E+00  0.00000000000E+00  0.14529349558E+04  0.14529349558E+04  0.00000000000E+00 0.  1.
          3   -1    0    0  501    0  0.00000000000E+00 -0.00000000000E+00 -0.25388564704E+04  0.25388564704E+04  0.00000000000E+00 0. -1.
         23    2    1    2    0    0  0.21167117052E+03 -0.14971456170E+04 -0.17721477409E+04  0.23313227826E+04  0.91151622077E+02 0.  0.
         11    1    3    3    0    0  0.97207472127E+02 -0.91061820951E+03 -0.11209492597E+04  0.14474812811E+04  0.00000000000E+00 0. -1.
        -11    1    3    3    0    0  0.11446369840E+03 -0.58652740746E+03 -0.65119848120E+03  0.88384150155E+03  0.00000000000E+00 0.  1.
         22    1    1    2    0    0 -0.21167117052E+03  0.14971456170E+04  0.68622622627E+03  0.16604686436E+04  0.00000000000E+00 0.  1.
<mgrwt>
<rscale>  0 0.38412463E+04</rscale>
<asrwt>0</asrwt>
<pdfrwt beam="1">  1        3 0.39059330E+00 0.38412463E+04</pdfrwt>
<pdfrwt beam="2">  1       -3 0.22352846E+00 0.38412463E+04</pdfrwt>
<totfact> 0.26963596E-03</totfact>
</mgrwt>
</event>
<event>
 6    1  0.1831439E-005  0.2557695E+04  0.7818608E-02  0.8382715E-01
         -1   -1    0    0    0  501 -0.00000000000E+00  0.00000000000E+00  0.13905094008E+04  0.13905094008E+04  0.00000000000E+00 0.  1.
          1   -1    0    0  501    0  0.00000000000E+00 -0.00000000000E+00 -0.11761526291E+04  0.11761526291E+04  0.00000000000E+00 0. -1.
         23    2    1    2    0    0  0.44518838665E+03 -0.67064905116E+02 -0.10921382631E+04  0.11847721366E+04  0.90711789248E+02 0.  0.
         11    1    3    3    0    0  0.15411273682E+03 -0.98406305574E+01 -0.27410961757E+03  0.31461668123E+03  0.00000000000E+00 0.  1.
        -11    1    3    3    0    0  0.29107564983E+03 -0.57224274558E+02 -0.81802864557E+03  0.87015545536E+03  0.00000000000E+00 0. -1.
         22    1    1    2    0    0 -0.44518838665E+03  0.67064905116E+02  0.13064950349E+04  0.13818898933E+04  0.00000000000E+00 0.  1.
<mgrwt>
<rscale>  0 0.25576953E+04</rscale>
<asrwt>0</asrwt>
<pdfrwt beam="1">  1        1 0.18094656E+00 0.25576953E+04</pdfrwt>
<pdfrwt beam="2">  1       -1 0.21392452E+00 0.25576953E+04</pdfrwt>
<totfact> 0.11892121E+00</totfact>
</mgrwt>
</event>
<event>
 6    1  0.1831439E-005  0.3723082E+04  0.7818608E-02  0.8062866E-01
          2   -1    0    0  501    0  0.00000000000E+00  0.00000000000E+00  0.24514250105E+04  0.24514250105E+04  0.00000000000E+00 0. -1.
         -2   -1    0    0    0  501 -0.00000000000E+00 -0.00000000000E+00 -0.14136003113E+04  0.14136003113E+04  0.00000000000E+00 0.  1.
         23    2    1    2    0    0 -0.40742323547E+03 -0.10636323428E+04  0.20463184314E+04  0.23437209272E+04  0.91110967735E+02 0.  0.
         13    1    3    3    0    0 -0.33259396054E+03 -0.81806986739E+03  0.16515564809E+04  0.18728309748E+04  0.00000000000E+00 0.  1.
        -13    1    3    3    0    0 -0.74829274931E+02 -0.24556247541E+03  0.39476195045E+03  0.47088995236E+03  0.00000000000E+00 0. -1.
         22    1    1    2    0    0  0.40742323547E+03  0.10636323428E+04 -0.10084937322E+04  0.15213043947E+04  0.00000000000E+00 0.  1.
<mgrwt>
<rscale>  0 0.37230821E+04</rscale>
<asrwt>0</asrwt>
<pdfrwt beam="1">  1        2 0.37714231E+00 0.37230821E+04</pdfrwt>
<pdfrwt beam="2">  1       -2 0.21747697E+00 0.37230821E+04</pdfrwt>
<totfact> 0.30729167E-01</totfact>
</mgrwt>
</event>
<event>
 6    1  0.1831439E-005  0.1204777E+04  0.7818608E-02  0.9108686E-01
         -1   -1    0    0    0  501 -0.00000000000E+00  0.00000000000E+00  0.24773531885E+03  0.24773531885E+03  0.00000000000E+00 0.  1.
          1   -1    0    0  501    0  0.00000000000E+00 -0.00000000000E+00 -0.14647558637E+04  0.14647558637E+04  0.00000000000E+00 0. -1.
         23    2    1    2    0    0 -0.49161232151E+03  0.21620453326E+03 -0.23504420616E+03  0.59324831141E+03  0.90943418010E+02 0.  0.
         13    1    3    3    0    0 -0.10121068480E+02 -0.83997568109E+01 -0.30304283905E+01  0.13497238158E+02  0.00000000000E+00 0.  1.
        -13    1    3    3    0    0 -0.48149125303E+03  0.22460429007E+03 -0.23201377777E+03  0.57975107325E+03  0.00000000000E+00 0. -1.
         22    1    1    2    0    0  0.49161232151E+03 -0.21620453326E+03 -0.98197633864E+03  0.11192428711E+04  0.00000000000E+00 0. -1.
<mgrwt>
<rscale>  0 0.12047768E+04</rscale>
<asrwt>0</asrwt>
<pdfrwt beam="1">  1        1 0.22534705E+00 0.12047768E+04</pdfrwt>
<pdfrwt beam="2">  1       -1 0.38113126E-01 0.12047768E+04</pdfrwt>
<totfact> 0.45544312E+01</totfact>
</mgrwt>
</event>
<event>
 6    1  0.1831439E-005  0.3496156E+04  0.7818608E-02  0.8114702E-01
          2   -1    0    0  501    0  0.00000000000E+00  0.00000000000E+00  0.12005065030E+04  0.12005065030E+04  0.00000000000E+00 0. -1.
         -2   -1    0    0    0  501 -0.00000000000E+00 -0.00000000000E+00 -0.25454058261E+04  0.25454058261E+04  0.00000000000E+00 0.  1.
         23    2    1    2    0    0  0.40351364240E+03  0.84747729652E+03 -0.22517721173E+04  0.24407459440E+04  0.75644346933E+02 0.  0.
         13    1    3    3    0    0  0.28023867825E+02  0.11039486541E+03 -0.30128329590E+03  0.32209313539E+03  0.00000000000E+00 0.  1.
        -13    1    3    3    0    0  0.37548977458E+03  0.73708243110E+03 -0.19504888214E+04  0.21186528087E+04  0.00000000000E+00 0. -1.
         22    1    1    2    0    0 -0.40351364240E+03 -0.84747729652E+03  0.90687279428E+03  0.13051663851E+04  0.00000000000E+00 0. -1.
<mgrwt>
<rscale>  0 0.34961557E+04</rscale>
<asrwt>0</asrwt>
<pdfrwt beam="1">  1        2 0.18469331E+00 0.34961557E+04</pdfrwt>
<pdfrwt beam="2">  1       -2 0.39160089E+00 0.34961557E+04</pdfrwt>
<totfact> 0.13090487E-01</totfact>
</mgrwt>
</event>
<event>
 6    1  0.1831439E-005  0.4313051E+04  0.7818608E-02  0.7944209E-01
          1   -1    0    0  501    0  0.00000000000E+00  0.00000000000E+00  0.41977150431E+04  0.41977150431E+04  0.00000000000E+00 0. -1.
         -1   -1    0    0    0  501 -0.00000000000E+00 -0.00000000000E+00 -0.11078887602E+04  0.11078887602E+04  0.00000000000E+00 0.  1.
         23    2    1    2    0    0 -0.13284262994E+04  0.14849300630E+04  0.25584139602E+04  0.32435337798E+04  0.72771311946E+02 0.  0.
         13    1    3    3    0    0 -0.58237224253E+03  0.63886450887E+03  0.11674017303E+04  0.14526293710E+04  0.00000000000E+00 0. -1.
        -13    1    3    3    0    0 -0.74605405689E+03  0.84606555412E+03  0.13910122299E+04  0.17909044088E+04  0.00000000000E+00 0.  1.
         22    1    1    2    0    0  0.13284262994E+04 -0.14849300630E+04  0.53141232272E+03  0.20620700235E+04  0.00000000000E+00 0.  1.
<mgrwt>
<rscale>  0 0.43130506E+04</rscale>
<asrwt>0</asrwt>
<pdfrwt beam="1">  1        1 0.64580231E+00 0.43130506E+04</pdfrwt>
<pdfrwt beam="2">  1       -1 0.17044443E+00 0.43130506E+04</pdfrwt>
<totfact> 0.11788690E-02</totfact>
</mgrwt>
</event>
<event>
 6    1  0.1831439E-005  0.1663971E+04  0.7818608E-02  0.8782184E-01
         -2   -1    0    0    0  501 -0.00000000000E+00  0.00000000000E+00  0.43581161690E+03  0.43581161690E+03  0.00000000000E+00 0.  1.
          2   -1    0    0  501    0  0.00000000000E+00 -0.00000000000E+00 -0.15882999938E+04  0.15882999938E+04  0.00000000000E+00 0. -1.
         23    2    1    2    0    0 -0.99698029583E+02  0.80723919267E+03 -0.77589923399E+03  0.11277890160E+04  0.91179120268E+02 0.  0.
         11    1    3    3    0    0 -0.23303452250E+02  0.82017120582E+02 -0.49956587025E+02  0.98820643301E+02  0.00000000000E+00 0. -1.
        -11    1    3    3    0    0 -0.76394577333E+02  0.72522207209E+03 -0.72594264696E+03  0.10289683727E+04  0.00000000000E+00 0.  1.
         22    1    1    2    0    0  0.99698029583E+02 -0.80723919267E+03 -0.37658914295E+03  0.89632259476E+03  0.00000000000E+00 0.  1.
<mgrwt>
<rscale>  0 0.16639707E+04</rscale>
<asrwt>0</asrwt>
<pdfrwt beam="1">  1        2 0.24435384E+00 0.16639707E+04</pdfrwt>
<pdfrwt beam="2">  1       -2 0.67047942E-01 0.16639707E+04</pdfrwt>
<totfact> 0.22054632E+01</totfact>
</mgrwt>
</event>
<event>
 6    1  0.1831439E-005  0.2351761E+04  0.7818608E-02  0.8457788E-01
         -2   -1    0    0    0  501 -0.00000000000E+00  0.00000000000E+00  0.18195848651E+04  0.18195848651E+04  0.00000000000E+00 0.  1.
          2   -1    0    0  501    0  0.00000000000E+00 -0.00000000000E+00 -0.75989585363E+03  0.75989585363E+03  0.00000000000E+00 0. -1.
         23    2    1    2    0    0  0.32777492503E+03 -0.19595315771E+03  0.17485532818E+04  0.17918462703E+04  0.86257959385E+02 0.  0.
         13    1    3    3    0    0  0.20879357648E+03 -0.16991842517E+03  0.11606858311E+04  0.11914942834E+04  0.00000000000E+00 0. -1.
        -13    1    3    3    0    0  0.11898134855E+03 -0.26034732534E+02  0.58786745070E+03  0.60035198692E+03  0.00000000000E+00 0.  1.
         22    1    1    2    0    0 -0.32777492503E+03  0.19595315771E+03 -0.68886427031E+03  0.78763444846E+03  0.00000000000E+00 0. -1.
<mgrwt>
<rscale>  0 0.23517610E+04</rscale>
<asrwt>0</asrwt>
<pdfrwt beam="1">  1        2 0.11690705E+00 0.23517610E+04</pdfrwt>
<pdfrwt beam="2">  1       -2 0.27993613E+00 0.23517610E+04</pdfrwt>
<totfact> 0.14029456E+00</totfact>
</mgrwt>
</event>
<event>
 6    1  0.1831439E-005  0.2889561E+04  0.7818608E-02  0.8275990E-01
         -1   -1    0    0    0  501 -0.00000000000E+00  0.00000000000E+00  0.14231987309E+04  0.14231987309E+04  0.00000000000E+00 0.  1.
          1   -1    0    0  501    0  0.00000000000E+00 -0.00000000000E+00 -0.14666895984E+04  0.14666895984E+04  0.00000000000E+00 0. -1.
         23    2    1    2    0    0  0.10120291849E+04  0.32476628780E+03  0.95499043023E+03  0.14315875666E+04  0.88091011593E+02 0.  0.
         11    1    3    3    0    0  0.77202445005E+03  0.20773914357E+03  0.71774333847E+03  0.10743988101E+04  0.00000000000E+00 0. -1.
        -11    1    3    3    0    0  0.24000473480E+03  0.11702714422E+03  0.23724709177E+03  0.35718875649E+03  0.00000000000E+00 0.  1.
         22    1    1    2    0    0 -0.10120291849E+04 -0.32476628780E+03 -0.99848129765E+03  0.14583007627E+04  0.00000000000E+00 0. -1.
<mgrwt>
<rscale>  0 0.28895611E+04</rscale>
<asrwt>0</asrwt>
<pdfrwt beam="1">  1        1 0.22564455E+00 0.28895611E+04</pdfrwt>
<pdfrwt beam="2">  1       -1 0.21895365E+00 0.28895611E+04</pdfrwt>
<totfact> 0.66303096E-01</totfact>
</mgrwt>
</event>
<event>
 6    1  0.1831439E-005  0.2454117E+04  0.7818608E-02  0.8419516E-01
         -2   -1    0    0    0  501 -0.00000000000E+00  0.00000000000E+00  0.76148056337E+03  0.76148056337E+03  0.00000000000E+00 0.  1.
          2   -1    0    0  501    0  0.00000000000E+00 -0.00000000000E+00 -0.19772967647E+04  0.19772967647E+04  0.00000000000E+00 0. -1.
         23    2    1    2    0    0  0.40021094534E+03  0.13696913119E+03 -0.18921901114E+04  0.19410236005E+04  0.90883750886E+02 0.  0.
         13    1    3    3    0    0  0.31040201893E+03  0.13824546851E+03 -0.13951531561E+04  0.14359364721E+04  0.00000000000E+00 0. -1.
        -13    1    3    3    0    0  0.89808926411E+02 -0.12763373208E+01 -0.49703695532E+03  0.50508712838E+03  0.00000000000E+00 0.  1.
         22    1    1    2    0    0 -0.40021094534E+03 -0.13696913119E+03  0.67637391008E+03  0.79775372760E+03  0.00000000000E+00 0.  1.
<mgrwt>
<rscale>  0 0.24541174E+04</rscale>
<asrwt>0</asrwt>
<pdfrwt beam="1">  1        2 0.30419949E+00 0.24541174E+04</pdfrwt>
<pdfrwt beam="2">  1       -2 0.11715086E+00 0.24541174E+04</pdfrwt>
<totfact> 0.34699451E+00</totfact>
</mgrwt>
</event>
<event>
 6    1  0.1831439E-005  0.5998525E+04  0.7818608E-02  0.7690585E-01
          2   -1    0    0  501    0  0.00000000000E+00  0.00000000000E+00  0.30396668589E+04  0.30396668589E+04  0.00000000000E+00 0. -1.
         -2   -1    0    0    0  501 -0.00000000000E+00 -0.00000000000E+00 -0.29593956205E+04  0.29593956205E+04  0.00000000000E+00 0.  1.
         23    2    1    2    0    0 -0.70236562648E+03  0.23605685462E+04 -0.16705314115E+04  0.29773227068E+04  0.90410002777E+02 0.  0.
         11    1    3    3    0    0 -0.32265202631E+03  0.92990589412E+03 -0.67253392142E+03  0.11921120658E+04  0.00000000000E+00 0.  1.
        -11    1    3    3    0    0 -0.37971360016E+03  0.14306626521E+04 -0.99799749011E+03  0.17852106409E+04  0.00000000000E+00 0. -1.
         22    1    1    2    0    0  0.70236562648E+03 -0.23605685462E+04  0.17508026499E+04  0.30217397726E+04  0.00000000000E+00 0. -1.
<mgrwt>
<rscale>  0 0.59985254E+04</rscale>
<asrwt>0</asrwt>
<pdfrwt beam="1">  1        2 0.46764106E+00 0.59985254E+04</pdfrwt>
<pdfrwt beam="2">  1       -2 0.45529163E+00 0.59985254E+04</pdfrwt>
<totfact> 0.35609295E-03</totfact>
</mgrwt>
</event>
<event>
 6    1  0.1831439E-005  0.1895904E+04  0.7818608E-02  0.8656898E-01
         -4   -1    0    0    0  501 -0.00000000000E+00  0.00000000000E+00  0.33194060869E+03  0.33194060869E+03  0.00000000000E+00 0.  1.
          4   -1    0    0  501    0  0.00000000000E+00 -0.00000000000E+00 -0.27071499530E+04  0.27071499530E+04  0.00000000000E+00 0. -1.
         23    2    1    2    0    0 -0.72263289228E+03 -0.48273716049E+03 -0.17883330086E+04  0.19904451037E+04  0.92213329216E+02 0.  0.
         13    1    3    3    0    0 -0.16508700112E+03 -0.15897781494E+03 -0.47002947136E+03  0.52292960093E+03  0.00000000000E+00 0. -1.
        -13    1    3    3    0    0 -0.55754589116E+03 -0.32375934555E+03 -0.13183035373E+04  0.14675155028E+04  0.00000000000E+00 0.  1.
         22    1    1    2    0    0  0.72263289228E+03  0.48273716049E+03 -0.58687633570E+03  0.10486454580E+04  0.00000000000E+00 0.  1.
<mgrwt>
<rscale>  0 0.18959040E+04</rscale>
<asrwt>0</asrwt>
<pdfrwt beam="1">  1        4 0.41648462E+00 0.18959040E+04</pdfrwt>
<pdfrwt beam="2">  1       -4 0.51067785E-01 0.18959040E+04</pdfrwt>
<totfact> 0.36356111E-02</totfact>
</mgrwt>
</event>
<event>
 6    1  0.1831439E-005  0.3038839E+04  0.7818608E-02  0.8232726E-01
          2   -1    0    0  501    0  0.00000000000E+00  0.00000000000E+00  0.31873206462E+04  0.31873206462E+04  0.00000000000E+00 0. -1.
         -2   -1    0    0    0  501 -0.00000000000E+00 -0.00000000000E+00 -0.72431868891E+03  0.72431868891E+03  0.00000000000E+00 0.  1.
         23    2    1    2    0    0 -0.76480356171E+02 -0.12599637318E+04  0.14709274186E+03  0.12740659533E+04  0.90829116861E+02 0.  0.
         13    1    3    3    0    0  0.90356705146E+01 -0.56697003688E+03  0.78623146817E+02  0.57246682461E+03  0.00000000000E+00 0. -1.
        -13    1    3    3    0    0 -0.85516026686E+02 -0.69299369487E+03  0.68469595042E+02  0.70159912871E+03  0.00000000000E+00 0.  1.
         22    1    1    2    0    0  0.76480356171E+02  0.12599637318E+04  0.23159092154E+04  0.26375733818E+04  0.00000000000E+00 0. -1.
<mgrwt>
<rscale>  0 0.30388392E+04</rscale>
<asrwt>0</asrwt>
<pdfrwt beam="1">  1        2 0.49035701E+00 0.30388392E+04</pdfrwt>
<pdfrwt beam="2">  1       -2 0.11143365E+00 0.30388392E+04</pdfrwt>
<totfact> 0.71750821E-01</totfact>
</mgrwt>
</event>
<event>
 6    1  0.1831439E-005  0.3877828E+04  0.7818608E-02  0.8029656E-01
         -2   -1    0    0    0  501 -0.00000000000E+00  0.00000000000E+00  0.13553443384E+04  0.13553443384E+04  0.00000000000E+00 0.  1.
          2   -1    0    0  501    0  0.00000000000E+00 -0.00000000000E+00 -0.27737515047E+04  0.27737515047E+04  0.00000000000E+00 0. -1.
         23    2    1    2    0    0 -0.13995646499E+04 -0.53957931623E+03  0.59685478730E+03  0.16168841104E+04  0.90285887591E+02 0.  0.
         11    1    3    3    0    0 -0.39890676381E+03 -0.19796293714E+03  0.17688627678E+03  0.47917083134E+03  0.00000000000E+00 0.  1.
        -11    1    3    3    0    0 -0.10006578861E+04 -0.34161637910E+03  0.41996851053E+03  0.11377132791E+04  0.00000000000E+00 0. -1.
         22    1    1    2    0    0  0.13995646499E+04  0.53957931623E+03 -0.20152619537E+04  0.25122117327E+04  0.00000000000E+00 0. -1.
<mgrwt>
<rscale>  0 0.38778285E+04</rscale>
<asrwt>0</asrwt>
<pdfrwt beam="1">  1        2 0.42673099E+00 0.38778285E+04</pdfrwt>
<pdfrwt beam="2">  1       -2 0.20851452E+00 0.38778285E+04</pdfrwt>
<totfact> 0.22362896E-01</totfact>
</mgrwt>
</event>
<event>
 6    1  0.1831439E-005  0.1756449E+04  0.7818608E-02  0.8729808E-01
          2   -1    0    0  501    0  0.00000000000E+00  0.00000000000E+00  0.40545204821E+04  0.40545204821E+04  0.00000000000E+00 0. -1.
         -2   -1    0    0    0  501 -0.00000000000E+00 -0.00000000000E+00 -0.19022675633E+03  0.19022675633E+03  0.00000000000E+00 0.  1.
         23    2    1    2    0    0 -0.42803100736E+03  0.75236049040E+03  0.16150766992E+04  0.18347194204E+04  0.92009546943E+02 0.  0.
         11    1    3    3    0    0 -0.40768369710E+03  0.67772012927E+03  0.14303213562E+04  0.16344203108E+04  0.00000000000E+00 0.  1.
        -11    1    3    3    0    0 -0.20347310259E+02  0.74640361132E+02  0.18475534301E+03  0.20029910962E+03  0.00000000000E+00 0. -1.
         22    1    1    2    0    0  0.42803100736E+03 -0.75236049040E+03  0.22492170266E+04  0.24100278180E+04  0.00000000000E+00 0.  1.
<mgrwt>
<rscale>  0 0.17564490E+04</rscale>
<asrwt>0</asrwt>
<pdfrwt beam="1">  1        2 0.62377232E+00 0.17564490E+04</pdfrwt>
<pdfrwt beam="2">  1       -2 0.29265658E-01 0.17564490E+04</pdfrwt>
<totfact> 0.31937370E+00</totfact>
</mgrwt>
</event>
<event>
 6    1  0.1831439E-005  0.1365035E+04  0.7818608E-02  0.8979524E-01
          2   -1    0    0  501    0  0.00000000000E+00  0.00000000000E+00  0.53577980952E+03  0.53577980952E+03  0.00000000000E+00 0. -1.
         -2   -1    0    0    0  501 -0.00000000000E+00 -0.00000000000E+00 -0.86944379601E+03  0.86944379601E+03  0.00000000000E+00 0.  1.
         23    2    1    2    0    0  0.67517121681E+03  0.29417796311E+02 -0.94824745206E+02  0.68844905107E+03  0.90822821245E+02 0.  0.
         11    1    3    3    0    0  0.40058183793E+03  0.60072803070E+02 -0.69695642334E+02  0.41101342205E+03  0.00000000000E+00 0. -1.
        -11    1    3    3    0    0  0.27458937888E+03 -0.30655006759E+02 -0.25129102873E+02  0.27743562901E+03  0.00000000000E+00 0.  1.
         22    1    1    2    0    0 -0.67517121681E+03 -0.29417796311E+02 -0.23883924128E+03  0.71677455446E+03  0.00000000000E+00 0. -1.
<mgrwt>
<rscale>  0 0.13650354E+04</rscale>
<asrwt>0</asrwt>
<pdfrwt beam="1">  1        2 0.82427664E-01 0.13650354E+04</pdfrwt>
<pdfrwt beam="2">  1       -2 0.13376058E+00 0.13650354E+04</pdfrwt>
<totfact> 0.22367763E+01</totfact>
</mgrwt>
</event>
<event>
 6    1  0.1885749E-005  0.2944692E+04  0.7818608E-02  0.8259703E-01
          2   -1    0    0  501    0  0.00000000000E+00  0.00000000000E+00  0.26702972063E+04  0.26702972063E+04  0.00000000000E+00 0. -1.
         -2   -1    0    0    0  501 -0.00000000000E+00 -0.00000000000E+00 -0.81182093909E+03  0.81182093909E+03  0.00000000000E+00 0.  1.
         23    2    1    2    0    0  0.10384704495E+04  0.99002170231E+03  0.13152413319E+04  0.19479512573E+04  0.78041617981E+02 0.  0.
         11    1    3    3    0    0  0.21431974638E+03  0.24263553487E+03  0.27351005493E+03  0.42380739330E+03  0.00000000000E+00 0.  1.
        -11    1    3    3    0    0  0.82415070312E+03  0.74738616744E+03  0.10417312770E+04  0.15241438640E+04  0.00000000000E+00 0. -1.
         22    1    1    2    0    0 -0.10384704495E+04 -0.99002170231E+03  0.54323493530E+03  0.15341668881E+04  0.00000000000E+00 0.  1.
<mgrwt>
<rscale>  0 0.29446923E+04</rscale>
<asrwt>0</asrwt>
<pdfrwt beam="1">  1        2 0.41081495E+00 0.29446923E+04</pdfrwt>
<pdfrwt beam="2">  1       -2 0.12489553E+00 0.29446923E+04</pdfrwt>
<totfact> 0.11423645E+00</totfact>
</mgrwt>
</event>
<event>
 6    1  0.2151536E-005  0.3961190E+04  0.7818608E-02  0.8012422E-01
          2   -1    0    0  501    0  0.00000000000E+00  0.00000000000E+00  0.21337832245E+04  0.21337832245E+04  0.00000000000E+00 0. -1.
         -2   -1    0    0    0  501 -0.00000000000E+00 -0.00000000000E+00 -0.18384047636E+04  0.18384047636E+04  0.00000000000E+00 0.  1.
         23    2    1    2    0    0 -0.17833768159E+04 -0.85873584795E+03  0.17347630484E+03  0.19890792519E+04  0.92098415025E+02 0.  0.
         13    1    3    3    0    0 -0.10762328542E+04 -0.47226995199E+03  0.84618348644E+02  0.11783362546E+04  0.00000000000E+00 0. -1.
        -13    1    3    3    0    0 -0.70714396170E+03 -0.38646589595E+03  0.88857956201E+02  0.81074299731E+03  0.00000000000E+00 0.  1.
         22    1    1    2    0    0  0.17833768159E+04  0.85873584795E+03  0.12190215608E+03  0.19831087362E+04  0.00000000000E+00 0.  1.
<mgrwt>
<rscale>  0 0.39611903E+04</rscale>
<asrwt>0</asrwt>
<pdfrwt beam="1">  1        2 0.32827434E+00 0.39611903E+04</pdfrwt>
<pdfrwt beam="2">  1       -2 0.28283150E+00 0.39611903E+04</pdfrwt>
<totfact> 0.18017635E-01</totfact>
</mgrwt>
</event>
<event>
 6    1  0.1831439E-005  0.3712629E+04  0.7818608E-02  0.8065169E-01
          2   -1    0    0  501    0  0.00000000000E+00  0.00000000000E+00  0.50458008467E+04  0.50458008467E+04  0.00000000000E+00 0. -1.
         -2   -1    0    0    0  501 -0.00000000000E+00 -0.00000000000E+00 -0.68292486341E+03  0.68292486341E+03  0.00000000000E+00 0.  1.
         23    2    1    2    0    0 -0.13905563433E+04  0.15110695576E+03  0.40632201018E+04  0.42982454050E+04  0.93143493329E+02 0.  0.
         13    1    3    3    0    0 -0.10178407119E+04  0.10527032143E+03  0.30939011146E+04  0.32587276140E+04  0.00000000000E+00 0.  1.
        -13    1    3    3    0    0 -0.37271563139E+03  0.45836634325E+02  0.96931898720E+03  0.10395177910E+04  0.00000000000E+00 0. -1.
         22    1    1    2    0    0  0.13905563433E+04 -0.15110695576E+03  0.29965588147E+03  0.14304803051E+04  0.00000000000E+00 0.  1.
<mgrwt>
<rscale>  0 0.37126286E+04</rscale>
<asrwt>0</asrwt>
<pdfrwt beam="1">  1        2 0.77627703E+00 0.37126286E+04</pdfrwt>
<pdfrwt beam="2">  1       -2 0.10506537E+00 0.37126286E+04</pdfrwt>
<totfact> 0.17599320E-02</totfact>
</mgrwt>
</event>
<event>
 6    1  0.1831439E-005  0.4152413E+03  0.7818608E-02  0.1038626E+00
          1   -1    0    0  501    0  0.00000000000E+00  0.00000000000E+00  0.44658086969E+02  0.44658086969E+02  0.00000000000E+00 0. -1.
         -1   -1    0    0    0  501 -0.00000000000E+00 -0.00000000000E+00 -0.96525260289E+03  0.96525260289E+03  0.00000000000E+00 0.  1.
         23    2    1    2    0    0 -0.36488891639E+02  0.93904454302E+02 -0.89577053949E+03  0.90615272362E+03  0.92511693134E+02 0.  0.
         11    1    3    3    0    0  0.28909148580E+02  0.10645000073E+02 -0.21653709529E+03  0.21871755425E+03  0.00000000000E+00 0.  1.
        -11    1    3    3    0    0 -0.65398040219E+02  0.83259454229E+02 -0.67923344419E+03  0.68743516938E+03  0.00000000000E+00 0. -1.
         22    1    1    2    0    0  0.36488891639E+02 -0.93904454302E+02 -0.24823976429E+02  0.10375796623E+03  0.00000000000E+00 0. -1.
<mgrwt>
<rscale>  0 0.41524130E+03</rscale>
<asrwt>0</asrwt>
<pdfrwt beam="1">  1        1 0.68704748E-02 0.41524130E+03</pdfrwt>
<pdfrwt beam="2">  1       -1 0.14850040E+00 0.41524130E+03</pdfrwt>
<totfact> 0.41518584E+02</totfact>
</mgrwt>
</event>
<event>
 6    1  0.1831439E-005  0.2784885E+04  0.7818608E-02  0.8307977E-01
         -1   -1    0    0    0  501 -0.00000000000E+00  0.00000000000E+00  0.91551030261E+03  0.91551030261E+03  0.00000000000E+00 0.  1.
          1   -1    0    0  501    0  0.00000000000E+00 -0.00000000000E+00 -0.21178302630E+04  0.21178302630E+04  0.00000000000E+00 0. -1.
         23    2    1    2    0    0 -0.13760712419E+04 -0.17617991836E+03 -0.49193760584E+03  0.14747339712E+04  0.90698683522E+02 0.  0.
         11    1    3    3    0    0 -0.11729834219E+04 -0.13483645496E+03 -0.44820583875E+03  0.12629170407E+04  0.00000000000E+00 0. -1.
        -11    1    3    3    0    0 -0.20308782000E+03 -0.41343463397E+02 -0.43731767096E+02  0.21181693051E+03  0.00000000000E+00 0.  1.
         22    1    1    2    0    0  0.13760712419E+04  0.17617991836E+03 -0.71038235452E+03  0.15586065944E+04  0.00000000000E+00 0. -1.
<mgrwt>
<rscale>  0 0.27848845E+04</rscale>
<asrwt>0</asrwt>
<pdfrwt beam="1">  1        1 0.32582004E+00 0.27848845E+04</pdfrwt>
<pdfrwt beam="2">  1       -1 0.14084774E+00 0.27848845E+04</pdfrwt>
<totfact> 0.88616731E-01</totfact>
</mgrwt>
</event>
<event>
 6    1  0.1831439E-005  0.4797211E+04  0.7818608E-02  0.7860574E-01
         -1   -1    0    0    0  501 -0.00000000000E+00  0.00000000000E+00  0.20662986409E+04  0.20662986409E+04  0.00000000000E+00 0.  1.
          1   -1    0    0  501    0  0.00000000000E+00 -0.00000000000E+00 -0.27843549027E+04  0.27843549027E+04  0.00000000000E+00 0. -1.
         23    2    1    2    0    0  0.12294457743E+04 -0.18061529830E+04  0.63947975944E+03  0.22783725404E+04  0.91222585861E+02 0.  0.
         11    1    3    3    0    0  0.62602545784E+03 -0.84166232952E+03  0.31950927644E+03  0.10965352382E+04  0.00000000000E+00 0. -1.
        -11    1    3    3    0    0  0.60342031642E+03 -0.96449065353E+03  0.31997048300E+03  0.11818373023E+04  0.00000000000E+00 0.  1.
         22    1    1    2    0    0 -0.12294457743E+04  0.18061529830E+04 -0.13575360213E+04  0.25722810031E+04  0.00000000000E+00 0. -1.
<mgrwt>
<rscale>  0 0.47972112E+04</rscale>
<asrwt>0</asrwt>
<pdfrwt beam="1">  1        1 0.42836229E+00 0.47972112E+04</pdfrwt>
<pdfrwt beam="2">  1       -1 0.31789210E+00 0.47972112E+04</pdfrwt>
<totfact> 0.15848412E-02</totfact>
</mgrwt>
</event>
<event>
 6    1  0.1831439E-005  0.4013772E+04  0.7818608E-02  0.8001774E-01
          1   -1    0    0  501    0  0.00000000000E+00  0.00000000000E+00  0.22091904951E+04  0.22091904951E+04  0.00000000000E+00 0. -1.
         -1   -1    0    0    0  501 -0.00000000000E+00 -0.00000000000E+00 -0.18231076358E+04  0.18231076358E+04  0.00000000000E+00 0.  1.
         23    2    1    2    0    0 -0.32895278666E+01 -0.19095051872E+04  0.81019446222E+03  0.20762583735E+04  0.90624974100E+02 0.  0.
         11    1    3    3    0    0  0.35201286020E+02 -0.10601964002E+04  0.47755265729E+03  0.11633194221E+04  0.00000000000E+00 0. -1.
        -11    1    3    3    0    0 -0.38490813887E+02 -0.84930878703E+03  0.33264180493E+03  0.91293895134E+03  0.00000000000E+00 0.  1.
         22    1    1    2    0    0  0.32895278666E+01  0.19095051872E+04 -0.42411160297E+03  0.19560397574E+04  0.00000000000E+00 0.  1.
<mgrwt>
<rscale>  0 0.40137723E+04</rscale>
<asrwt>0</asrwt>
<pdfrwt beam="1">  1        1 0.33987546E+00 0.40137723E+04</pdfrwt>
<pdfrwt beam="2">  1       -1 0.28047810E+00 0.40137723E+04</pdfrwt>
<totfact> 0.74186709E-02</totfact>
</mgrwt>
</event>
<event>
 6    1  0.1831439E-005  0.3480003E+04  0.7818608E-02  0.8118545E-01
          2   -1    0    0  501    0  0.00000000000E+00  0.00000000000E+00  0.20262303990E+04  0.20262303990E+04  0.00000000000E+00 0. -1.
         -2   -1    0    0    0  501 -0.00000000000E+00 -0.00000000000E+00 -0.14942057903E+04  0.14942057903E+04  0.00000000000E+00 0.  1.
         23    2    1    2    0    0  0.62133497489E+03  0.21177176590E+03 -0.13626799685E+04  0.15152404714E+04  0.90291515063E+02 0.  0.
         13    1    3    3    0    0  0.51605027650E+03  0.13921097645E+03 -0.11157152334E+04  0.12371370441E+04  0.00000000000E+00 0.  1.
        -13    1    3    3    0    0  0.10528469839E+03  0.72560789452E+02 -0.24696473512E+03  0.27810342729E+03  0.00000000000E+00 0. -1.
         22    1    1    2    0    0 -0.62133497489E+03 -0.21177176590E+03  0.18947045773E+04  0.20051957179E+04  0.00000000000E+00 0. -1.
<mgrwt>
<rscale>  0 0.34800030E+04</rscale>
<asrwt>0</asrwt>
<pdfrwt beam="1">  1        2 0.31172775E+00 0.34800030E+04</pdfrwt>
<pdfrwt beam="2">  1       -2 0.22987781E+00 0.34800030E+04</pdfrwt>
<totfact> 0.45543869E-01</totfact>
</mgrwt>
</event>
<event>
 6    1  0.1831439E-005  0.2767402E+04  0.7818608E-02  0.8313461E-01
         -1   -1    0    0    0  501 -0.00000000000E+00  0.00000000000E+00  0.17822078677E+04  0.17822078677E+04  0.00000000000E+00 0.  1.
          1   -1    0    0  501    0  0.00000000000E+00 -0.00000000000E+00 -0.10743014677E+04  0.10743014677E+04  0.00000000000E+00 0. -1.
         23    2    1    2    0    0 -0.75879378643E+03  0.10488138398E+04  0.85416395953E+03  0.15537546560E+04  0.93696213061E+02 0.  0.
         11    1    3    3    0    0 -0.40247839126E+03  0.56887367989E+03  0.51483033193E+03  0.86640428772E+03  0.00000000000E+00 0. -1.
        -11    1    3    3    0    0 -0.35631539517E+03  0.47994015991E+03  0.33933362760E+03  0.68735036827E+03  0.00000000000E+00 0.  1.
         22    1    1    2    0    0  0.75879378643E+03 -0.10488138398E+04 -0.14625755955E+03  0.13027546794E+04  0.00000000000E+00 0. -1.
<mgrwt>
<rscale>  0 0.27674021E+04</rscale>
<asrwt>0</asrwt>
<pdfrwt beam="1">  1        1 0.16527715E+00 0.27674021E+04</pdfrwt>
<pdfrwt beam="2">  1       -1 0.27418583E+00 0.27674021E+04</pdfrwt>
<totfact> 0.55871688E-01</totfact>
</mgrwt>
</event>
<event>
 6    1  0.1831439E-005  0.4434550E+04  0.7818608E-02  0.7922196E-01
         -2   -1    0    0    0  501 -0.00000000000E+00  0.00000000000E+00  0.19602437253E+04  0.19602437253E+04  0.00000000000E+00 0.  1.
          2   -1    0    0  501    0  0.00000000000E+00 -0.00000000000E+00 -0.25080091635E+04  0.25080091635E+04  0.00000000000E+00 0. -1.
         23    2    1    2    0    0  0.16399665192E+04  0.20150906008E+03 -0.17624151435E+04  0.24175286285E+04  0.90782412281E+02 0.  0.
         13    1    3    3    0    0  0.99632462603E+03  0.16614594314E+03 -0.10630590815E+04  0.14664112130E+04  0.00000000000E+00 0. -1.
        -13    1    3    3    0    0  0.64364189313E+03  0.35363116936E+02 -0.69935606205E+03  0.95111741555E+03  0.00000000000E+00 0.  1.
         22    1    1    2    0    0 -0.16399665192E+04 -0.20150906008E+03  0.12146497052E+04  0.20507242603E+04  0.00000000000E+00 0.  1.
<mgrwt>
<rscale>  0 0.44345504E+04</rscale>
<asrwt>0</asrwt>
<pdfrwt beam="1">  1        2 0.38584756E+00 0.44345504E+04</pdfrwt>
<pdfrwt beam="2">  1       -2 0.30157596E+00 0.44345504E+04</pdfrwt>
<totfact> 0.81549303E-02</totfact>
</mgrwt>
</event>
<event>
 6    1  0.1831439E-005  0.1968455E+04  0.7818608E-02  0.8621512E-01
          1   -1    0    0  501    0  0.00000000000E+00  0.00000000000E+00  0.73841697162E+03  0.73841697162E+03  0.00000000000E+00 0. -1.
         -1   -1    0    0    0  501 -0.00000000000E+00 -0.00000000000E+00 -0.13118660178E+04  0.13118660178E+04  0.00000000000E+00 0.  1.
         23    2    1    2    0    0 -0.36349630591E+03  0.88093348411E+03 -0.53608097764E+03  0.10965693319E+04  0.83115084832E+02 0.  0.
         11    1    3    3    0    0 -0.28936373277E+02  0.37769149627E+02 -0.42856458483E+02  0.64035134073E+02  0.00000000000E+00 0.  1.
        -11    1    3    3    0    0 -0.33455993263E+03  0.84316433448E+03 -0.49322451916E+03  0.10325341979E+04  0.00000000000E+00 0. -1.
         22    1    1    2    0    0  0.36349630591E+03 -0.88093348411E+03 -0.37368068504E+02  0.95371365744E+03  0.00000000000E+00 0. -1.
<mgrwt>
<rscale>  0 0.19684554E+04</rscale>
<asrwt>0</asrwt>
<pdfrwt beam="1">  1        1 0.11360261E+00 0.19684554E+04</pdfrwt>
<pdfrwt beam="2">  1       -1 0.20182554E+00 0.19684554E+04</pdfrwt>
<totfact> 0.34122241E+00</totfact>
</mgrwt>
</event>
<event>
 6    1  0.1831439E-005  0.1539793E+04  0.7818608E-02  0.8858414E-01
          1   -1    0    0  501    0  0.00000000000E+00  0.00000000000E+00  0.19775761021E+04  0.19775761021E+04  0.00000000000E+00 0. -1.
         -1   -1    0    0    0  501 -0.00000000000E+00 -0.00000000000E+00 -0.29973098163E+03  0.29973098163E+03  0.00000000000E+00 0.  1.
         23    2    1    2    0    0  0.21175535305E+03 -0.43329964496E+03 -0.42362165847E+02  0.49077356325E+03  0.80468785403E+02 0.  0.
         13    1    3    3    0    0  0.13990994089E+03 -0.26799170727E+03  0.11864218859E+02  0.30254769279E+03  0.00000000000E+00 0. -1.
        -13    1    3    3    0    0  0.71845412160E+02 -0.16530793769E+03 -0.54226384706E+02  0.18822587046E+03  0.00000000000E+00 0.  1.
         22    1    1    2    0    0 -0.21175535305E+03  0.43329964496E+03  0.17202072864E+04  0.17865335205E+04  0.00000000000E+00 0. -1.
<mgrwt>
<rscale>  0 0.15397933E+04</rscale>
<asrwt>0</asrwt>
<pdfrwt beam="1">  1        1 0.30424247E+00 0.15397933E+04</pdfrwt>
<pdfrwt beam="2">  1       -1 0.46112460E-01 0.15397933E+04</pdfrwt>
<totfact> 0.13929059E+01</totfact>
</mgrwt>
</event>
<event>
 6    1  0.1831439E-005  0.1291449E+04  0.7818608E-02  0.9036374E-01
         -1   -1    0    0    0  501 -0.00000000000E+00  0.00000000000E+00  0.20460380314E+03  0.20460380314E+03  0.00000000000E+00 0.  1.
          1   -1    0    0  501    0  0.00000000000E+00 -0.00000000000E+00 -0.20378914154E+04  0.20378914154E+04  0.00000000000E+00 0. -1.
         23    2    1    2    0    0 -0.63425653261E+03  0.10240736058E+03 -0.95687341031E+03  0.11558165770E+04  0.86813706005E+02 0.  0.
         11    1    3    3    0    0 -0.25308093018E+03  0.93849832682E+01 -0.32481527144E+03  0.41187740372E+03  0.00000000000E+00 0.  1.
        -11    1    3    3    0    0 -0.38117560243E+03  0.93022377317E+02 -0.63205813887E+03  0.74393917324E+03  0.00000000000E+00 0. -1.
         22    1    1    2    0    0  0.63425653261E+03 -0.10240736058E+03 -0.87641420192E+03  0.10866786415E+04  0.00000000000E+00 0. -1.
<mgrwt>
<rscale>  0 0.12914493E+04</rscale>
<asrwt>0</asrwt>
<pdfrwt beam="1">  1        1 0.31352177E+00 0.12914493E+04</pdfrwt>
<pdfrwt beam="2">  1       -1 0.31477507E-01 0.12914493E+04</pdfrwt>
<totfact> 0.25924506E+01</totfact>
</mgrwt>
</event>
<event>
 6    1  0.1831439E-005  0.8044503E+04  0.7818608E-02  0.7478365E-01
         -2   -1    0    0    0  501 -0.00000000000E+00  0.00000000000E+00  0.27009905667E+04  0.27009905667E+04  0.00000000000E+00 0. -1.
          2   -1    0    0  501    0  0.00000000000E+00 -0.00000000000E+00 -0.59898415907E+04  0.59898415907E+04  0.00000000000E+00 0.  1.
         23    2    1    2    0    0 -0.11759917610E+04 -0.17462119737E+04  0.20573681949E+04  0.29450273560E+04  0.90605514459E+02 0.  0.
         11    1    3    3    0    0 -0.98084722420E+03 -0.14547264294E+04  0.16661047773E+04  0.24195444593E+04  0.00000000000E+00 0.  1.
        -11    1    3    3    0    0 -0.19514453681E+03 -0.29148554427E+03  0.39126341761E+03  0.52548289670E+03  0.00000000000E+00 0. -1.
         22    1    1    2    0    0  0.11759917610E+04  0.17462119737E+04 -0.53462192188E+04  0.57458048013E+04  0.00000000000E+00 0.  1.
<mgrwt>
<rscale>  0 0.80445026E+04</rscale>
<asrwt>0</asrwt>
<pdfrwt beam="1">  1        2 0.92151409E+00 0.80445026E+04</pdfrwt>
<pdfrwt beam="2">  1       -2 0.41553701E+00 0.80445026E+04</pdfrwt>
<totfact> 0.11200958E-06</totfact>
</mgrwt>
</event>
<event>
 6    1  0.1831439E-005  0.2250269E+04  0.7818608E-02  0.8497792E-01
         -2   -1    0    0    0  501 -0.00000000000E+00  0.00000000000E+00  0.77323575136E+03  0.77323575136E+03  0.00000000000E+00 0.  1.
          2   -1    0    0  501    0  0.00000000000E+00 -0.00000000000E+00 -0.16371815662E+04  0.16371815662E+04  0.00000000000E+00 0. -1.
         23    2    1    2    0    0 -0.91831302348E+03  0.13849676154E+03  0.24403957856E+03  0.96469542383E+03  0.92745796695E+02 0.  0.
         11    1    3    3    0    0 -0.55972532027E+03  0.10528449434E+03  0.10773878701E+03  0.57964204913E+03  0.00000000000E+00 0.  1.
        -11    1    3    3    0    0 -0.35858770321E+03  0.33212267195E+02  0.13630079155E+03  0.38505337470E+03  0.00000000000E+00 0. -1.
         22    1    1    2    0    0  0.91831302348E+03 -0.13849676154E+03 -0.11079853934E+04  0.14457218937E+04  0.00000000000E+00 0. -1.
<mgrwt>
<rscale>  0 0.22502687E+04</rscale>
<asrwt>0</asrwt>
<pdfrwt beam="1">  1        2 0.25187409E+00 0.22502687E+04</pdfrwt>
<pdfrwt beam="2">  1       -2 0.11895935E+00 0.22502687E+04</pdfrwt>
<totfact> 0.52516197E+00</totfact>
</mgrwt>
</event>
<event>
 6    1  0.1831439E-005  0.8187794E+03  0.7818608E-02  0.9533226E-01
          3   -1    0    0  501    0  0.00000000000E+00  0.00000000000E+00  0.78474516740E+03  0.78474516740E+03  0.00000000000E+00 0. -1.
         -3   -1    0    0    0  501 -0.00000000000E+00 -0.00000000000E+00 -0.21357243202E+03  0.21357243202E+03  0.00000000000E+00 0.  1.
         23    2    1    2    0    0 -0.13844185299E+03 -0.17476869282E+03 -0.12229160922E+03  0.26989255874E+03  0.90424072732E+02 0.  0.
         11    1    3    3    0    0 -0.21737370371E+02 -0.97901388922E+02 -0.60271875280E+02  0.11700382119E+03  0.00000000000E+00 0. -1.
        -11    1    3    3    0    0 -0.11670448262E+03 -0.76867303893E+02 -0.62019733940E+02  0.15288873755E+03  0.00000000000E+00 0.  1.
         22    1    1    2    0    0  0.13844185299E+03  0.17476869282E+03  0.69346434460E+03  0.72842504067E+03  0.00000000000E+00 0. -1.
<mgrwt>
<rscale>  0 0.81877942E+03</rscale>
<asrwt>0</asrwt>
<pdfrwt beam="1">  1        3 0.12073002E+00 0.81877942E+03</pdfrwt>
<pdfrwt beam="2">  1       -3 0.32857298E-01 0.81877942E+03</pdfrwt>
<totfact> 0.13409274E+01</totfact>
</mgrwt>
</event>
<event>
 6    1  0.1863047E-005  0.2042463E+04  0.7818608E-02  0.8587021E-01
         -1   -1    0    0    0  501 -0.00000000000E+00  0.00000000000E+00  0.65400984112E+03  0.65400984112E+03  0.00000000000E+00 0.  1.
          1   -1    0    0  501    0  0.00000000000E+00 -0.00000000000E+00 -0.15946449662E+04  0.15946449662E+04  0.00000000000E+00 0. -1.
         23    2    1    2    0    0  0.82116330914E+03  0.11934585045E+03  0.18045013646E+03  0.85388429718E+03  0.89462444177E+02 0.  0.
         11    1    3    3    0    0  0.38611904893E+03  0.54798067786E+02  0.13053406791E+03  0.41125404687E+03  0.00000000000E+00 0. -1.
        -11    1    3    3    0    0  0.43504426021E+03  0.64547782666E+02  0.49916068545E+02  0.44263025031E+03  0.00000000000E+00 0.  1.
         22    1    1    2    0    0 -0.82116330914E+03 -0.11934585045E+03 -0.11210852615E+04  0.13947705101E+04  0.00000000000E+00 0. -1.
<mgrwt>
<rscale>  0 0.20424627E+04</rscale>
<asrwt>0</asrwt>
<pdfrwt beam="1">  1        1 0.24532999E+00 0.20424627E+04</pdfrwt>
<pdfrwt beam="2">  1       -1 0.10061690E+00 0.20424627E+04</pdfrwt>
<totfact> 0.48877176E+00</totfact>
</mgrwt>
</event>
<event>
 6    1  0.1831439E-005  0.3520056E+04  0.7818608E-02  0.8109053E-01
         -2   -1    0    0    0  501 -0.00000000000E+00  0.00000000000E+00  0.24812126726E+04  0.24812126726E+04  0.00000000000E+00 0. -1.
          2   -1    0    0  501    0  0.00000000000E+00 -0.00000000000E+00 -0.12484617051E+04  0.12484617051E+04  0.00000000000E+00 0.  1.
         23    2    1    2    0    0  0.15767778920E+04  0.77340953867E+03  0.72164642762E+03  0.19005711313E+04  0.83703187807E+02 0.  0.
         11    1    3    3    0    0  0.10750712457E+04  0.50855174228E+03  0.45015217305E+03  0.12716288912E+04  0.00000000000E+00 0.  1.
        -11    1    3    3    0    0  0.50170664625E+03  0.26485779639E+03  0.27149425457E+03  0.62894224017E+03  0.00000000000E+00 0. -1.
         22    1    1    2    0    0 -0.15767778920E+04 -0.77340953867E+03  0.51110453995E+03  0.18291032464E+04  0.00000000000E+00 0.  1.
<mgrwt>
<rscale>  0 0.35200563E+04</rscale>
<asrwt>0</asrwt>
<pdfrwt beam="1">  1        2 0.19207103E+00 0.35200563E+04</pdfrwt>
<pdfrwt beam="2">  1       -2 0.38172503E+00 0.35200563E+04</pdfrwt>
<totfact> 0.14179896E-01</totfact>
</mgrwt>
</event>
<event>
 6    1  0.1831439E-005  0.3472203E+04  0.7818608E-02  0.8120409E-01
         -2   -1    0    0    0  501 -0.00000000000E+00  0.00000000000E+00  0.12971789785E+04  0.12971789785E+04  0.00000000000E+00 0.  1.
          2   -1    0    0  501    0  0.00000000000E+00 -0.00000000000E+00 -0.23235405274E+04  0.23235405274E+04  0.00000000000E+00 0. -1.
         23    2    1    2    0    0  0.35596342865E+03  0.23785700107E+03 -0.22667032848E+04  0.23085710626E+04  0.90943136830E+02 0.  0.
         11    1    3    3    0    0  0.18709996798E+03  0.17803842841E+03 -0.13768667171E+04  0.14008804505E+04  0.00000000000E+00 0.  1.
        -11    1    3    3    0    0  0.16886346067E+03  0.59818572663E+02 -0.88983656777E+03  0.90769061211E+03  0.00000000000E+00 0. -1.
         22    1    1    2    0    0 -0.35596342865E+03 -0.23785700107E+03  0.12403417359E+04  0.13121484433E+04  0.00000000000E+00 0.  1.
<mgrwt>
<rscale>  0 0.34722027E+04</rscale>
<asrwt>0</asrwt>
<pdfrwt beam="1">  1        2 0.35746777E+00 0.34722027E+04</pdfrwt>
<pdfrwt beam="2">  1       -2 0.19956600E+00 0.34722027E+04</pdfrwt>
<totfact> 0.48469084E-01</totfact>
</mgrwt>
</event>
<event>
 6    1  0.1831439E-005  0.8597427E+03  0.7818608E-02  0.9477353E-01
          3   -1    0    0  501    0  0.00000000000E+00  0.00000000000E+00  0.78946656256E+03  0.78946656256E+03  0.00000000000E+00 0. -1.
         -3   -1    0    0    0  501 -0.00000000000E+00 -0.00000000000E+00 -0.23406865010E+03  0.23406865010E+03  0.00000000000E+00 0.  1.
         23    2    1    2    0    0 -0.28701333122E+03 -0.22173827081E+02  0.65324974558E+03  0.71949029467E+03  0.89792667417E+02 0.  0.
         11    1    3    3    0    0 -0.13077189542E+03  0.31856141425E+02  0.25634463025E+03  0.28953181489E+03  0.00000000000E+00 0. -1.
        -11    1    3    3    0    0 -0.15624143580E+03 -0.54029968506E+02  0.39690511533E+03  0.42995847978E+03  0.00000000000E+00 0.  1.
         22    1    1    2    0    0  0.28701333122E+03  0.22173827081E+02 -0.97851833120E+02  0.30404491798E+03  0.00000000000E+00 0.  1.
<mgrwt>
<rscale>  0 0.85974269E+03</rscale>
<asrwt>0</asrwt>
<pdfrwt beam="1">  1        3 0.12145639E+00 0.85974269E+03</pdfrwt>
<pdfrwt beam="2">  1       -3 0.36010562E-01 0.85974269E+03</pdfrwt>
<totfact> 0.11056484E+01</totfact>
</mgrwt>
</event>
<event>
 6    1  0.1831439E-005  0.2772706E+04  0.7818608E-02  0.8311792E-01
         -2   -1    0    0    0  501 -0.00000000000E+00  0.00000000000E+00  0.18342800301E+04  0.18342800301E+04  0.00000000000E+00 0.  1.
          2   -1    0    0  501    0  0.00000000000E+00 -0.00000000000E+00 -0.10478088348E+04  0.10478088348E+04  0.00000000000E+00 0. -1.
         23    2    1    2    0    0 -0.76370551699E+03 -0.63705073170E+03 -0.60796461516E+03  0.11693334880E+04  0.92952038933E+02 0.  0.
         13    1    3    3    0    0 -0.66731354802E+03 -0.51640988900E+03 -0.49842846555E+03  0.98000891838E+03  0.00000000000E+00 0. -1.
        -13    1    3    3    0    0 -0.96391968966E+02 -0.12064084270E+03 -0.10953614961E+03  0.18932456967E+03  0.00000000000E+00 0.  1.
         22    1    1    2    0    0  0.76370551699E+03  0.63705073170E+03  0.13944358105E+04  0.17127553769E+04  0.00000000000E+00 0.  1.
<mgrwt>
<rscale>  0 0.27727061E+04</rscale>
<asrwt>0</asrwt>
<pdfrwt beam="1">  1        2 0.16120136E+00 0.27727061E+04</pdfrwt>
<pdfrwt beam="2">  1       -2 0.28219693E+00 0.27727061E+04</pdfrwt>
<totfact> 0.83621438E-01</totfact>
</mgrwt>
</event>
<event>
 6    1  0.1831439E-005  0.1334700E+04  0.7818608E-02  0.9002491E-01
          2   -1    0    0  501    0  0.00000000000E+00  0.00000000000E+00  0.13606573237E+04  0.13606573237E+04  0.00000000000E+00 0.  1.
         -2   -1    0    0    0  501 -0.00000000000E+00 -0.00000000000E+00 -0.32730950654E+03  0.32730950654E+03  0.00000000000E+00 0. -1.
         23    2    1    2    0    0  0.27259171008E+03  0.59002782631E+03  0.69314426044E+03  0.95436098497E+03  0.88976668952E+02 0.  0.
         13    1    3    3    0    0  0.57995898450E+02  0.12637854873E+03  0.20525459395E+03  0.24792037059E+03  0.00000000000E+00 0. -1.
        -13    1    3    3    0    0  0.21459581163E+03  0.46364927758E+03  0.48788966649E+03  0.70644061438E+03  0.00000000000E+00 0.  1.
         22    1    1    2    0    0 -0.27259171008E+03 -0.59002782631E+03  0.34020355675E+03  0.73360584530E+03  0.00000000000E+00 0. -1.
<mgrwt>
<rscale>  0 0.13347001E+04</rscale>
<asrwt>0</asrwt>
<pdfrwt beam="1">  1        2 0.20933189E+00 0.13347001E+04</pdfrwt>
<pdfrwt beam="2">  1       -2 0.50355309E-01 0.13347001E+04</pdfrwt>
<totfact> 0.55584044E+01</totfact>
</mgrwt>
</event>
<event>
 6    1  0.1831439E-005  0.9073869E+03  0.7818608E-02  0.9416394E-01
         -1   -1    0    0    0  501 -0.00000000000E+00  0.00000000000E+00  0.46693418255E+03  0.46693418255E+03  0.00000000000E+00 0.  1.
          1   -1    0    0  501    0  0.00000000000E+00 -0.00000000000E+00 -0.44082820262E+03  0.44082820262E+03  0.00000000000E+00 0. -1.
         23    2    1    2    0    0 -0.14820501778E+03 -0.18135952091E+03  0.39680814052E+03  0.46926940349E+03  0.88887960636E+02 0.  0.
         13    1    3    3    0    0 -0.32723245869E+02 -0.90035523810E+02  0.21461396297E+03  0.23502416784E+03  0.00000000000E+00 0.  1.
        -13    1    3    3    0    0 -0.11548177191E+03 -0.91323997103E+02  0.18219417756E+03  0.23424523565E+03  0.00000000000E+00 0. -1.
         22    1    1    2    0    0  0.14820501778E+03  0.18135952091E+03 -0.37070216059E+03  0.43849298168E+03  0.00000000000E+00 0. -1.
<mgrwt>
<rscale>  0 0.90738692E+03</rscale>
<asrwt>0</asrwt>
<pdfrwt beam="1">  1        1 0.67819724E-01 0.90738692E+03</pdfrwt>
<pdfrwt beam="2">  1       -1 0.71836028E-01 0.90738692E+03</pdfrwt>
<totfact> 0.10381194E+02</totfact>
</mgrwt>
</event>
<event>
 6    1  0.1831439E-005  0.3707653E+04  0.7818608E-02  0.8066268E-01
         -2   -1    0    0    0  501 -0.00000000000E+00  0.00000000000E+00  0.17524852293E+04  0.17524852293E+04  0.00000000000E+00 0.  1.
          2   -1    0    0  501    0  0.00000000000E+00 -0.00000000000E+00 -0.19610285287E+04  0.19610285287E+04  0.00000000000E+00 0. -1.
         23    2    1    2    0    0  0.28420654031E+03  0.77964370247E+03  0.15547670401E+04  0.17646984733E+04  0.90788172087E+02 0.  0.
         13    1    3    3    0    0  0.13350777127E+01  0.77461906340E+02  0.15830405853E+03  0.17624501216E+03  0.00000000000E+00 0.  1.
        -13    1    3    3    0    0  0.28287146260E+03  0.70218179613E+03  0.13964629816E+04  0.15884534611E+04  0.00000000000E+00 0. -1.
         22    1    1    2    0    0 -0.28420654031E+03 -0.77964370247E+03 -0.17633103395E+04  0.19488152847E+04  0.00000000000E+00 0. -1.
<mgrwt>
<rscale>  0 0.37076535E+04</rscale>
<asrwt>0</asrwt>
<pdfrwt beam="1">  1        2 0.30169670E+00 0.37076535E+04</pdfrwt>
<pdfrwt beam="2">  1       -2 0.26961311E+00 0.37076535E+04</pdfrwt>
<totfact> 0.27651636E-01</totfact>
</mgrwt>
</event>
<event>
 6    1  0.1831439E-005  0.1219994E+04  0.7818608E-02  0.9095534E-01
         -1   -1    0    0    0  501 -0.00000000000E+00  0.00000000000E+00  0.35717921926E+03  0.35717921926E+03  0.00000000000E+00 0.  1.
          1   -1    0    0  501    0  0.00000000000E+00 -0.00000000000E+00 -0.10417633233E+04  0.10417633233E+04  0.00000000000E+00 0. -1.
         23    2    1    2    0    0 -0.14029444397E+02  0.51416328726E+03  0.24893513437E+02  0.52263255119E+03  0.89243404675E+02 0.  0.
         11    1    3    3    0    0  0.36296694466E+02  0.18042523993E+03 -0.20081648062E+01  0.18405094392E+03  0.00000000000E+00 0. -1.
        -11    1    3    3    0    0 -0.50326138864E+02  0.33373804733E+03  0.26901678244E+02  0.33858160727E+03  0.00000000000E+00 0.  1.
         22    1    1    2    0    0  0.14029444397E+02 -0.51416328726E+03 -0.70947761753E+03  0.87630999141E+03  0.00000000000E+00 0. -1.
<mgrwt>
<rscale>  0 0.12199938E+04</rscale>
<asrwt>0</asrwt>
<pdfrwt beam="1">  1        1 0.16027128E+00 0.12199938E+04</pdfrwt>
<pdfrwt beam="2">  1       -1 0.54950649E-01 0.12199938E+04</pdfrwt>
<totfact> 0.46443175E+01</totfact>
</mgrwt>
</event>
<event>
 6    1  0.1831439E-005  0.1186778E+04  0.7818608E-02  0.9124509E-01
         -1   -1    0    0    0  501 -0.00000000000E+00  0.00000000000E+00  0.22341172875E+03  0.22341172875E+03  0.00000000000E+00 0.  1.
          1   -1    0    0  501    0  0.00000000000E+00 -0.00000000000E+00 -0.15760600054E+04  0.15760600054E+04  0.00000000000E+00 0. -1.
         23    2    1    2    0    0  0.25092312810E+03 -0.15097794658E+03  0.97154695757E+02  0.32038910787E+03  0.86333012027E+02 0.  0.
         11    1    3    3    0    0  0.85536267769E+02 -0.29699277225E+02 -0.61458226319E+01  0.90753905191E+02  0.00000000000E+00 0. -1.
        -11    1    3    3    0    0  0.16538686033E+03 -0.12127866935E+03  0.10330051839E+03  0.22963520268E+03  0.00000000000E+00 0.  1.
         22    1    1    2    0    0 -0.25092312810E+03  0.15097794658E+03 -0.14498029724E+04  0.14790826263E+04  0.00000000000E+00 0. -1.
<mgrwt>
<rscale>  0 0.11867776E+04</rscale>
<asrwt>0</asrwt>
<pdfrwt beam="1">  1        1 0.24247077E+00 0.11867776E+04</pdfrwt>
<pdfrwt beam="2">  1       -1 0.34371035E-01 0.11867776E+04</pdfrwt>
<totfact> 0.46023778E+01</totfact>
</mgrwt>
</event>
<event>
 6    1  0.1831439E-005  0.4137683E+04  0.7818608E-02  0.7977333E-01
          2   -1    0    0  501    0  0.00000000000E+00  0.00000000000E+00  0.31297765954E+04  0.31297765954E+04  0.00000000000E+00 0. -1.
         -2   -1    0    0    0  501 -0.00000000000E+00 -0.00000000000E+00 -0.13675431549E+04  0.13675431549E+04  0.00000000000E+00 0.  1.
         23    2    1    2    0    0  0.96572837751E+03  0.61870638284E+03 -0.98863165656E+03  0.15169359379E+04  0.90957133059E+02 0.  0.
         13    1    3    3    0    0  0.28659458546E+03  0.23253088841E+03 -0.33073054682E+03  0.49557014143E+03  0.00000000000E+00 0. -1.
        -13    1    3    3    0    0  0.67913379205E+03  0.38617549443E+03 -0.65790110974E+03  0.10213657965E+04  0.00000000000E+00 0.  1.
         22    1    1    2    0    0 -0.96572837751E+03 -0.61870638284E+03  0.27508650971E+04  0.29803838124E+04  0.00000000000E+00 0. -1.
<mgrwt>
<rscale>  0 0.41376827E+04</rscale>
<asrwt>0</asrwt>
<pdfrwt beam="1">  1        2 0.48150409E+00 0.41376827E+04</pdfrwt>
<pdfrwt beam="2">  1       -2 0.21039126E+00 0.41376827E+04</pdfrwt>
<totfact> 0.12780242E-01</totfact>
</mgrwt>
</event>
<event>
 6    1  0.1831439E-005  0.3914070E+04  0.7818608E-02  0.8022109E-01
          1   -1    0    0  501    0  0.00000000000E+00  0.00000000000E+00  0.29159834879E+04  0.29159834879E+04  0.00000000000E+00 0. -1.
         -1   -1    0    0    0  501 -0.00000000000E+00 -0.00000000000E+00 -0.13134454605E+04  0.13134454605E+04  0.00000000000E+00 0.  1.
         23    2    1    2    0    0  0.63012177441E+03  0.64006144668E+03 -0.10757766531E+04  0.14045215810E+04  0.93023427970E+02 0.  0.
         11    1    3    3    0    0  0.41424349854E+03  0.38527541239E+03 -0.61724211970E+03  0.83727095602E+03  0.00000000000E+00 0.  1.
        -11    1    3    3    0    0  0.21587827587E+03  0.25478603429E+03 -0.45853453339E+03  0.56725062501E+03  0.00000000000E+00 0. -1.
         22    1    1    2    0    0 -0.63012177441E+03 -0.64006144668E+03  0.26783146805E+04  0.28249073673E+04  0.00000000000E+00 0. -1.
<mgrwt>
<rscale>  0 0.39140696E+04</rscale>
<asrwt>0</asrwt>
<pdfrwt beam="1">  1        1 0.44861284E+00 0.39140696E+04</pdfrwt>
<pdfrwt beam="2">  1       -1 0.20206853E+00 0.39140696E+04</pdfrwt>
<totfact> 0.78936258E-02</totfact>
</mgrwt>
</event>
<event>
 6    1  0.1831439E-005  0.2972567E+04  0.7818608E-02  0.8251608E-01
         -3   -1    0    0    0  501 -0.00000000000E+00  0.00000000000E+00  0.11978231547E+04  0.11978231547E+04  0.00000000000E+00 0. -1.
          3   -1    0    0  501    0  0.00000000000E+00 -0.00000000000E+00 -0.18442107614E+04  0.18442107614E+04  0.00000000000E+00 0.  1.
         23    2    1    2    0    0  0.83772948260E+03  0.81062828892E+03 -0.12647312351E+04  0.17224666569E+04  0.91855201880E+02 0.  0.
         11    1    3    3    0    0  0.44385372643E+03  0.40196448395E+03 -0.71024427778E+03  0.92899327820E+03  0.00000000000E+00 0.  1.
        -11    1    3    3    0    0  0.39387575617E+03  0.40866380498E+03 -0.55448695736E+03  0.79347337868E+03  0.00000000000E+00 0. -1.
         22    1    1    2    0    0 -0.83772948260E+03 -0.81062828892E+03  0.61834362848E+03  0.13195672593E+04  0.00000000000E+00 0. -1.
<mgrwt>
<rscale>  0 0.29725668E+04</rscale>
<asrwt>0</asrwt>
<pdfrwt beam="1">  1        3 0.28372473E+00 0.29725668E+04</pdfrwt>
<pdfrwt beam="2">  1       -3 0.18428049E+00 0.29725668E+04</pdfrwt>
<totfact> 0.19619648E-02</totfact>
</mgrwt>
</event>
<event>
 6    1  0.1831439E-005  0.2019361E+04  0.7818608E-02  0.8597622E-01
          1   -1    0    0  501    0  0.00000000000E+00  0.00000000000E+00  0.14334402364E+04  0.14334402364E+04  0.00000000000E+00 0. -1.
         -1   -1    0    0    0  501 -0.00000000000E+00 -0.00000000000E+00 -0.71119445049E+03  0.71119445049E+03  0.00000000000E+00 0.  1.
         23    2    1    2    0    0 -0.74004345167E+03  0.64168653224E+03  0.11292314583E+03  0.99107498069E+03  0.10025998441E+03 0.  0.
         11    1    3    3    0    0 -0.62480114733E+03  0.58599272421E+03  0.95818314279E+02  0.86194262912E+03  0.00000000000E+00 0.  1.
        -11    1    3    3    0    0 -0.11524230433E+03  0.55693808032E+02  0.17104831550E+02  0.12913235158E+03  0.00000000000E+00 0. -1.
         22    1    1    2    0    0  0.74004345167E+03 -0.64168653224E+03  0.60932264004E+03  0.11535597062E+04  0.00000000000E+00 0.  1.
<mgrwt>
<rscale>  0 0.20193610E+04</rscale>
<asrwt>0</asrwt>
<pdfrwt beam="1">  1        1 0.22052927E+00 0.20193610E+04</pdfrwt>
<pdfrwt beam="2">  1       -1 0.10941453E+00 0.20193610E+04</pdfrwt>
<totfact> 0.52099868E+00</totfact>
</mgrwt>
</event>
<event>
 6    1  0.1831439E-005  0.3709690E+04  0.7818608E-02  0.8065818E-01
         -1   -1    0    0    0  501 -0.00000000000E+00  0.00000000000E+00  0.24894459043E+04  0.24894459043E+04  0.00000000000E+00 0.  1.
          1   -1    0    0  501    0  0.00000000000E+00 -0.00000000000E+00 -0.13820142658E+04  0.13820142658E+04  0.00000000000E+00 0. -1.
         23    2    1    2    0    0 -0.16924099903E+04 -0.48682838060E+03 -0.48894929926E+02  0.17647222700E+04  0.10295886897E+03 0.  0.
         13    1    3    3    0    0 -0.63967328530E+03 -0.22551694763E+03  0.11484604021E+02  0.67835956669E+03  0.00000000000E+00 0.  1.
        -13    1    3    3    0    0 -0.10527367050E+04 -0.26131143297E+03 -0.60379533948E+02  0.10863627033E+04  0.00000000000E+00 0. -1.
         22    1    1    2    0    0  0.16924099903E+04  0.48682838060E+03  0.11563265684E+04  0.21067379002E+04  0.00000000000E+00 0.  1.
<mgrwt>
<rscale>  0 0.37096899E+04</rscale>
<asrwt>0</asrwt>
<pdfrwt beam="1">  1        1 0.21261758E+00 0.37096899E+04</pdfrwt>
<pdfrwt beam="2">  1       -1 0.38299168E+00 0.37096899E+04</pdfrwt>
<totfact> 0.59177136E-02</totfact>
</mgrwt>
</event>
<event>
 6    1  0.1831439E-005  0.4140071E+04  0.7818608E-02  0.7976871E-01
          2   -1    0    0  501    0  0.00000000000E+00  0.00000000000E+00  0.19727966331E+04  0.19727966331E+04  0.00000000000E+00 0. -1.
         -2   -1    0    0    0  501 -0.00000000000E+00 -0.00000000000E+00 -0.21720668690E+04  0.21720668690E+04  0.00000000000E+00 0.  1.
         23    2    1    2    0    0 -0.10636914708E+04  0.74319294633E+03 -0.17131228000E+04  0.21509916692E+04  0.90554582760E+02 0.  0.
         13    1    3    3    0    0 -0.32361488984E+03  0.24762478325E+03 -0.47591884459E+03  0.62653282184E+03  0.00000000000E+00 0.  1.
        -13    1    3    3    0    0 -0.74007658095E+03  0.49556816308E+03 -0.12372039554E+04  0.15244588473E+04  0.00000000000E+00 0. -1.
         22    1    1    2    0    0  0.10636914708E+04 -0.74319294633E+03  0.15138525641E+04  0.19938718330E+04  0.00000000000E+00 0. -1.
<mgrwt>
<rscale>  0 0.41400706E+04</rscale>
<asrwt>0</asrwt>
<pdfrwt beam="1">  1        2 0.30350717E+00 0.41400706E+04</pdfrwt>
<pdfrwt beam="2">  1       -2 0.33416413E+00 0.41400706E+04</pdfrwt>
<totfact> 0.10551809E-01</totfact>
</mgrwt>
</event>
<event>
 6    1  0.1831439E-005  0.1545205E+04  0.7818608E-02  0.8854937E-01
         -2   -1    0    0    0  501 -0.00000000000E+00  0.00000000000E+00  0.22088553349E+03  0.22088553349E+03  0.00000000000E+00 0.  1.
          2   -1    0    0  501    0  0.00000000000E+00 -0.00000000000E+00 -0.27023690927E+04  0.27023690927E+04  0.00000000000E+00 0. -1.
         23    2    1    2    0    0  0.33916738349E+03 -0.27013680272E+03 -0.24486892969E+04  0.24884168750E+04  0.90171309988E+02 0.  0.
         11    1    3    3    0    0  0.67909658963E+02 -0.90856839190E+02 -0.79655634260E+03  0.80459225322E+03  0.00000000000E+00 0.  1.
        -11    1    3    3    0    0  0.27125772453E+03 -0.17927996353E+03 -0.16521329543E+04  0.16838246218E+04  0.00000000000E+00 0. -1.
         22    1    1    2    0    0 -0.33916738349E+03  0.27013680272E+03 -0.32794262373E+02  0.43483775118E+03  0.00000000000E+00 0.  1.
<mgrwt>
<rscale>  0 0.15452045E+04</rscale>
<asrwt>0</asrwt>
<pdfrwt beam="1">  1        2 0.41574910E+00 0.15452045E+04</pdfrwt>
<pdfrwt beam="2">  1       -2 0.33982389E-01 0.15452045E+04</pdfrwt>
<totfact> 0.20739198E+01</totfact>
</mgrwt>
</event>
<event>
 6    1  0.1831439E-005  0.1763314E+04  0.7818608E-02  0.8726056E-01
          1   -1    0    0  501    0  0.00000000000E+00  0.00000000000E+00  0.24494522843E+04  0.24494522843E+04  0.00000000000E+00 0. -1.
         -1   -1    0    0    0  501 -0.00000000000E+00 -0.00000000000E+00 -0.31734393883E+03  0.31734393883E+03  0.00000000000E+00 0.  1.
         23    2    1    2    0    0 -0.32482048796E+02  0.66318389925E+03  0.19733958128E+04  0.20841120826E+04  0.91455842596E+02 0.  0.
         13    1    3    3    0    0  0.28310228566E+02  0.20818988626E+03  0.56531656261E+03  0.60309809628E+03  0.00000000000E+00 0. -1.
        -13    1    3    3    0    0 -0.60792277362E+02  0.45499401299E+03  0.14080792502E+04  0.14810139863E+04  0.00000000000E+00 0.  1.
         22    1    1    2    0    0  0.32482048796E+02 -0.66318389925E+03  0.15871253269E+03  0.68268414054E+03  0.00000000000E+00 0.  1.
<mgrwt>
<rscale>  0 0.17633137E+04</rscale>
<asrwt>0</asrwt>
<pdfrwt beam="1">  1        1 0.37683880E+00 0.17633137E+04</pdfrwt>
<pdfrwt beam="2">  1       -1 0.48822146E-01 0.17633137E+04</pdfrwt>
<totfact> 0.58448166E+00</totfact>
</mgrwt>
</event>
<event>
 6    1  0.1831439E-005  0.9916317E+03  0.7818608E-02  0.9317771E-01
         -1   -1    0    0    0  501 -0.00000000000E+00  0.00000000000E+00  0.25156925648E+03  0.25156925648E+03  0.00000000000E+00 0.  1.
          1   -1    0    0  501    0  0.00000000000E+00 -0.00000000000E+00 -0.97719953189E+03  0.97719953189E+03  0.00000000000E+00 0. -1.
         23    2    1    2    0    0  0.91417694889E+02  0.96071616080E+02 -0.95241380484E+03  0.96605655116E+03  0.92662042006E+02 0.  0.
         11    1    3    3    0    0 -0.12863927248E+02  0.20088971597E+02 -0.63604003735E+02  0.67930234029E+02  0.00000000000E+00 0.  1.
        -11    1    3    3    0    0  0.10428162214E+03  0.75982644482E+02 -0.88880980111E+03  0.89812631713E+03  0.00000000000E+00 0. -1.
         22    1    1    2    0    0 -0.91417694889E+02 -0.96071616080E+02  0.22678352944E+03  0.26271223721E+03  0.00000000000E+00 0.  1.
<mgrwt>
<rscale>  0 0.99163171E+03</rscale>
<asrwt>0</asrwt>
<pdfrwt beam="1">  1        1 0.15033839E+00 0.99163171E+03</pdfrwt>
<pdfrwt beam="2">  1       -1 0.38702962E-01 0.99163171E+03</pdfrwt>
<totfact> 0.10222343E+02</totfact>
</mgrwt>
</event>
<event>
 6    1  0.1831439E-005  0.3322493E+04  0.7818608E-02  0.8157196E-01
          2   -1    0    0  501    0  0.00000000000E+00  0.00000000000E+00  0.37107220264E+04  0.37107220264E+04  0.00000000000E+00 0. -1.
         -2   -1    0    0    0  501 -0.00000000000E+00 -0.00000000000E+00 -0.74372034230E+03  0.74372034230E+03  0.00000000000E+00 0.  1.
         23    2    1    2    0    0 -0.55046952201E+03 -0.24403362328E+03 -0.58940895795E+03  0.84741786659E+03  0.90249747688E+02 0.  0.
         13    1    3    3    0    0 -0.19510524943E+03 -0.12352237062E+03 -0.26389005868E+03  0.35065909010E+03  0.00000000000E+00 0.  1.
        -13    1    3    3    0    0 -0.35536427257E+03 -0.12051125266E+03 -0.32551889927E+03  0.49675877649E+03  0.00000000000E+00 0. -1.
         22    1    1    2    0    0  0.55046952201E+03  0.24403362328E+03  0.35564106420E+04  0.36070245021E+04  0.00000000000E+00 0. -1.
<mgrwt>
<rscale>  0 0.33224927E+04</rscale>
<asrwt>0</asrwt>
<pdfrwt beam="1">  1        2 0.57088030E+00 0.33224927E+04</pdfrwt>
<pdfrwt beam="2">  1       -2 0.11441852E+00 0.33224927E+04</pdfrwt>
<totfact> 0.28474989E-01</totfact>
</mgrwt>
</event>
<event>
 6    1  0.1831439E-005  0.3607562E+04  0.7818608E-02  0.8088762E-01
         -1   -1    0    0    0  501 -0.00000000000E+00  0.00000000000E+00  0.15393045729E+04  0.15393045729E+04  0.00000000000E+00 0.  1.
          1   -1    0    0  501    0  0.00000000000E+00 -0.00000000000E+00 -0.21136982799E+04  0.21136982799E+04  0.00000000000E+00 0. -1.
         23    2    1    2    0    0 -0.47671119109E+03  0.17213833021E+04 -0.53339020663E+03  0.18663592623E+04  0.91530055275E+02 0.  0.
         11    1    3    3    0    0 -0.50395531493E+02  0.28535485874E+03 -0.10683878814E+03  0.30883916794E+03  0.00000000000E+00 0.  1.
        -11    1    3    3    0    0 -0.42631565960E+03  0.14360284434E+04 -0.42655141850E+03  0.15575200944E+04  0.00000000000E+00 0. -1.
         22    1    1    2    0    0  0.47671119109E+03 -0.17213833021E+04 -0.41003500309E+02  0.17866435905E+04  0.00000000000E+00 0.  1.
<mgrwt>
<rscale>  0 0.36075617E+04</rscale>
<asrwt>0</asrwt>
<pdfrwt beam="1">  1        1 0.32518435E+00 0.36075617E+04</pdfrwt>
<pdfrwt beam="2">  1       -1 0.23681609E+00 0.36075617E+04</pdfrwt>
<totfact> 0.17160935E-01</totfact>
</mgrwt>
</event>
<event>
 6    1  0.1831439E-005  0.4552448E+04  0.7818608E-02  0.7901519E-01
         -1   -1    0    0    0  501 -0.00000000000E+00  0.00000000000E+00  0.16843988399E+04  0.16843988399E+04  0.00000000000E+00 0.  1.
          1   -1    0    0  501    0  0.00000000000E+00 -0.00000000000E+00 -0.30759909732E+04  0.30759909732E+04  0.00000000000E+00 0. -1.
         23    2    1    2    0    0  0.10068998445E+04  0.22959198874E+03  0.14238590233E+04  0.17615025205E+04  0.94640548155E+02 0.  0.
         11    1    3    3    0    0  0.73124716986E+03  0.12398295387E+03  0.10028890956E+04  0.12473494836E+04  0.00000000000E+00 0.  1.
        -11    1    3    3    0    0  0.27565267468E+03  0.10560903487E+03  0.42096992768E+03  0.51415303687E+03  0.00000000000E+00 0. -1.
         22    1    1    2    0    0 -0.10068998445E+04 -0.22959198874E+03 -0.28154511566E+04  0.29988872926E+04  0.00000000000E+00 0. -1.
<mgrwt>
<rscale>  0 0.45524480E+04</rscale>
<asrwt>0</asrwt>
<pdfrwt beam="1">  1        1 0.47322938E+00 0.45524480E+04</pdfrwt>
<pdfrwt beam="2">  1       -1 0.25913828E+00 0.45524480E+04</pdfrwt>
<totfact> 0.23899779E-02</totfact>
</mgrwt>
</event>
<event>
 6    1  0.1831439E-005  0.1184234E+04  0.7818608E-02  0.9126769E-01
          1   -1    0    0  501    0  0.00000000000E+00  0.00000000000E+00  0.21760743905E+04  0.21760743905E+04  0.00000000000E+00 0. -1.
         -1   -1    0    0    0  501 -0.00000000000E+00 -0.00000000000E+00 -0.16111702925E+03  0.16111702925E+03  0.00000000000E+00 0.  1.
         23    2    1    2    0    0 -0.21593565938E+03  0.54522230296E+03  0.11155673255E+04  0.12635071063E+04  0.89800786053E+02 0.  0.
         11    1    3    3    0    0 -0.14867873675E+03  0.25961010140E+03  0.59313876747E+03  0.66431646749E+03  0.00000000000E+00 0. -1.
        -11    1    3    3    0    0 -0.67256922633E+02  0.28561220156E+03  0.52242855808E+03  0.59919063879E+03  0.00000000000E+00 0.  1.
         22    1    1    2    0    0  0.21593565938E+03 -0.54522230296E+03  0.89939003569E+03  0.10736843134E+04  0.00000000000E+00 0. -1.
<mgrwt>
<rscale>  0 0.11842342E+04</rscale>
<asrwt>0</asrwt>
<pdfrwt beam="1">  1        1 0.33478065E+00 0.11842342E+04</pdfrwt>
<pdfrwt beam="2">  1       -1 0.24787237E-01 0.11842342E+04</pdfrwt>
<totfact> 0.31965478E+01</totfact>
</mgrwt>
</event>
<event>
 6    1  0.1831439E-005  0.3946158E+04  0.7818608E-02  0.8015497E-01
         -2   -1    0    0    0  501 -0.00000000000E+00  0.00000000000E+00  0.13851011123E+04  0.13851011123E+04  0.00000000000E+00 0.  1.
          2   -1    0    0  501    0  0.00000000000E+00 -0.00000000000E+00 -0.28106542758E+04  0.28106542758E+04  0.00000000000E+00 0. -1.
         23    2    1    2    0    0 -0.10689827252E+04 -0.90455277234E+03  0.76318215354E+03  0.15973901188E+04  0.90930782855E+02 0.  0.
         11    1    3    3    0    0 -0.42691224427E+03 -0.41316776254E+03  0.34739522239E+03  0.68821879141E+03  0.00000000000E+00 0. -1.
        -11    1    3    3    0    0 -0.64207048097E+03 -0.49138500980E+03  0.41578693116E+03  0.90917132737E+03  0.00000000000E+00 0.  1.
         22    1    1    2    0    0  0.10689827252E+04  0.90455277234E+03 -0.21887353170E+04  0.25983652693E+04  0.00000000000E+00 0. -1.
<mgrwt>
<rscale>  0 0.39461578E+04</rscale>
<asrwt>0</asrwt>
<pdfrwt beam="1">  1        2 0.43240834E+00 0.39461578E+04</pdfrwt>
<pdfrwt beam="2">  1       -2 0.21309248E+00 0.39461578E+04</pdfrwt>
<totfact> 0.19739038E-01</totfact>
</mgrwt>
</event>
<event>
 6    1  0.1831439E-005  0.4923090E+04  0.7818608E-02  0.7840482E-01
         -1   -1    0    0    0  501 -0.00000000000E+00  0.00000000000E+00  0.16104226758E+04  0.16104226758E+04  0.00000000000E+00 0.  1.
          1   -1    0    0  501    0  0.00000000000E+00 -0.00000000000E+00 -0.37624929280E+04  0.37624929280E+04  0.00000000000E+00 0. -1.
         23    2    1    2    0    0  0.12374882069E+04  0.91556093850E+03  0.10187502855E+04  0.18481841563E+04  0.91124295228E+02 0.  0.
         13    1    3    3    0    0  0.87166306559E+03  0.59632018998E+03  0.71733201899E+03  0.12766986701E+04  0.00000000000E+00 0.  1.
        -13    1    3    3    0    0  0.36582514128E+03  0.31924074852E+03  0.30141826655E+03  0.57148548618E+03  0.00000000000E+00 0. -1.
         22    1    1    2    0    0 -0.12374882069E+04 -0.91556093850E+03 -0.31708205378E+04  0.35247314475E+04  0.00000000000E+00 0. -1.
<mgrwt>
<rscale>  0 0.49230901E+04</rscale>
<asrwt>0</asrwt>
<pdfrwt beam="1">  1        1 0.57884506E+00 0.49230901E+04</pdfrwt>
<pdfrwt beam="2">  1       -1 0.24775734E+00 0.49230901E+04</pdfrwt>
<totfact> 0.80066439E-03</totfact>
</mgrwt>
</event>
<event>
 6    1  0.1831439E-005  0.2648831E+04  0.7818608E-02  0.8351801E-01
          2   -1    0    0  501    0  0.00000000000E+00  0.00000000000E+00  0.18585836058E+04  0.18585836058E+04  0.00000000000E+00 0. -1.
         -2   -1    0    0    0  501 -0.00000000000E+00 -0.00000000000E+00 -0.94377082431E+03  0.94377082431E+03  0.00000000000E+00 0.  1.
         23    2    1    2    0    0 -0.10870290004E+04 -0.12637389775E+03  0.12441767648E+04  0.16595145274E+04  0.91707332129E+02 0.  0.
         13    1    3    3    0    0 -0.85854868331E+03 -0.71684072982E+02  0.10145574165E+04  0.13310038314E+04  0.00000000000E+00 0. -1.
        -13    1    3    3    0    0 -0.22848031713E+03 -0.54689824767E+02  0.22961934829E+03  0.32851069596E+03  0.00000000000E+00 0.  1.
         22    1    1    2    0    0  0.10870290004E+04  0.12637389775E+03 -0.32936398327E+03  0.11428399027E+04  0.00000000000E+00 0.  1.
<mgrwt>
<rscale>  0 0.26488314E+04</rscale>
<asrwt>0</asrwt>
<pdfrwt beam="1">  1        2 0.28593594E+00 0.26488314E+04</pdfrwt>
<pdfrwt beam="2">  1       -2 0.14519551E+00 0.26488314E+04</pdfrwt>
<totfact> 0.23033816E+00</totfact>
</mgrwt>
</event>
<event>
 6    1  0.1831439E-005  0.1739636E+04  0.7818608E-02  0.8739076E-01
         -1   -1    0    0    0  501 -0.00000000000E+00  0.00000000000E+00  0.98522441993E+03  0.98522441993E+03  0.00000000000E+00 0.  1.
          1   -1    0    0  501    0  0.00000000000E+00 -0.00000000000E+00 -0.76793015291E+03  0.76793015291E+03  0.00000000000E+00 0. -1.
         23    2    1    2    0    0 -0.62701503787E+03  0.19776061002E+03  0.67882058106E+03  0.94987152489E+03  0.95924011241E+02 0.  0.
         13    1    3    3    0    0 -0.54957067224E+02  0.48042775440E+02  0.79882763908E+02  0.10821110608E+03  0.00000000000E+00 0. -1.
        -13    1    3    3    0    0 -0.57205797065E+03  0.14971783458E+03  0.59893781715E+03  0.84166041880E+03  0.00000000000E+00 0.  1.
         22    1    1    2    0    0  0.62701503787E+03 -0.19776061002E+03 -0.46152631403E+03  0.80328304796E+03  0.00000000000E+00 0. -1.
<mgrwt>
<rscale>  0 0.17396362E+04</rscale>
<asrwt>0</asrwt>
<pdfrwt beam="1">  1        1 0.11814310E+00 0.17396362E+04</pdfrwt>
<pdfrwt beam="2">  1       -1 0.15157299E+00 0.17396362E+04</pdfrwt>
<totfact> 0.75927023E+00</totfact>
</mgrwt>
</event>
<event>
 6    1  0.1831439E-005  0.5021330E+04  0.7818608E-02  0.7825225E-01
          1   -1    0    0  501    0  0.00000000000E+00  0.00000000000E+00  0.22068142318E+04  0.22068142318E+04  0.00000000000E+00 0. -1.
         -1   -1    0    0    0  501 -0.00000000000E+00 -0.00000000000E+00 -0.28563525506E+04  0.28563525506E+04  0.00000000000E+00 0.  1.
         23    2    1    2    0    0  0.14586223957E+04 -0.15320078075E+04 -0.16869276369E+04  0.27071523910E+04  0.91225000971E+02 0.  0.
         11    1    3    3    0    0  0.22807845256E+03 -0.19975907623E+03 -0.26281824300E+03  0.40124418739E+03  0.00000000000E+00 0. -1.
        -11    1    3    3    0    0  0.12305439431E+04 -0.13322487312E+04 -0.14241093939E+04  0.23059082036E+04  0.00000000000E+00 0.  1.
         22    1    1    2    0    0 -0.14586223957E+04  0.15320078075E+04  0.10373893181E+04  0.23560143914E+04  0.00000000000E+00 0. -1.
<mgrwt>
<rscale>  0 0.50213303E+04</rscale>
<asrwt>0</asrwt>
<pdfrwt beam="1">  1        1 0.33950988E+00 0.50213303E+04</pdfrwt>
<pdfrwt beam="2">  1       -1 0.43943885E+00 0.50213303E+04</pdfrwt>
<totfact> 0.59558170E-03</totfact>
</mgrwt>
</event>
<event>
 6    1  0.1831439E-005  0.2475401E+04  0.7818608E-02  0.8411802E-01
         -2   -1    0    0    0  501 -0.00000000000E+00  0.00000000000E+00  0.51742038579E+03  0.51742038579E+03  0.00000000000E+00 0.  1.
          2   -1    0    0  501    0  0.00000000000E+00 -0.00000000000E+00 -0.29606542612E+04  0.29606542612E+04  0.00000000000E+00 0. -1.
         23    2    1    2    0    0  0.37586583351E+03 -0.28517458170E+03  0.38186421311E+03  0.61385068985E+03  0.91611818699E+02 0.  0.
         11    1    3    3    0    0  0.19795705163E+03 -0.16886122793E+03  0.26457569201E+03  0.37108139995E+03  0.00000000000E+00 0. -1.
        -11    1    3    3    0    0  0.17790878188E+03 -0.11631335377E+03  0.11728852111E+03  0.24276928990E+03  0.00000000000E+00 0.  1.
         22    1    1    2    0    0 -0.37586583351E+03  0.28517458170E+03 -0.28250980886E+04  0.28642239572E+04  0.00000000000E+00 0. -1.
<mgrwt>
<rscale>  0 0.24754013E+04</rscale>
<asrwt>0</asrwt>
<pdfrwt beam="1">  1        2 0.45548526E+00 0.24754013E+04</pdfrwt>
<pdfrwt beam="2">  1       -2 0.79603138E-01 0.24754013E+04</pdfrwt>
<totfact> 0.23022452E+00</totfact>
</mgrwt>
</event>
<event>
 6    1  0.1831439E-005  0.2618819E+04  0.7818608E-02  0.8361837E-01
          1   -1    0    0  501    0  0.00000000000E+00  0.00000000000E+00  0.26194632690E+04  0.26194632690E+04  0.00000000000E+00 0.  1.
         -1   -1    0    0    0  501 -0.00000000000E+00 -0.00000000000E+00 -0.65454396639E+03  0.65454396639E+03  0.00000000000E+00 0. -1.
         23    2    1    2    0    0  0.21209592984E+03 -0.52530721415E+03 -0.49004974439E+03  0.75452209466E+03  0.90677928224E+02 0.  0.
         11    1    3    3    0    0  0.19445760478E+02 -0.11996552226E+03 -0.13974392152E+03  0.18519780705E+03  0.00000000000E+00 0. -1.
        -11    1    3    3    0    0  0.19265016936E+03 -0.40534169189E+03 -0.35030582287E+03  0.56932428762E+03  0.00000000000E+00 0.  1.
         22    1    1    2    0    0 -0.21209592984E+03  0.52530721415E+03  0.24549690470E+04  0.25194851408E+04  0.00000000000E+00 0.  1.
<mgrwt>
<rscale>  0 0.26188195E+04</rscale>
<asrwt>0</asrwt>
<pdfrwt beam="1">  1        1 0.40299434E+00 0.26188195E+04</pdfrwt>
<pdfrwt beam="2">  1       -1 0.10069907E+00 0.26188195E+04</pdfrwt>
<totfact> 0.92187058E-01</totfact>
</mgrwt>
</event>
<event>
 6    1  0.1831439E-005  0.3821313E+04  0.7818608E-02  0.8041597E-01
          2   -1    0    0  501    0  0.00000000000E+00  0.00000000000E+00  0.40356830901E+04  0.40356830901E+04  0.00000000000E+00 0. -1.
         -2   -1    0    0    0  501 -0.00000000000E+00 -0.00000000000E+00 -0.90458242190E+03  0.90458242190E+03  0.00000000000E+00 0.  1.
         23    2    1    2    0    0 -0.72164154152E+03 -0.91251689317E+03 -0.39148044346E+03  0.12305443253E+04  0.86768681682E+02 0.  0.
         11    1    3    3    0    0 -0.67779456046E+03 -0.81956499280E+03 -0.34886903735E+03  0.11192863123E+04  0.00000000000E+00 0. -1.
        -11    1    3    3    0    0 -0.43846981066E+02 -0.92951900371E+02 -0.42611406116E+02  0.11125801303E+03  0.00000000000E+00 0.  1.
         22    1    1    2    0    0  0.72164154152E+03  0.91251689317E+03  0.35225811117E+04  0.37097211867E+04  0.00000000000E+00 0. -1.
<mgrwt>
<rscale>  0 0.38213129E+04</rscale>
<asrwt>0</asrwt>
<pdfrwt beam="1">  1        2 0.62087431E+00 0.38213129E+04</pdfrwt>
<pdfrwt beam="2">  1       -2 0.13916653E+00 0.38213129E+04</pdfrwt>
<totfact> 0.93088167E-02</totfact>
</mgrwt>
</event>
<event>
 6    1  0.1831439E-005  0.4510208E+04  0.7818608E-02  0.7908852E-01
          1   -1    0    0  501    0  0.00000000000E+00  0.00000000000E+00  0.51358106679E+04  0.51358106679E+04  0.00000000000E+00 0. -1.
         -1   -1    0    0    0  501 -0.00000000000E+00 -0.00000000000E+00 -0.99020282249E+03  0.99020282249E+03  0.00000000000E+00 0.  1.
         23    2    1    2    0    0 -0.18333987727E+03  0.11361515258E+04  0.47063051743E+04  0.48458434647E+04  0.91851460837E+02 0.  0.
         13    1    3    3    0    0 -0.14452311698E+02  0.66996437168E+02  0.20208326613E+03  0.21338940545E+03  0.00000000000E+00 0.  1.
        -13    1    3    3    0    0 -0.16888756557E+03  0.10691550886E+04  0.45042219081E+04  0.46324540593E+04  0.00000000000E+00 0. -1.
         22    1    1    2    0    0  0.18333987727E+03 -0.11361515258E+04 -0.56069732882E+03  0.12801700257E+04  0.00000000000E+00 0.  1.
<mgrwt>
<rscale>  0 0.45102081E+04</rscale>
<asrwt>0</asrwt>
<pdfrwt beam="1">  1        1 0.79012470E+00 0.45102081E+04</pdfrwt>
<pdfrwt beam="2">  1       -1 0.15233890E+00 0.45102081E+04</pdfrwt>
<totfact> 0.14111431E-03</totfact>
</mgrwt>
</event>
<event>
 6    1  0.2307808E-005  0.2518275E+04  0.7818608E-02  0.8396504E-01
         -1   -1    0    0    0  501 -0.00000000000E+00  0.00000000000E+00  0.78109285310E+03  0.78109285310E+03  0.00000000000E+00 0.  1.
          1   -1    0    0  501    0  0.00000000000E+00 -0.00000000000E+00 -0.20297547083E+04  0.20297547083E+04  0.00000000000E+00 0. -1.
         23    2    1    2    0    0  0.42931023280E+03  0.11217544828E+04 -0.10403877033E+04  0.15918239693E+04  0.94109407869E+02 0.  0.
         13    1    3    3    0    0  0.19572385312E+03  0.60147388233E+03 -0.50177801194E+03  0.80737836921E+03  0.00000000000E+00 0.  1.
        -13    1    3    3    0    0  0.23358637968E+03  0.52028060045E+03 -0.53860969133E+03  0.78444560014E+03  0.00000000000E+00 0. -1.
         22    1    1    2    0    0 -0.42931023280E+03 -0.11217544828E+04 -0.20827415194E+03  0.12190235921E+04  0.00000000000E+00 0. -1.
<mgrwt>
<rscale>  0 0.25182747E+04</rscale>
<asrwt>0</asrwt>
<pdfrwt beam="1">  1        1 0.31226995E+00 0.25182747E+04</pdfrwt>
<pdfrwt beam="2">  1       -1 0.12016813E+00 0.25182747E+04</pdfrwt>
<totfact> 0.15563651E+00</totfact>
</mgrwt>
</event>
<event>
 6    1  0.1831439E-005  0.1858271E+04  0.7818608E-02  0.8675911E-01
          2   -1    0    0  501    0  0.00000000000E+00  0.00000000000E+00  0.56617770074E+03  0.56617770074E+03  0.00000000000E+00 0. -1.
         -2   -1    0    0    0  501 -0.00000000000E+00 -0.00000000000E+00 -0.15247735140E+04  0.15247735140E+04  0.00000000000E+00 0.  1.
         23    2    1    2    0    0  0.30127787622E+03 -0.38172013961E+03  0.40717534898E+03  0.64118934075E+03  0.94092413037E+02 0.  0.
         13    1    3    3    0    0  0.43864581663E+02 -0.13981504359E+02  0.30727964262E+02  0.55351529123E+02  0.00000000000E+00 0. -1.
        -13    1    3    3    0    0  0.25741329456E+03 -0.36773863525E+03  0.37644738471E+03  0.58583781162E+03  0.00000000000E+00 0.  1.
         22    1    1    2    0    0 -0.30127787622E+03  0.38172013961E+03 -0.13657711622E+04  0.14497618740E+04  0.00000000000E+00 0.  1.
<mgrwt>
<rscale>  0 0.18582710E+04</rscale>
<asrwt>0</asrwt>
<pdfrwt beam="1">  1        2 0.87104261E-01 0.18582710E+04</pdfrwt>
<pdfrwt beam="2">  1       -2 0.23458054E+00 0.18582710E+04</pdfrwt>
<totfact> 0.39986112E+00</totfact>
</mgrwt>
</event>
<event>
 6    1  0.1831439E-005  0.3267757E+04  0.7818608E-02  0.8171148E-01
         -1   -1    0    0    0  501 -0.00000000000E+00  0.00000000000E+00  0.84581521716E+03  0.84581521716E+03  0.00000000000E+00 0.  1.
          1   -1    0    0  501    0  0.00000000000E+00 -0.00000000000E+00 -0.31561971976E+04  0.31561971976E+04  0.00000000000E+00 0. -1.
         23    2    1    2    0    0  0.14515053164E+04  0.19615735646E+03 -0.20392200338E+04  0.25124238160E+04  0.92247996190E+02 0.  0.
         11    1    3    3    0    0  0.96144801428E+03  0.15685118720E+03 -0.12954890729E+04  0.16208875707E+04  0.00000000000E+00 0.  1.
        -11    1    3    3    0    0  0.49005730216E+03  0.39306169257E+02 -0.74373096100E+03  0.89153624530E+03  0.00000000000E+00 0. -1.
         22    1    1    2    0    0 -0.14515053164E+04 -0.19615735646E+03 -0.27116194658E+03  0.14895885987E+04  0.00000000000E+00 0.  1.
<mgrwt>
<rscale>  0 0.32677574E+04</rscale>
<asrwt>0</asrwt>
<pdfrwt beam="1">  1        1 0.48556880E+00 0.32677574E+04</pdfrwt>
<pdfrwt beam="2">  1       -1 0.13012542E+00 0.32677574E+04</pdfrwt>
<totfact> 0.19272324E-01</totfact>
</mgrwt>
</event>
<event>
 6    1  0.1831439E-005  0.2472661E+04  0.7818608E-02  0.8412790E-01
          1   -1    0    0  501    0  0.00000000000E+00  0.00000000000E+00  0.81725693112E+03  0.81725693112E+03  0.00000000000E+00 0. -1.
         -1   -1    0    0    0  501 -0.00000000000E+00 -0.00000000000E+00 -0.18702967004E+04  0.18702967004E+04  0.00000000000E+00 0.  1.
         23    2    1    2    0    0  0.72149911544E+03  0.32869422451E+03 -0.15559660889E+04  0.17486522790E+04  0.90296490242E+02 0.  0.
         11    1    3    3    0    0  0.35761068627E+03  0.13063218036E+03 -0.67036265548E+03  0.77093207181E+03  0.00000000000E+00 0. -1.
        -11    1    3    3    0    0  0.36388842917E+03  0.19806204414E+03 -0.88560343343E+03  0.97772020717E+03  0.00000000000E+00 0.  1.
         22    1    1    2    0    0 -0.72149911544E+03 -0.32869422451E+03  0.50292631964E+03  0.93890135253E+03  0.00000000000E+00 0. -1.
<mgrwt>
<rscale>  0 0.24726609E+04</rscale>
<asrwt>0</asrwt>
<pdfrwt beam="1">  1        1 0.12573184E+00 0.24726609E+04</pdfrwt>
<pdfrwt beam="2">  1       -1 0.28773795E+00 0.24726609E+04</pdfrwt>
<totfact> 0.75434836E-01</totfact>
</mgrwt>
</event>
<event>
 6    1  0.1831439E-005  0.2358903E+04  0.7818608E-02  0.8455052E-01
         -2   -1    0    0    0  501 -0.00000000000E+00  0.00000000000E+00  0.92309788021E+03  0.92309788021E+03  0.00000000000E+00 0.  1.
          2   -1    0    0  501    0  0.00000000000E+00 -0.00000000000E+00 -0.15069967069E+04  0.15069967069E+04  0.00000000000E+00 0. -1.
         23    2    1    2    0    0 -0.37616718787E+03 -0.58822334031E+03 -0.12693071504E+04  0.14516810643E+04  0.93428148417E+02 0.  0.
         13    1    3    3    0    0 -0.28521065686E+03 -0.36527441372E+03 -0.81801812939E+03  0.94017241829E+03  0.00000000000E+00 0. -1.
        -13    1    3    3    0    0 -0.90956531010E+02 -0.22294892660E+03 -0.45128902102E+03  0.51150864597E+03  0.00000000000E+00 0.  1.
         22    1    1    2    0    0  0.37616718787E+03  0.58822334031E+03  0.68540832376E+03  0.97841352280E+03  0.00000000000E+00 0.  1.
<mgrwt>
<rscale>  0 0.23589027E+04</rscale>
<asrwt>0</asrwt>
<pdfrwt beam="1">  1        2 0.23184565E+00 0.23589027E+04</pdfrwt>
<pdfrwt beam="2">  1       -2 0.14201506E+00 0.23589027E+04</pdfrwt>
<totfact> 0.39278867E+00</totfact>
</mgrwt>
</event>
<event>
 6    1  0.1831439E-005  0.1484499E+04  0.7818608E-02  0.8894827E-01
          2   -1    0    0  501    0  0.00000000000E+00  0.00000000000E+00  0.26163343096E+03  0.26163343096E+03  0.00000000000E+00 0.  1.
         -2   -1    0    0    0  501 -0.00000000000E+00 -0.00000000000E+00 -0.21057479668E+04  0.21057479668E+04  0.00000000000E+00 0. -1.
         23    2    1    2    0    0 -0.90921296960E+02  0.61677717461E+03 -0.29136216019E+03  0.69414480198E+03  0.90908373394E+02 0.  0.
         11    1    3    3    0    0 -0.48567630975E+02  0.52094533827E+03 -0.26307003583E+03  0.58561822375E+03  0.00000000000E+00 0. -1.
        -11    1    3    3    0    0 -0.42353665984E+02  0.95831836344E+02 -0.28292124366E+02  0.10852657822E+03  0.00000000000E+00 0.  1.
         22    1    1    2    0    0  0.90921296960E+02 -0.61677717461E+03 -0.15527523756E+04  0.16732365958E+04  0.00000000000E+00 0. -1.
<mgrwt>
<rscale>  0 0.14844987E+04</rscale>
<asrwt>0</asrwt>
<pdfrwt beam="1">  1        2 0.40251297E-01 0.14844987E+04</pdfrwt>
<pdfrwt beam="2">  1       -2 0.32396122E+00 0.14844987E+04</pdfrwt>
<totfact> 0.28158155E+00</totfact>
</mgrwt>
</event>
<event>
 6    1  0.1831439E-005  0.2239879E+04  0.7818608E-02  0.8502010E-01
         -2   -1    0    0    0  501 -0.00000000000E+00  0.00000000000E+00  0.30029476696E+04  0.30029476696E+04  0.00000000000E+00 0.  1.
          2   -1    0    0  501    0  0.00000000000E+00 -0.00000000000E+00 -0.41767792340E+03  0.41767792340E+03  0.00000000000E+00 0. -1.
         23    2    1    2    0    0 -0.31685017394E+03 -0.92682955470E+03  0.47130287221E+03  0.10907622922E+04  0.90713419630E+02 0.  0.
         13    1    3    3    0    0 -0.79171266870E+02 -0.35553127544E+03  0.15516488113E+03  0.39591251263E+03  0.00000000000E+00 0.  1.
        -13    1    3    3    0    0 -0.23767890707E+03 -0.57129827925E+03  0.31613799108E+03  0.69484977955E+03  0.00000000000E+00 0. -1.
         22    1    1    2    0    0  0.31685017394E+03  0.92682955470E+03  0.21139668740E+04  0.23298633008E+04  0.00000000000E+00 0.  1.
<mgrwt>
<rscale>  0 0.22398794E+04</rscale>
<asrwt>0</asrwt>
<pdfrwt beam="1">  1        2 0.64258144E-01 0.22398794E+04</pdfrwt>
<pdfrwt beam="2">  1       -2 0.46199193E+00 0.22398794E+04</pdfrwt>
<totfact> 0.19945119E-01</totfact>
</mgrwt>
</event>
<event>
 6    1  0.1831439E-005  0.2188095E+04  0.7818608E-02  0.8523399E-01
          2   -1    0    0  501    0  0.00000000000E+00  0.00000000000E+00  0.57841957914E+03  0.57841957914E+03  0.00000000000E+00 0. -1.
         -2   -1    0    0    0  501 -0.00000000000E+00 -0.00000000000E+00 -0.20693289096E+04  0.20693289096E+04  0.00000000000E+00 0.  1.
         23    2    1    2    0    0  0.58245234386E+03 -0.92295154448E+03 -0.69449991041E+03  0.12966902921E+04  0.89360515473E+02 0.  0.
         13    1    3    3    0    0  0.23998263637E+03 -0.30270041643E+03 -0.23276116986E+03  0.45099553220E+03  0.00000000000E+00 0. -1.
        -13    1    3    3    0    0  0.34246970749E+03 -0.62025112805E+03 -0.46173874055E+03  0.84569475990E+03  0.00000000000E+00 0.  1.
         22    1    1    2    0    0 -0.58245234386E+03  0.92295154448E+03 -0.79640942003E+03  0.13510581966E+04  0.00000000000E+00 0.  1.
<mgrwt>
<rscale>  0 0.21880954E+04</rscale>
<asrwt>0</asrwt>
<pdfrwt beam="1">  1        2 0.88987629E-01 0.21880954E+04</pdfrwt>
<pdfrwt beam="2">  1       -2 0.31835829E+00 0.21880954E+04</pdfrwt>
<totfact> 0.11635303E+00</totfact>
</mgrwt>
</event>
<event>
 6    1  0.1831439E-005  0.1673615E+04  0.7818608E-02  0.8776558E-01
          2   -1    0    0  501    0  0.00000000000E+00  0.00000000000E+00  0.14072999159E+04  0.14072999159E+04  0.00000000000E+00 0. -1.
         -2   -1    0    0    0  501 -0.00000000000E+00 -0.00000000000E+00 -0.49758153712E+03  0.49758153712E+03  0.00000000000E+00 0.  1.
         23    2    1    2    0    0  0.63139593981E+03  0.44606235037E+03  0.81340600815E+03  0.11258381128E+04  0.90827688198E+02 0.  0.
         13    1    3    3    0    0  0.41189427843E+03  0.23867378938E+03  0.51423767280E+03  0.70075848797E+03  0.00000000000E+00 0.  1.
        -13    1    3    3    0    0  0.21950166139E+03  0.20738856099E+03  0.29916833535E+03  0.42507962485E+03  0.00000000000E+00 0. -1.
         22    1    1    2    0    0 -0.63139593981E+03 -0.44606235037E+03  0.96312370675E+02  0.77904334024E+03  0.00000000000E+00 0.  1.
<mgrwt>
<rscale>  0 0.16736146E+04</rscale>
<asrwt>0</asrwt>
<pdfrwt beam="1">  1        2 0.21650768E+00 0.16736146E+04</pdfrwt>
<pdfrwt beam="2">  1       -2 0.76551006E-01 0.16736146E+04</pdfrwt>
<totfact> 0.20850331E+01</totfact>
</mgrwt>
</event>
<event>
 6    1  0.1831439E-005  0.3584558E+03  0.7818608E-02  0.1059197E+00
          2   -1    0    0  501    0  0.00000000000E+00  0.00000000000E+00  0.63965248727E+03  0.63965248727E+03  0.00000000000E+00 0. -1.
         -2   -1    0    0    0  501 -0.00000000000E+00 -0.00000000000E+00 -0.50218888988E+02  0.50218888988E+02  0.00000000000E+00 0.  1.
         23    2    1    2    0    0  0.71506486483E+02  0.14616016224E+03  0.22825931335E+03  0.29373650689E+03  0.87765885809E+02 0.  0.
         13    1    3    3    0    0  0.47406422543E+02  0.14856933994E+03  0.21648236517E+03  0.26680485771E+03  0.00000000000E+00 0. -1.
        -13    1    3    3    0    0  0.24100063940E+02 -0.24091776934E+01  0.11776948179E+02  0.26931649179E+02  0.00000000000E+00 0.  1.
         22    1    1    2    0    0 -0.71506486483E+02 -0.14616016224E+03  0.36117428493E+03  0.39613486937E+03  0.00000000000E+00 0. -1.
<mgrwt>
<rscale>  0 0.35845578E+03</rscale>
<asrwt>0</asrwt>
<pdfrwt beam="1">  1        2 0.98408069E-01 0.35845578E+03</pdfrwt>
<pdfrwt beam="2">  1       -2 0.77259834E-02 0.35845578E+03</pdfrwt>
<totfact> 0.46924906E+03</totfact>
</mgrwt>
</event>
<event>
 6    1  0.1831439E-005  0.2307296E+04  0.7818608E-02  0.8475050E-01
          2   -1    0    0  501    0  0.00000000000E+00  0.00000000000E+00  0.77243282635E+03  0.77243282635E+03  0.00000000000E+00 0. -1.
         -2   -1    0    0    0  501 -0.00000000000E+00 -0.00000000000E+00 -0.17230021067E+04  0.17230021067E+04  0.00000000000E+00 0.  1.
         23    2    1    2    0    0  0.79102759010E+03 -0.82051834843E+03 -0.29576956162E+03  0.11810005756E+04  0.91146681649E+02 0.  0.
         13    1    3    3    0    0  0.28296349451E+03 -0.35724506568E+03 -0.11184154819E+03  0.46925569585E+03  0.00000000000E+00 0. -1.
        -13    1    3    3    0    0  0.50806409559E+03 -0.46327328275E+03 -0.18392801343E+03  0.71174487975E+03  0.00000000000E+00 0.  1.
         22    1    1    2    0    0 -0.79102759010E+03  0.82051834843E+03 -0.65479971875E+03  0.13144343575E+04  0.00000000000E+00 0.  1.
<mgrwt>
<rscale>  0 0.23072957E+04</rscale>
<asrwt>0</asrwt>
<pdfrwt beam="1">  1        2 0.11883582E+00 0.23072957E+04</pdfrwt>
<pdfrwt beam="2">  1       -2 0.26507725E+00 0.23072957E+04</pdfrwt>
<totfact> 0.16981553E+00</totfact>
</mgrwt>
</event>
<event>
 6    1  0.1831439E-005  0.8244316E+03  0.7818608E-02  0.9525311E-01
          2   -1    0    0  501    0  0.00000000000E+00  0.00000000000E+00  0.21853061240E+04  0.21853061240E+04  0.00000000000E+00 0. -1.
         -2   -1    0    0    0  501 -0.00000000000E+00 -0.00000000000E+00 -0.77756551383E+02  0.77756551383E+02  0.00000000000E+00 0.  1.
         23    2    1    2    0    0  0.26898720871E+03 -0.17263184126E+03  0.37377550341E+03  0.50007419155E+03  0.90610148650E+02 0.  0.
         13    1    3    3    0    0  0.14762877974E+03 -0.13613901947E+03  0.18726271823E+03  0.27458225519E+03  0.00000000000E+00 0.  1.
        -13    1    3    3    0    0  0.12135842898E+03 -0.36492821785E+02  0.18651278518E+03  0.22549193636E+03  0.00000000000E+00 0. -1.
         22    1    1    2    0    0 -0.26898720871E+03  0.17263184126E+03  0.17337740692E+04  0.17629884838E+04  0.00000000000E+00 0. -1.
<mgrwt>
<rscale>  0 0.82443161E+03</rscale>
<asrwt>0</asrwt>
<pdfrwt beam="1">  1        2 0.33620090E+00 0.82443161E+03</pdfrwt>
<pdfrwt beam="2">  1       -2 0.11962548E-01 0.82443161E+03</pdfrwt>
<totfact> 0.27522028E+02</totfact>
</mgrwt>
</event>
<event>
 6    1  0.1831439E-005  0.1341414E+04  0.7818608E-02  0.8997353E-01
         -1   -1    0    0    0  501 -0.00000000000E+00  0.00000000000E+00  0.75830156699E+03  0.75830156699E+03  0.00000000000E+00 0.  1.
          1   -1    0    0  501    0  0.00000000000E+00 -0.00000000000E+00 -0.59323074217E+03  0.59323074217E+03  0.00000000000E+00 0. -1.
         23    2    1    2    0    0 -0.45408714211E+03 -0.31902969922E+03  0.45696979118E+03  0.72449157030E+03  0.89953119813E+02 0.  0.
         13    1    3    3    0    0 -0.29722881497E+03 -0.18037250811E+03  0.33166410857E+03  0.48050004271E+03  0.00000000000E+00 0. -1.
        -13    1    3    3    0    0 -0.15685832714E+03 -0.13865719111E+03  0.12530568261E+03  0.24399152759E+03  0.00000000000E+00 0.  1.
         22    1    1    2    0    0  0.45408714211E+03  0.31902969922E+03 -0.29189896636E+03  0.62704073885E+03  0.00000000000E+00 0. -1.
<mgrwt>
<rscale>  0 0.13414139E+04</rscale>
<asrwt>0</asrwt>
<pdfrwt beam="1">  1        1 0.91266268E-01 0.13414139E+04</pdfrwt>
<pdfrwt beam="2">  1       -1 0.11666178E+00 0.13414139E+04</pdfrwt>
<totfact> 0.22620570E+01</totfact>
</mgrwt>
</event>
<event>
 6    1  0.1831439E-005  0.4915158E+04  0.7818608E-02  0.7841730E-01
          2   -1    0    0  501    0  0.00000000000E+00  0.00000000000E+00  0.23803025051E+04  0.23803025051E+04  0.00000000000E+00 0. -1.
         -2   -1    0    0    0  501 -0.00000000000E+00 -0.00000000000E+00 -0.25373641201E+04  0.25373641201E+04  0.00000000000E+00 0.  1.
         23    2    1    2    0    0  0.24345030091E+04 -0.27581553023E+03 -0.25993600842E+03  0.24654304520E+04  0.88890252540E+02 0.  0.
         13    1    3    3    0    0  0.19862818978E+04 -0.20526959886E+03 -0.18317207371E+03  0.20052439738E+04  0.00000000000E+00 0. -1.
        -13    1    3    3    0    0  0.44822111127E+03 -0.70545931369E+02 -0.76763934714E+02  0.46018647818E+03  0.00000000000E+00 0.  1.
         22    1    1    2    0    0 -0.24345030091E+04  0.27581553023E+03  0.10287439342E+03  0.24522361731E+04  0.00000000000E+00 0. -1.
<mgrwt>
<rscale>  0 0.49151578E+04</rscale>
<asrwt>0</asrwt>
<pdfrwt beam="1">  1        2 0.36620039E+00 0.49151578E+04</pdfrwt>
<pdfrwt beam="2">  1       -2 0.39036371E+00 0.49151578E+04</pdfrwt>
<totfact> 0.25664624E-02</totfact>
</mgrwt>
</event>
<event>
 6    1  0.1831439E-005  0.2163142E+04  0.7818608E-02  0.8533928E-01
          2   -1    0    0  501    0  0.00000000000E+00  0.00000000000E+00  0.32573635881E+04  0.32573635881E+04  0.00000000000E+00 0. -1.
         -2   -1    0    0    0  501 -0.00000000000E+00 -0.00000000000E+00 -0.35912361575E+03  0.35912361575E+03  0.00000000000E+00 0.  1.
         23    2    1    2    0    0  0.86023581653E+03  0.23177920734E+03  0.24713676144E+04  0.26285867681E+04  0.89906901998E+02 0.  0.
         11    1    3    3    0    0  0.12779156007E+03  0.48079585180E+02  0.47277479219E+03  0.49209585800E+03  0.00000000000E+00 0.  1.
        -11    1    3    3    0    0  0.73244425647E+03  0.18369962216E+03  0.19985928222E+04  0.21364909101E+04  0.00000000000E+00 0. -1.
         22    1    1    2    0    0 -0.86023581653E+03 -0.23177920734E+03  0.42687235800E+03  0.98790043579E+03  0.00000000000E+00 0.  1.
<mgrwt>
<rscale>  0 0.21631423E+04</rscale>
<asrwt>0</asrwt>
<pdfrwt beam="1">  1        2 0.50113284E+00 0.21631423E+04</pdfrwt>
<pdfrwt beam="2">  1       -2 0.55249789E-01 0.21631423E+04</pdfrwt>
<totfact> 0.33655655E+00</totfact>
</mgrwt>
</event>
<event>
 6    1  0.1831439E-005  0.5214608E+04  0.7818608E-02  0.7796229E-01
         -1   -1    0    0    0  501 -0.00000000000E+00  0.00000000000E+00  0.47467376848E+04  0.47467376848E+04  0.00000000000E+00 0.  1.
          1   -1    0    0  501    0  0.00000000000E+00 -0.00000000000E+00 -0.14321486207E+04  0.14321486207E+04  0.00000000000E+00 0. -1.
         23    2    1    2    0    0 -0.97776341094E+03 -0.19183982861E+04  0.33983037230E+04  0.40240588378E+04  0.91148583449E+02 0.  0.
         13    1    3    3    0    0 -0.47166970502E+03 -0.98566571527E+03  0.16559345738E+04  0.19839678742E+04  0.00000000000E+00 0. -1.
        -13    1    3    3    0    0 -0.50609370592E+03 -0.93273257080E+03  0.17423691492E+04  0.20400909636E+04  0.00000000000E+00 0.  1.
         22    1    1    2    0    0  0.97776341094E+03  0.19183982861E+04 -0.83714658948E+02  0.21548274678E+04  0.00000000000E+00 0. -1.
<mgrwt>
<rscale>  0 0.52146079E+04</rscale>
<asrwt>0</asrwt>
<pdfrwt beam="1">  1        1 0.22033056E+00 0.52146079E+04</pdfrwt>
<pdfrwt beam="2">  1       -1 0.73026733E+00 0.52146079E+04</pdfrwt>
<totfact> 0.80643702E-04</totfact>
</mgrwt>
</event>
<event>
 6    1  0.1831439E-005  0.1118758E+04  0.7818608E-02  0.9187099E-01
          2   -1    0    0  501    0  0.00000000000E+00  0.00000000000E+00  0.11299615887E+04  0.11299615887E+04  0.00000000000E+00 0. -1.
         -2   -1    0    0    0  501 -0.00000000000E+00 -0.00000000000E+00 -0.27691659980E+03  0.27691659980E+03  0.00000000000E+00 0.  1.
         23    2    1    2    0    0  0.54594041023E+03 -0.11980974878E+02  0.55887224932E+03  0.78661044308E+03  0.90682538657E+02 0.  0.
         13    1    3    3    0    0  0.29121985089E+03 -0.31752396637E+02  0.35140624111E+03  0.45749706287E+03  0.00000000000E+00 0. -1.
        -13    1    3    3    0    0  0.25472055933E+03  0.19771421759E+02  0.20746600821E+03  0.32911338020E+03  0.00000000000E+00 0.  1.
         22    1    1    2    0    0 -0.54594041023E+03  0.11980974878E+02  0.29417273953E+03  0.62026774538E+03  0.00000000000E+00 0.  1.
<mgrwt>
<rscale>  0 0.11187585E+04</rscale>
<asrwt>0</asrwt>
<pdfrwt beam="1">  1        2 0.17384024E+00 0.11187585E+04</pdfrwt>
<pdfrwt beam="2">  1       -2 0.42602554E-01 0.11187585E+04</pdfrwt>
<totfact> 0.10809847E+02</totfact>
</mgrwt>
</event>
<event>
 6    1  0.1831439E-005  0.9410818E+03  0.7818608E-02  0.9375636E-01
         -2   -1    0    0    0  501 -0.00000000000E+00  0.00000000000E+00  0.54604520412E+03  0.54604520412E+03  0.00000000000E+00 0. -1.
          2   -1    0    0  501    0  0.00000000000E+00 -0.00000000000E+00 -0.40547695493E+03  0.40547695493E+03  0.00000000000E+00 0.  1.
         23    2    1    2    0    0  0.16181201046E+03 -0.40006907305E+03  0.24986992879E+03  0.50634214253E+03  0.87800877273E+02 0.  0.
         11    1    3    3    0    0  0.14289880469E+03 -0.36968156299E+03  0.19726874548E+03  0.44271829004E+03  0.00000000000E+00 0.  1.
        -11    1    3    3    0    0  0.18913205768E+02 -0.30387510068E+02  0.52601183308E+02  0.63623852493E+02  0.00000000000E+00 0. -1.
         22    1    1    2    0    0 -0.16181201046E+03  0.40006907305E+03 -0.10930167961E+03  0.44518001652E+03  0.00000000000E+00 0. -1.
<mgrwt>
<rscale>  0 0.94108182E+03</rscale>
<asrwt>0</asrwt>
<pdfrwt beam="1">  1        2 0.62381070E-01 0.94108182E+03</pdfrwt>
<pdfrwt beam="2">  1       -2 0.84006955E-01 0.94108182E+03</pdfrwt>
<totfact> 0.97102847E+01</totfact>
</mgrwt>
</event>
<event>
 6    1  0.1831439E-005  0.8477431E+03  0.7818608E-02  0.9493371E-01
         -1   -1    0    0    0  501 -0.00000000000E+00  0.00000000000E+00  0.43615106822E+03  0.43615106822E+03  0.00000000000E+00 0.  1.
          1   -1    0    0  501    0  0.00000000000E+00 -0.00000000000E+00 -0.41193771961E+03  0.41193771961E+03  0.00000000000E+00 0. -1.
         23    2    1    2    0    0 -0.76154894271E+02 -0.10967419181E+03 -0.38519068899E+03  0.41746173076E+03  0.89857851606E+02 0.  0.
         11    1    3    3    0    0 -0.20031544637E+02 -0.44178860137E+02 -0.43842672194E+02  0.65385123451E+02  0.00000000000E+00 0. -1.
        -11    1    3    3    0    0 -0.56123349634E+02 -0.65495331675E+02 -0.34134801679E+03  0.35207660731E+03  0.00000000000E+00 0.  1.
         22    1    1    2    0    0  0.76154894271E+02  0.10967419181E+03  0.40940403761E+03  0.43062705707E+03  0.00000000000E+00 0.  1.
<mgrwt>
<rscale>  0 0.84774307E+03</rscale>
<asrwt>0</asrwt>
<pdfrwt beam="1">  1        1 0.63375034E-01 0.84774307E+03</pdfrwt>
<pdfrwt beam="2">  1       -1 0.67100164E-01 0.84774307E+03</pdfrwt>
<totfact> 0.13115366E+02</totfact>
</mgrwt>
</event>
<event>
 6    1  0.1961874E-005  0.2384791E+04  0.7818608E-02  0.8445220E-01
         -1   -1    0    0    0  501 -0.00000000000E+00  0.00000000000E+00  0.11507575191E+04  0.11507575191E+04  0.00000000000E+00 0.  1.
          1   -1    0    0  501    0  0.00000000000E+00 -0.00000000000E+00 -0.12355397126E+04  0.12355397126E+04  0.00000000000E+00 0. -1.
         23    2    1    2    0    0  0.83743124687E+03 -0.27479223616E+03 -0.84350529292E+03  0.12233429729E+04  0.90911957160E+02 0.  0.
         13    1    3    3    0    0  0.47661935195E+03 -0.11759419237E+03 -0.43195273821E+03  0.65389415717E+03  0.00000000000E+00 0. -1.
        -13    1    3    3    0    0  0.36081189491E+03 -0.15719804379E+03 -0.41155255471E+03  0.56944881576E+03  0.00000000000E+00 0.  1.
         22    1    1    2    0    0 -0.83743124687E+03  0.27479223616E+03  0.75872309940E+03  0.11629542587E+04  0.00000000000E+00 0.  1.
<mgrwt>
<rscale>  0 0.23847907E+04</rscale>
<asrwt>0</asrwt>
<pdfrwt beam="1">  1        1 0.19008303E+00 0.23847907E+04</pdfrwt>
<pdfrwt beam="2">  1       -1 0.17703962E+00 0.23847907E+04</pdfrwt>
<totfact> 0.19747479E+00</totfact>
</mgrwt>
</event>
<event>
 6    1  0.1831439E-005  0.2782010E+04  0.7818608E-02  0.8308875E-01
          1   -1    0    0  501    0  0.00000000000E+00  0.00000000000E+00  0.23345168611E+04  0.23345168611E+04  0.00000000000E+00 0. -1.
         -1   -1    0    0    0  501 -0.00000000000E+00 -0.00000000000E+00 -0.82882037183E+03  0.82882037183E+03  0.00000000000E+00 0.  1.
         23    2    1    2    0    0  0.26671647181E+03 -0.13307774004E+04  0.41494070872E+03  0.14221151510E+04  0.90163990361E+02 0.  0.
         11    1    3    3    0    0  0.15283161634E+03 -0.95665610655E+03  0.31069033461E+03  0.10173872877E+04  0.00000000000E+00 0. -1.
        -11    1    3    3    0    0  0.11388485547E+03 -0.37412129387E+03  0.10425037411E+03  0.40472786330E+03  0.00000000000E+00 0.  1.
         22    1    1    2    0    0 -0.26671647181E+03  0.13307774004E+04  0.10907557806E+04  0.17412220819E+04  0.00000000000E+00 0. -1.
<mgrwt>
<rscale>  0 0.27820102E+04</rscale>
<asrwt>0</asrwt>
<pdfrwt beam="1">  1        1 0.35915644E+00 0.27820102E+04</pdfrwt>
<pdfrwt beam="2">  1       -1 0.12751083E+00 0.27820102E+04</pdfrwt>
<totfact> 0.81338581E-01</totfact>
</mgrwt>
</event>
<event>
 6    1  0.1831439E-005  0.1668435E+04  0.7818608E-02  0.8779575E-01
          1   -1    0    0  501    0  0.00000000000E+00  0.00000000000E+00  0.77685542228E+03  0.77685542228E+03  0.00000000000E+00 0. -1.
         -1   -1    0    0    0  501 -0.00000000000E+00 -0.00000000000E+00 -0.89581534192E+03  0.89581534192E+03  0.00000000000E+00 0.  1.
         23    2    1    2    0    0 -0.52237877796E+03 -0.10982167095E+03 -0.69908067826E+03  0.88433043056E+03  0.91575808130E+02 0.  0.
         13    1    3    3    0    0 -0.31260812759E+03 -0.66397226124E+02 -0.34323480973E+03  0.46898034893E+03  0.00000000000E+00 0.  1.
        -13    1    3    3    0    0 -0.20977065037E+03 -0.43424444831E+02 -0.35584586853E+03  0.41535008163E+03  0.00000000000E+00 0. -1.
         22    1    1    2    0    0  0.52237877796E+03  0.10982167095E+03  0.58012075861E+03  0.78834033364E+03  0.00000000000E+00 0. -1.
<mgrwt>
<rscale>  0 0.16684352E+04</rscale>
<asrwt>0</asrwt>
<pdfrwt beam="1">  1        1 0.11951622E+00 0.16684352E+04</pdfrwt>
<pdfrwt beam="2">  1       -1 0.13781775E+00 0.16684352E+04</pdfrwt>
<totfact> 0.96565726E+00</totfact>
</mgrwt>
</event>
<event>
 6    1  0.1831439E-005  0.3308368E+04  0.7818608E-02  0.8160770E-01
          1   -1    0    0  501    0  0.00000000000E+00  0.00000000000E+00  0.18799565522E+04  0.18799565522E+04  0.00000000000E+00 0.  1.
         -1   -1    0    0    0  501 -0.00000000000E+00 -0.00000000000E+00 -0.14555251044E+04  0.14555251044E+04  0.00000000000E+00 0. -1.
         23    2    1    2    0    0 -0.55380564278E+03 -0.12125507554E+04  0.11976905324E+04  0.17944074740E+04  0.91954047528E+02 0.  0.
         11    1    3    3    0    0 -0.13734174952E+03 -0.39640716685E+03  0.35549531129E+03  0.54988936564E+03  0.00000000000E+00 0. -1.
        -11    1    3    3    0    0 -0.41646389325E+03 -0.81614358856E+03  0.84219522109E+03  0.12445181083E+04  0.00000000000E+00 0.  1.
         22    1    1    2    0    0  0.55380564278E+03  0.12125507554E+04 -0.77325908463E+03  0.15410741826E+04  0.00000000000E+00 0. -1.
<mgrwt>
<rscale>  0 0.33083675E+04</rscale>
<asrwt>0</asrwt>
<pdfrwt beam="1">  1        1 0.28922408E+00 0.33083675E+04</pdfrwt>
<pdfrwt beam="2">  1       -1 0.22392694E+00 0.33083675E+04</pdfrwt>
<totfact> 0.30876741E-01</totfact>
</mgrwt>
</event>
<event>
 6    1  0.1831439E-005  0.9796241E+03  0.7818608E-02  0.9331179E-01
          2   -1    0    0  501    0  0.00000000000E+00  0.00000000000E+00  0.97496756979E+03  0.97496756979E+03  0.00000000000E+00 0. -1.
         -2   -1    0    0    0  501 -0.00000000000E+00 -0.00000000000E+00 -0.24607572659E+03  0.24607572659E+03  0.00000000000E+00 0.  1.
         23    2    1    2    0    0 -0.25762579313E+03 -0.24755599418E+03  0.77731537956E+03  0.86048836518E+03  0.92552729663E+02 0.  0.
         11    1    3    3    0    0 -0.15739093384E+03 -0.95542187732E+02  0.44438367263E+03  0.48101669845E+03  0.00000000000E+00 0.  1.
        -11    1    3    3    0    0 -0.10023485929E+03 -0.15201380645E+03  0.33293170693E+03  0.37947166673E+03  0.00000000000E+00 0. -1.
         22    1    1    2    0    0  0.25762579313E+03  0.24755599418E+03 -0.48423536366E+02  0.36055493120E+03  0.00000000000E+00 0.  1.
<mgrwt>
<rscale>  0 0.97962412E+03</rscale>
<asrwt>0</asrwt>
<pdfrwt beam="1">  1        2 0.14999501E+00 0.97962412E+03</pdfrwt>
<pdfrwt beam="2">  1       -2 0.37857805E-01 0.97962412E+03</pdfrwt>
<totfact> 0.17188047E+02</totfact>
</mgrwt>
</event>
<event>
 6    1  0.1831439E-005  0.2518341E+04  0.7818608E-02  0.8396480E-01
          1   -1    0    0  501    0  0.00000000000E+00  0.00000000000E+00  0.12898791102E+04  0.12898791102E+04  0.00000000000E+00 0. -1.
         -1   -1    0    0    0  501 -0.00000000000E+00 -0.00000000000E+00 -0.12291929362E+04  0.12291929362E+04  0.00000000000E+00 0.  1.
         23    2    1    2    0    0 -0.54586760090E+03  0.36158861210E+03 -0.10434143268E+04  0.12354226869E+04  0.94010615298E+02 0.  0.
         13    1    3    3    0    0 -0.22441047700E+03  0.12659902546E+03 -0.49042087788E+03  0.55398557102E+03  0.00000000000E+00 0. -1.
        -13    1    3    3    0    0 -0.32145712390E+03  0.23498958664E+03 -0.55299344891E+03  0.68143711586E+03  0.00000000000E+00 0.  1.
         22    1    1    2    0    0  0.54586760090E+03 -0.36158861210E+03  0.11041005008E+04  0.12836493595E+04  0.00000000000E+00 0. -1.
<mgrwt>
<rscale>  0 0.25183410E+04</rscale>
<asrwt>0</asrwt>
<pdfrwt beam="1">  1        1 0.19844294E+00 0.25183410E+04</pdfrwt>
<pdfrwt beam="2">  1       -1 0.18910661E+00 0.25183410E+04</pdfrwt>
<totfact> 0.14626796E+00</totfact>
</mgrwt>
</event>
<event>
 6    1  0.1831439E-005  0.1470262E+04  0.7818608E-02  0.8904473E-01
          1   -1    0    0  501    0  0.00000000000E+00  0.00000000000E+00  0.12880941231E+04  0.12880941231E+04  0.00000000000E+00 0. -1.
         -1   -1    0    0    0  501 -0.00000000000E+00 -0.00000000000E+00 -0.41954809166E+03  0.41954809166E+03  0.00000000000E+00 0.  1.
         23    2    1    2    0    0 -0.10734058989E+03 -0.64208594936E+03  0.82540210818E+03  0.10552176852E+04  0.91647992157E+02 0.  0.
         13    1    3    3    0    0  0.47657307917E+01 -0.17392042334E+03  0.18369690072E+03  0.25301299805E+03  0.00000000000E+00 0.  1.
        -13    1    3    3    0    0 -0.11210632068E+03 -0.46816552602E+03  0.64170520746E+03  0.80220468720E+03  0.00000000000E+00 0. -1.
         22    1    1    2    0    0  0.10734058989E+03  0.64208594936E+03  0.43143923255E+02  0.65242452952E+03  0.00000000000E+00 0.  1.
<mgrwt>
<rscale>  0 0.14702618E+04</rscale>
<asrwt>0</asrwt>
<pdfrwt beam="1">  1        1 0.19816832E+00 0.14702618E+04</pdfrwt>
<pdfrwt beam="2">  1       -1 0.64545861E-01 0.14702618E+04</pdfrwt>
<totfact> 0.21771285E+01</totfact>
</mgrwt>
</event>
<event>
 6    1  0.1831439E-005  0.3409890E+04  0.7818608E-02  0.8135483E-01
         -2   -1    0    0    0  501 -0.00000000000E+00  0.00000000000E+00  0.28109048195E+04  0.28109048195E+04  0.00000000000E+00 0.  1.
          2   -1    0    0  501    0  0.00000000000E+00 -0.00000000000E+00 -0.10341288003E+04  0.10341288003E+04  0.00000000000E+00 0. -1.
         23    2    1    2    0    0 -0.28729455159E+03 -0.16734637247E+04  0.10476476941E+04  0.19971572409E+04  0.89734926529E+02 0.  0.
         13    1    3    3    0    0 -0.10665314262E+03 -0.86444437677E+03  0.51581382372E+03  0.10122760859E+04  0.00000000000E+00 0. -1.
        -13    1    3    3    0    0 -0.18064140897E+03 -0.80901934790E+03  0.53183387035E+03  0.98488115505E+03  0.00000000000E+00 0.  1.
         22    1    1    2    0    0  0.28729455159E+03  0.16734637247E+04  0.72912832512E+03  0.18478763789E+04  0.00000000000E+00 0.  1.
<mgrwt>
<rscale>  0 0.34098901E+04</rscale>
<asrwt>0</asrwt>
<pdfrwt beam="1">  1        2 0.15909674E+00 0.34098901E+04</pdfrwt>
<pdfrwt beam="2">  1       -2 0.43244689E+00 0.34098901E+04</pdfrwt>
<totfact> 0.89844942E-02</totfact>
</mgrwt>
</event>
<event>
 6    1  0.1831439E-005  0.2980185E+04  0.7818608E-02  0.8249412E-01
         -2   -1    0    0    0  501 -0.00000000000E+00  0.00000000000E+00  0.16131518171E+04  0.16131518171E+04  0.00000000000E+00 0. -1.
          2   -1    0    0  501    0  0.00000000000E+00 -0.00000000000E+00 -0.13764209291E+04  0.13764209291E+04  0.00000000000E+00 0.  1.
         23    2    1    2    0    0 -0.10779964008E+04  0.51207176033E+01  0.11487418561E+04  0.15775293801E+04  0.82997777879E+02 0.  0.
         11    1    3    3    0    0 -0.27101539442E+03  0.97274031177E+01  0.23940017743E+03  0.36174080685E+03  0.00000000000E+00 0. -1.
        -11    1    3    3    0    0 -0.80698100639E+03 -0.46066855144E+01  0.90934167869E+03  0.12157885732E+04  0.00000000000E+00 0.  1.
         22    1    1    2    0    0  0.10779964008E+04 -0.51207176033E+01 -0.91201096805E+03  0.14120433661E+04  0.00000000000E+00 0.  1.
<mgrwt>
<rscale>  0 0.29801852E+04</rscale>
<asrwt>0</asrwt>
<pdfrwt beam="1">  1        2 0.21175706E+00 0.29801852E+04</pdfrwt>
<pdfrwt beam="2">  1       -2 0.24817720E+00 0.29801852E+04</pdfrwt>
<totfact> 0.84411433E-01</totfact>
</mgrwt>
</event>
<event>
 6    1  0.1831439E-005  0.3753128E+03  0.7818608E-02  0.1052680E+00
          2   -1    0    0  501    0  0.00000000000E+00  0.00000000000E+00  0.16169464997E+03  0.16169464997E+03  0.00000000000E+00 0. -1.
         -2   -1    0    0    0  501 -0.00000000000E+00 -0.00000000000E+00 -0.21778658718E+03  0.21778658718E+03  0.00000000000E+00 0.  1.
         23    2    1    2    0    0 -0.88127982002E+01  0.37457605181E+02  0.14355201615E+03  0.17616265532E+03  0.94579924880E+02 0.  0.
         11    1    3    3    0    0  0.30140003185E+02 -0.17025466061E+02  0.57536034766E+02  0.67146716846E+02  0.00000000000E+00 0. -1.
        -11    1    3    3    0    0 -0.38952801385E+02  0.54483071242E+02  0.86015981389E+02  0.10901593848E+03  0.00000000000E+00 0.  1.
         22    1    1    2    0    0  0.88127982002E+01 -0.37457605181E+02 -0.19964395337E+03  0.20331858182E+03  0.00000000000E+00 0.  1.
<mgrwt>
<rscale>  0 0.37531281E+03</rscale>
<asrwt>0</asrwt>
<pdfrwt beam="1">  1        2 0.24876100E-01 0.37531281E+03</pdfrwt>
<pdfrwt beam="2">  1       -2 0.33505629E-01 0.37531281E+03</pdfrwt>
<totfact> 0.18143633E+03</totfact>
</mgrwt>
</event>
<event>
 6    1  0.1831439E-005  0.2511176E+04  0.7818608E-02  0.8399015E-01
          2   -1    0    0  501    0  0.00000000000E+00  0.00000000000E+00  0.97100932253E+03  0.97100932253E+03  0.00000000000E+00 0. -1.
         -2   -1    0    0    0  501 -0.00000000000E+00 -0.00000000000E+00 -0.16235692404E+04  0.16235692404E+04  0.00000000000E+00 0.  1.
         23    2    1    2    0    0  0.10294439135E+03  0.74887071483E+03  0.70697783367E+03  0.10390247088E+04  0.91377201372E+02 0.  0.
         11    1    3    3    0    0  0.50138449172E+02  0.11823790563E+03  0.11170835226E+03  0.17021404870E+03  0.00000000000E+00 0. -1.
        -11    1    3    3    0    0  0.52805942178E+02  0.63063280921E+03  0.59526948142E+03  0.86881066009E+03  0.00000000000E+00 0.  1.
         22    1    1    2    0    0 -0.10294439135E+03 -0.74887071483E+03 -0.13595377516E+04  0.15555538542E+04  0.00000000000E+00 0.  1.
<mgrwt>
<rscale>  0 0.25111757E+04</rscale>
<asrwt>0</asrwt>
<pdfrwt beam="1">  1        2 0.14938605E+00 0.25111757E+04</pdfrwt>
<pdfrwt beam="2">  1       -2 0.24977988E+00 0.25111757E+04</pdfrwt>
<totfact> 0.15106021E+00</totfact>
</mgrwt>
</event>
<event>
 6    1  0.1831439E-005  0.5856300E+04  0.7818608E-02  0.7708479E-01
          2   -1    0    0  501    0  0.00000000000E+00  0.00000000000E+00  0.20941134683E+04  0.20941134683E+04  0.00000000000E+00 0. -1.
         -2   -1    0    0    0  501 -0.00000000000E+00 -0.00000000000E+00 -0.40943634861E+04  0.40943634861E+04  0.00000000000E+00 0.  1.
         23    2    1    2    0    0 -0.15402068973E+04 -0.18992523176E+04 -0.27011259342E+04  0.36447348875E+04  0.92813979703E+02 0.  0.
         11    1    3    3    0    0 -0.63293117379E+03 -0.76814473548E+03 -0.10328546676E+04  0.14343768576E+04  0.00000000000E+00 0.  1.
        -11    1    3    3    0    0 -0.90727572349E+03 -0.11311075822E+04 -0.16682712667E+04  0.22103580298E+04  0.00000000000E+00 0. -1.
         22    1    1    2    0    0  0.15402068973E+04  0.18992523176E+04  0.70087591644E+03  0.25437420669E+04  0.00000000000E+00 0. -1.
<mgrwt>
<rscale>  0 0.58562998E+04</rscale>
<asrwt>0</asrwt>
<pdfrwt beam="1">  1        2 0.32217130E+00 0.58562998E+04</pdfrwt>
<pdfrwt beam="2">  1       -2 0.62990208E+00 0.58562998E+04</pdfrwt>
<totfact> 0.16174782E-03</totfact>
</mgrwt>
</event>
<event>
 6    1  0.1831439E-005  0.5933958E+04  0.7818608E-02  0.7698644E-01
         -2   -1    0    0    0  501 -0.00000000000E+00  0.00000000000E+00  0.32160883769E+04  0.32160883769E+04  0.00000000000E+00 0.  1.
          2   -1    0    0  501    0  0.00000000000E+00 -0.00000000000E+00 -0.27371652056E+04  0.27371652056E+04  0.00000000000E+00 0. -1.
         23    2    1    2    0    0 -0.28507507282E+02 -0.24435099961E+04 -0.14474053345E+04  0.28416148999E+04  0.90770355805E+02 0.  0.
         13    1    3    3    0    0  0.95196848110E+01 -0.19682305330E+04 -0.11829597815E+04  0.22963919309E+04  0.00000000000E+00 0. -1.
        -13    1    3    3    0    0 -0.38027192093E+02 -0.47527946313E+03 -0.26444555303E+03  0.54522296900E+03  0.00000000000E+00 0.  1.
         22    1    1    2    0    0  0.28507507282E+02  0.24435099961E+04  0.19263285058E+04  0.31116386826E+04  0.00000000000E+00 0.  1.
<mgrwt>
<rscale>  0 0.59339583E+04</rscale>
<asrwt>0</asrwt>
<pdfrwt beam="1">  1        2 0.42110234E+00 0.59339583E+04</pdfrwt>
<pdfrwt beam="2">  1       -2 0.49478282E+00 0.59339583E+04</pdfrwt>
<totfact> 0.30664443E-03</totfact>
</mgrwt>
</event>
<event>
 6    1  0.1831439E-005  0.1230758E+04  0.7818608E-02  0.9086352E-01
          1   -1    0    0  501    0  0.00000000000E+00  0.00000000000E+00  0.31074059192E+04  0.31074059192E+04  0.00000000000E+00 0. -1.
         -1   -1    0    0    0  501 -0.00000000000E+00 -0.00000000000E+00 -0.12186728295E+03  0.12186728295E+03  0.00000000000E+00 0.  1.
         23    2    1    2    0    0 -0.54504337506E+03  0.21377557579E+03  0.10343771660E+04  0.11921665872E+04  0.92481201973E+02 0.  0.
         11    1    3    3    0    0 -0.11941425051E+03  0.73337396236E+01  0.20360692685E+03  0.23615530404E+03  0.00000000000E+00 0.  1.
        -11    1    3    3    0    0 -0.42562912454E+03  0.20644183617E+03  0.83077023912E+03  0.95601128319E+03  0.00000000000E+00 0. -1.
         22    1    1    2    0    0  0.54504337506E+03 -0.21377557579E+03  0.19511614703E+04  0.20371066150E+04  0.00000000000E+00 0.  1.
<mgrwt>
<rscale>  0 0.12307577E+04</rscale>
<asrwt>0</asrwt>
<pdfrwt beam="1">  1        1 0.47806239E+00 0.12307577E+04</pdfrwt>
<pdfrwt beam="2">  1       -1 0.18748815E-01 0.12307577E+04</pdfrwt>
<totfact> 0.11369150E+01</totfact>
</mgrwt>
</event>
<event>
 6    1  0.1831439E-005  0.2144274E+04  0.7818608E-02  0.8541987E-01
         -2   -1    0    0    0  501 -0.00000000000E+00  0.00000000000E+00  0.98507909417E+03  0.98507909417E+03  0.00000000000E+00 0.  1.
          2   -1    0    0  501    0  0.00000000000E+00 -0.00000000000E+00 -0.11668886574E+04  0.11668886574E+04  0.00000000000E+00 0. -1.
         23    2    1    2    0    0  0.13167954428E+03  0.77357981124E+03 -0.82217413441E+03  0.11391340975E+04  0.76752577531E+02 0.  0.
         11    1    3    3    0    0  0.86908855919E+02  0.51513382248E+03 -0.59839421774E+03  0.79434982478E+03  0.00000000000E+00 0. -1.
        -11    1    3    3    0    0  0.44770688356E+02  0.25844598876E+03 -0.22377991667E+03  0.34478427277E+03  0.00000000000E+00 0.  1.
         22    1    1    2    0    0 -0.13167954428E+03 -0.77357981124E+03  0.64036457116E+03  0.10128336540E+04  0.00000000000E+00 0.  1.
<mgrwt>
<rscale>  0 0.21442739E+04</rscale>
<asrwt>0</asrwt>
<pdfrwt beam="1">  1        2 0.17952133E+00 0.21442739E+04</pdfrwt>
<pdfrwt beam="2">  1       -2 0.15155063E+00 0.21442739E+04</pdfrwt>
<totfact> 0.53086136E+00</totfact>
</mgrwt>
</event>
<event>
 6    1  0.1831439E-005  0.4314308E+04  0.7818608E-02  0.7943978E-01
         -2   -1    0    0    0  501 -0.00000000000E+00  0.00000000000E+00  0.21786151061E+04  0.21786151061E+04  0.00000000000E+00 0.  1.
          2   -1    0    0  501    0  0.00000000000E+00 -0.00000000000E+00 -0.21359047880E+04  0.21359047880E+04  0.00000000000E+00 0. -1.
         23    2    1    2    0    0 -0.45624396916E+03 -0.92774481412E+03 -0.18708873759E+04  0.21394968750E+04  0.91423767581E+02 0.  0.
         11    1    3    3    0    0 -0.41434997287E+03 -0.87547162848E+03 -0.17107038130E+04  0.19658697841E+04  0.00000000000E+00 0. -1.
        -11    1    3    3    0    0 -0.41893996292E+02 -0.52273185641E+02 -0.16018356293E+03  0.17362709090E+03  0.00000000000E+00 0.  1.
         22    1    1    2    0    0  0.45624396916E+03  0.92774481412E+03  0.19135976940E+04  0.21750230192E+04  0.00000000000E+00 0.  1.
<mgrwt>
<rscale>  0 0.43143085E+04</rscale>
<asrwt>0</asrwt>
<pdfrwt beam="1">  1        2 0.32860074E+00 0.43143085E+04</pdfrwt>
<pdfrwt beam="2">  1       -2 0.33517156E+00 0.43143085E+04</pdfrwt>
<totfact> 0.83166088E-02</totfact>
</mgrwt>
</event>
<event>
 6    1  0.1831439E-005  0.1182937E+04  0.7818608E-02  0.9127924E-01
          2   -1    0    0  501    0  0.00000000000E+00  0.00000000000E+00  0.12839625972E+04  0.12839625972E+04  0.00000000000E+00 0.  1.
         -2   -1    0    0    0  501 -0.00000000000E+00 -0.00000000000E+00 -0.27246510082E+03  0.27246510082E+03  0.00000000000E+00 0. -1.
         23    2    1    2    0    0 -0.25457264107E+02  0.44209734630E+03 -0.60343610347E+01  0.44671187100E+03  0.58454651454E+02 0.  0.
         13    1    3    3    0    0  0.55418510257E+01  0.37294039337E+02 -0.15118508750E+02  0.40621752666E+02  0.00000000000E+00 0.  1.
        -13    1    3    3    0    0 -0.30999115132E+02  0.40480330696E+03  0.90841477158E+01  0.40609011833E+03  0.00000000000E+00 0. -1.
         22    1    1    2    0    0  0.25457264107E+02 -0.44209734630E+03  0.10175318574E+04  0.11097158271E+04  0.00000000000E+00 0.  1.
<mgrwt>
<rscale>  0 0.11829370E+04</rscale>
<asrwt>0</asrwt>
<pdfrwt beam="1">  1        2 0.19753270E+00 0.11829370E+04</pdfrwt>
<pdfrwt beam="2">  1       -2 0.41917708E-01 0.11829370E+04</pdfrwt>
<totfact> 0.89943618E+01</totfact>
</mgrwt>
</event>
<event>
 6    1  0.1831439E-005  0.4121792E+04  0.7818608E-02  0.7980418E-01
          2   -1    0    0  501    0  0.00000000000E+00  0.00000000000E+00  0.19224763472E+04  0.19224763472E+04  0.00000000000E+00 0. -1.
         -2   -1    0    0    0  501 -0.00000000000E+00 -0.00000000000E+00 -0.22092817418E+04  0.22092817418E+04  0.00000000000E+00 0.  1.
         23    2    1    2    0    0  0.11245225423E+04  0.59462380641E+03 -0.17675819934E+04  0.21796239351E+04  0.91027333726E+02 0.  0.
         13    1    3    3    0    0  0.79334805881E+03  0.45920458598E+03 -0.12349563885E+04  0.15379815590E+04  0.00000000000E+00 0. -1.
        -13    1    3    3    0    0  0.33117448352E+03  0.13541922042E+03 -0.53262560491E+03  0.64164237610E+03  0.00000000000E+00 0.  1.
         22    1    1    2    0    0 -0.11245225423E+04 -0.59462380641E+03  0.14807765988E+04  0.19521341539E+04  0.00000000000E+00 0. -1.
<mgrwt>
<rscale>  0 0.41217918E+04</rscale>
<asrwt>0</asrwt>
<pdfrwt beam="1">  1        2 0.29576559E+00 0.41217918E+04</pdfrwt>
<pdfrwt beam="2">  1       -2 0.33988950E+00 0.41217918E+04</pdfrwt>
<totfact> 0.10378866E-01</totfact>
</mgrwt>
</event>
<event>
 6    1  0.1831439E-005  0.1807707E+04  0.7818608E-02  0.8702212E-01
          2   -1    0    0  501    0  0.00000000000E+00  0.00000000000E+00  0.74543287745E+03  0.74543287745E+03  0.00000000000E+00 0. -1.
         -2   -1    0    0    0  501 -0.00000000000E+00 -0.00000000000E+00 -0.10959421506E+04  0.10959421506E+04  0.00000000000E+00 0.  1.
         23    2    1    2    0    0 -0.57297741675E+03  0.25202526559E+03 -0.83692703614E+03  0.10486442448E+04  0.85953671964E+02 0.  0.
         11    1    3    3    0    0 -0.15975948454E+03  0.51143655324E+02 -0.28283979097E+03  0.32884208024E+03  0.00000000000E+00 0.  1.
        -11    1    3    3    0    0 -0.41321793221E+03  0.20088161026E+03 -0.55408724517E+03  0.71980216455E+03  0.00000000000E+00 0. -1.
         22    1    1    2    0    0  0.57297741675E+03 -0.25202526559E+03  0.48641776297E+03  0.79273078326E+03  0.00000000000E+00 0. -1.
<mgrwt>
<rscale>  0 0.18077072E+04</rscale>
<asrwt>0</asrwt>
<pdfrwt beam="1">  1        2 0.11468198E+00 0.18077072E+04</pdfrwt>
<pdfrwt beam="2">  1       -2 0.16860648E+00 0.18077072E+04</pdfrwt>
<totfact> 0.77723217E+00</totfact>
</mgrwt>
</event>
<event>
 6    1  0.1831439E-005  0.2779637E+04  0.7818608E-02  0.8309618E-01
          2   -1    0    0  501    0  0.00000000000E+00  0.00000000000E+00  0.18184907222E+04  0.18184907222E+04  0.00000000000E+00 0. -1.
         -2   -1    0    0    0  501 -0.00000000000E+00 -0.00000000000E+00 -0.10621972473E+04  0.10621972473E+04  0.00000000000E+00 0.  1.
         23    2    1    2    0    0  0.24588487845E+03 -0.11777617355E+04 -0.33899969855E+03  0.12536510262E+04  0.95592995453E+02 0.  0.
         13    1    3    3    0    0  0.12377917360E+03 -0.40698077993E+03 -0.93363770429E+02  0.43551283870E+03  0.00000000000E+00 0.  1.
        -13    1    3    3    0    0  0.12210570485E+03 -0.77078095560E+03 -0.24563592812E+03  0.81813818751E+03  0.00000000000E+00 0. -1.
         22    1    1    2    0    0 -0.24588487845E+03  0.11777617355E+04  0.10952931734E+04  0.16270369433E+04  0.00000000000E+00 0. -1.
<mgrwt>
<rscale>  0 0.27796373E+04</rscale>
<asrwt>0</asrwt>
<pdfrwt beam="1">  1        2 0.27976780E+00 0.27796373E+04</pdfrwt>
<pdfrwt beam="2">  1       -2 0.16341496E+00 0.27796373E+04</pdfrwt>
<totfact> 0.17465647E+00</totfact>
</mgrwt>
</event>
<event>
 6    1  0.1831439E-005  0.1351232E+04  0.7818608E-02  0.8989896E-01
          2   -1    0    0  501    0  0.00000000000E+00  0.00000000000E+00  0.90533899302E+03  0.90533899302E+03  0.00000000000E+00 0.  1.
         -2   -1    0    0    0  501 -0.00000000000E+00 -0.00000000000E+00 -0.50418384079E+03  0.50418384079E+03  0.00000000000E+00 0. -1.
         23    2    1    2    0    0  0.36982384572E+03  0.52253062238E+03 -0.14005502095E+02  0.64652460505E+03  0.89386702916E+02 0.  0.
         11    1    3    3    0    0  0.23823594879E+03  0.38537292164E+03  0.19666369269E+02  0.45349247194E+03  0.00000000000E+00 0. -1.
        -11    1    3    3    0    0  0.13158789693E+03  0.13715770074E+03 -0.33671871364E+02  0.19303213311E+03  0.00000000000E+00 0.  1.
         22    1    1    2    0    0 -0.36982384572E+03 -0.52253062238E+03  0.41516065432E+03  0.76299822876E+03  0.00000000000E+00 0.  1.
<mgrwt>
<rscale>  0 0.13512325E+04</rscale>
<asrwt>0</asrwt>
<pdfrwt beam="1">  1        2 0.13928292E+00 0.13512325E+04</pdfrwt>
<pdfrwt beam="2">  1       -2 0.77566745E-01 0.13512325E+04</pdfrwt>
<totfact> 0.42089518E+01</totfact>
</mgrwt>
</event>
<event>
 6    1  0.1831439E-005  0.2454846E+04  0.7818608E-02  0.8419251E-01
          1   -1    0    0  501    0  0.00000000000E+00  0.00000000000E+00  0.13732342930E+04  0.13732342930E+04  0.00000000000E+00 0. -1.
         -1   -1    0    0    0  501 -0.00000000000E+00 -0.00000000000E+00 -0.10970942523E+04  0.10970942523E+04  0.00000000000E+00 0.  1.
         23    2    1    2    0    0 -0.85939937664E+03 -0.83684480893E+03  0.39226726196E+03  0.12651886969E+04  0.89175732380E+02 0.  0.
         11    1    3    3    0    0 -0.22358178335E+03 -0.21948916067E+03  0.14418809762E+03  0.34489782979E+03  0.00000000000E+00 0.  1.
        -11    1    3    3    0    0 -0.63581759329E+03 -0.61735564826E+03  0.24807916435E+03  0.92029086715E+03  0.00000000000E+00 0. -1.
         22    1    1    2    0    0  0.85939937664E+03  0.83684480893E+03 -0.11612722125E+03  0.12051398484E+04  0.00000000000E+00 0.  1.
<mgrwt>
<rscale>  0 0.24548462E+04</rscale>
<asrwt>0</asrwt>
<pdfrwt beam="1">  1        1 0.21126681E+00 0.24548462E+04</pdfrwt>
<pdfrwt beam="2">  1       -1 0.16878373E+00 0.24548462E+04</pdfrwt>
<totfact> 0.17977654E+00</totfact>
</mgrwt>
</event>
<event>
 6    1  0.1831439E-005  0.4892345E+03  0.7818608E-02  0.1016628E+00
          1   -1    0    0  501    0  0.00000000000E+00  0.00000000000E+00  0.12372106129E+04  0.12372106129E+04  0.00000000000E+00 0. -1.
         -1   -1    0    0    0  501 -0.00000000000E+00 -0.00000000000E+00 -0.48364928720E+02  0.48364928720E+02  0.00000000000E+00 0.  1.
         23    2    1    2    0    0  0.74912161950E+02 -0.26721783874E+02  0.11993676328E+04  0.12053471355E+04  0.89739136741E+02 0.  0.
         11    1    3    3    0    0 -0.29043432227E+01 -0.27064506032E+02  0.64161864235E+03  0.64219576837E+03  0.00000000000E+00 0. -1.
        -11    1    3    3    0    0  0.77816505173E+02  0.34272215819E+00  0.55774899049E+03  0.56315136715E+03  0.00000000000E+00 0.  1.
         22    1    1    2    0    0 -0.74912161950E+02  0.26721783874E+02 -0.10521948661E+02  0.80228406098E+02  0.00000000000E+00 0.  1.
<mgrwt>
<rscale>  0 0.48923452E+03</rscale>
<asrwt>0</asrwt>
<pdfrwt beam="1">  1        1 0.19034007E+00 0.48923452E+03</pdfrwt>
<pdfrwt beam="2">  1       -1 0.74407592E-02 0.48923452E+03</pdfrwt>
<totfact> 0.10292102E+03</totfact>
</mgrwt>
</event>
<event>
 6    1  0.1831439E-005  0.9795786E+03  0.7818608E-02  0.9331231E-01
         -1   -1    0    0    0  501 -0.00000000000E+00  0.00000000000E+00  0.71591237072E+03  0.71591237072E+03  0.00000000000E+00 0.  1.
          1   -1    0    0  501    0  0.00000000000E+00 -0.00000000000E+00 -0.33508787971E+03  0.33508787971E+03  0.00000000000E+00 0. -1.
         23    2    1    2    0    0 -0.32234433097E+03  0.13001021370E+03  0.55574493085E+03  0.66189141778E+03  0.91865648594E+02 0.  0.
         11    1    3    3    0    0 -0.50454540415E+02  0.10513318348E+01  0.13884542025E+03  0.14773224655E+03  0.00000000000E+00 0. -1.
        -11    1    3    3    0    0 -0.27188979055E+03  0.12895888187E+03  0.41689951060E+03  0.51415917123E+03  0.00000000000E+00 0.  1.
         22    1    1    2    0    0  0.32234433097E+03 -0.13001021370E+03 -0.17492043984E+03  0.38910883265E+03  0.00000000000E+00 0. -1.
<mgrwt>
<rscale>  0 0.97957860E+03</rscale>
<asrwt>0</asrwt>
<pdfrwt beam="1">  1        1 0.51551982E-01 0.97957860E+03</pdfrwt>
<pdfrwt beam="2">  1       -1 0.11014036E+00 0.97957860E+03</pdfrwt>
<totfact> 0.57956003E+01</totfact>
</mgrwt>
</event>
<event>
 6    1  0.1895295E-005  0.4941850E+04  0.7818608E-02  0.7837540E-01
         -2   -1    0    0    0  501 -0.00000000000E+00  0.00000000000E+00  0.18992518701E+04  0.18992518701E+04  0.00000000000E+00 0.  1.
          2   -1    0    0  501    0  0.00000000000E+00 -0.00000000000E+00 -0.32146717903E+04  0.32146717903E+04  0.00000000000E+00 0. -1.
         23    2    1    2    0    0  0.77429914256E+03  0.21884402454E+04 -0.15312534785E+04  0.27825305158E+04  0.94493313294E+02 0.  0.
         11    1    3    3    0    0  0.31551990763E+03  0.82114827753E+03 -0.53326479303E+03  0.10286926875E+04  0.00000000000E+00 0.  1.
        -11    1    3    3    0    0  0.45877923493E+03  0.13672919678E+04 -0.99798868551E+03  0.17538378283E+04  0.00000000000E+00 0. -1.
         22    1    1    2    0    0 -0.77429914256E+03 -0.21884402454E+04  0.21583355828E+03  0.23313931446E+04  0.00000000000E+00 0.  1.
<mgrwt>
<rscale>  0 0.49418504E+04</rscale>
<asrwt>0</asrwt>
<pdfrwt beam="1">  1        2 0.49456489E+00 0.49418504E+04</pdfrwt>
<pdfrwt beam="2">  1       -2 0.29219260E+00 0.49418504E+04</pdfrwt>
<totfact> 0.32880280E-02</totfact>
</mgrwt>
</event>
<event>
 6    1  0.1831439E-005  0.3022092E+04  0.7818608E-02  0.8237450E-01
          2   -1    0    0  501    0  0.00000000000E+00  0.00000000000E+00  0.27932260106E+04  0.27932260106E+04  0.00000000000E+00 0. -1.
         -2   -1    0    0    0  501 -0.00000000000E+00 -0.00000000000E+00 -0.81742762135E+03  0.81742762135E+03  0.00000000000E+00 0.  1.
         23    2    1    2    0    0 -0.10788558881E+03  0.68776292309E+03 -0.61170429147E+03  0.93113366350E+03  0.90391484350E+02 0.  0.
         11    1    3    3    0    0 -0.87384192444E+02  0.36738296023E+03 -0.28511700879E+03  0.47317855536E+03  0.00000000000E+00 0.  1.
        -11    1    3    3    0    0 -0.20501396370E+02  0.32037996287E+03 -0.32658728268E+03  0.45795510814E+03  0.00000000000E+00 0. -1.
         22    1    1    2    0    0  0.10788558881E+03 -0.68776292309E+03  0.25875026807E+04  0.26795199685E+04  0.00000000000E+00 0. -1.
<mgrwt>
<rscale>  0 0.30220921E+04</rscale>
<asrwt>0</asrwt>
<pdfrwt beam="1">  1        2 0.42972707E+00 0.30220921E+04</pdfrwt>
<pdfrwt beam="2">  1       -2 0.12575810E+00 0.30220921E+04</pdfrwt>
<totfact> 0.94153247E-01</totfact>
</mgrwt>
</event>
<event>
 6    1  0.1831439E-005  0.3572167E+04  0.7818608E-02  0.8096897E-01
         -4   -1    0    0    0  501 -0.00000000000E+00  0.00000000000E+00  0.11622981620E+04  0.11622981620E+04  0.00000000000E+00 0.  1.
          4   -1    0    0  501    0  0.00000000000E+00 -0.00000000000E+00 -0.27446429226E+04  0.27446429226E+04  0.00000000000E+00 0. -1.
         23    2    1    2    0    0 -0.53816019078E+03  0.16332728506E+04 -0.26833592070E+03  0.17427285658E+04  0.88893712255E+02 0.  0.
         13    1    3    3    0    0 -0.44126929672E+03  0.14177092484E+04 -0.21296009648E+03  0.14999900359E+04  0.00000000000E+00 0. -1.
        -13    1    3    3    0    0 -0.96890894060E+02  0.21556360225E+03 -0.55375824221E+02  0.24273852986E+03  0.00000000000E+00 0.  1.
         22    1    1    2    0    0  0.53816019078E+03 -0.16332728506E+04 -0.13140088398E+04  0.21642125188E+04  0.00000000000E+00 0. -1.
<mgrwt>
<rscale>  0 0.35721665E+04</rscale>
<asrwt>0</asrwt>
<pdfrwt beam="1">  1        4 0.42225275E+00 0.35721665E+04</pdfrwt>
<pdfrwt beam="2">  1       -4 0.17881510E+00 0.35721665E+04</pdfrwt>
<totfact> 0.13953741E-03</totfact>
</mgrwt>
</event>
<event>
 6    1  0.1831439E-005  0.1666148E+04  0.7818608E-02  0.8780911E-01
          1   -1    0    0  501    0  0.00000000000E+00  0.00000000000E+00  0.14621756840E+04  0.14621756840E+04  0.00000000000E+00 0. -1.
         -1   -1    0    0    0  501 -0.00000000000E+00 -0.00000000000E+00 -0.47464348264E+03  0.47464348264E+03  0.00000000000E+00 0.  1.
         23    2    1    2    0    0  0.52415540721E+03 -0.56041233352E+03  0.86477975790E+03  0.11597290581E+04  0.91250117545E+02 0.  0.
         13    1    3    3    0    0  0.28436236515E+03 -0.26768149838E+03  0.49657612613E+03  0.63174614232E+03  0.00000000000E+00 0. -1.
        -13    1    3    3    0    0  0.23979304205E+03 -0.29273083514E+03  0.36820363177E+03  0.52798291574E+03  0.00000000000E+00 0.  1.
         22    1    1    2    0    0 -0.52415540721E+03  0.56041233352E+03  0.12275244344E+03  0.77709010857E+03  0.00000000000E+00 0.  1.
<mgrwt>
<rscale>  0 0.16661478E+04</rscale>
<asrwt>0</asrwt>
<pdfrwt beam="1">  1        1 0.22495010E+00 0.16661478E+04</pdfrwt>
<pdfrwt beam="2">  1       -1 0.73022075E-01 0.16661478E+04</pdfrwt>
<totfact> 0.12538421E+01</totfact>
</mgrwt>
</event>
<event>
 6    1  0.1831439E-005  0.2220453E+04  0.7818608E-02  0.8509963E-01
         -1   -1    0    0    0  501 -0.00000000000E+00  0.00000000000E+00  0.94517525528E+03  0.94517525528E+03  0.00000000000E+00 0.  1.
          1   -1    0    0  501    0  0.00000000000E+00 -0.00000000000E+00 -0.13040995251E+04  0.13040995251E+04  0.00000000000E+00 0. -1.
         23    2    1    2    0    0 -0.10608383532E+04  0.32132740136E+03 -0.18828384241E+03  0.11277813716E+04  0.88378201265E+02 0.  0.
         13    1    3    3    0    0 -0.80835202597E+03  0.27997315758E+03 -0.12878029890E+03  0.86510249812E+03  0.00000000000E+00 0.  1.
        -13    1    3    3    0    0 -0.25248632721E+03  0.41354243781E+02 -0.59503543510E+02  0.26267887353E+03  0.00000000000E+00 0. -1.
         22    1    1    2    0    0  0.10608383532E+04 -0.32132740136E+03 -0.17064042746E+03  0.11214934088E+04  0.00000000000E+00 0.  1.
<mgrwt>
<rscale>  0 0.22204527E+04</rscale>
<asrwt>0</asrwt>
<pdfrwt beam="1">  1        1 0.20063070E+00 0.22204527E+04</pdfrwt>
<pdfrwt beam="2">  1       -1 0.14541158E+00 0.22204527E+04</pdfrwt>
<totfact> 0.31010253E+00</totfact>
</mgrwt>
</event>
<event>
 6    1  0.1831439E-005  0.6710583E+03  0.7818608E-02  0.9768048E-01
         -2   -1    0    0    0  501 -0.00000000000E+00  0.00000000000E+00  0.20640872233E+03  0.20640872233E+03  0.00000000000E+00 0.  1.
          2   -1    0    0  501    0  0.00000000000E+00 -0.00000000000E+00 -0.54542180336E+03  0.54542180336E+03  0.00000000000E+00 0. -1.
         23    2    1    2    0    0 -0.11821682556E+03  0.26120912277E+03 -0.35411328366E+03  0.46471828321E+03  0.91440917642E+02 0.  0.
         13    1    3    3    0    0 -0.24059807910E+02  0.15430333898E+03 -0.21380871711E+03  0.26476888467E+03  0.00000000000E+00 0.  1.
        -13    1    3    3    0    0 -0.94157017654E+02  0.10690578380E+03 -0.14030456655E+03  0.19994939854E+03  0.00000000000E+00 0. -1.
         22    1    1    2    0    0  0.11821682556E+03 -0.26120912277E+03  0.15100202619E+02  0.28711224249E+03  0.00000000000E+00 0.  1.
<mgrwt>
<rscale>  0 0.67105832E+03</rscale>
<asrwt>0</asrwt>
<pdfrwt beam="1">  1        2 0.83911046E-01 0.67105832E+03</pdfrwt>
<pdfrwt beam="2">  1       -2 0.31755188E-01 0.67105832E+03</pdfrwt>
<totfact> 0.51575977E+02</totfact>
</mgrwt>
</event>
<event>
 6    1  0.1831439E-005  0.1456776E+04  0.7818608E-02  0.8913717E-01
         -1   -1    0    0    0  501 -0.00000000000E+00  0.00000000000E+00  0.46214494320E+03  0.46214494320E+03  0.00000000000E+00 0.  1.
          1   -1    0    0  501    0  0.00000000000E+00 -0.00000000000E+00 -0.11480138151E+04  0.11480138151E+04  0.00000000000E+00 0. -1.
         23    2    1    2    0    0 -0.76869075862E+02  0.60747039810E+03  0.85964560997E+02  0.62494000720E+03  0.90724679398E+02 0.  0.
         11    1    3    3    0    0 -0.37978351074E+02  0.53345464920E+03  0.64998106429E+02  0.53874017090E+03  0.00000000000E+00 0.  1.
        -11    1    3    3    0    0 -0.38890724787E+02  0.74015748905E+02  0.20966454568E+02  0.86199836297E+02  0.00000000000E+00 0. -1.
         22    1    1    2    0    0  0.76869075862E+02 -0.60747039810E+03 -0.77183343291E+03  0.98521875111E+03  0.00000000000E+00 0. -1.
<mgrwt>
<rscale>  0 0.14567756E+04</rscale>
<asrwt>0</asrwt>
<pdfrwt beam="1">  1        1 0.17661751E+00 0.14567756E+04</pdfrwt>
<pdfrwt beam="2">  1       -1 0.71099223E-01 0.14567756E+04</pdfrwt>
<totfact> 0.22639462E+01</totfact>
</mgrwt>
</event>
<event>
 6    1  0.1831439E-005  0.1612673E+04  0.7818608E-02  0.8812800E-01
         -2   -1    0    0    0  501 -0.00000000000E+00  0.00000000000E+00  0.60181291281E+03  0.60181291281E+03  0.00000000000E+00 0. -1.
          2   -1    0    0  501    0  0.00000000000E+00 -0.00000000000E+00 -0.10803669123E+04  0.10803669123E+04  0.00000000000E+00 0.  1.
         23    2    1    2    0    0 -0.40418872747E+03  0.27446468906E+03 -0.90574811425E+03  0.10331850604E+04  0.91609659453E+02 0.  0.
         13    1    3    3    0    0 -0.18156414574E+03  0.16509794115E+03 -0.38807398760E+03  0.45915606175E+03  0.00000000000E+00 0.  1.
        -13    1    3    3    0    0 -0.22262458173E+03  0.10936674790E+03 -0.51767412665E+03  0.57402899870E+03  0.00000000000E+00 0. -1.
         22    1    1    2    0    0  0.40418872747E+03 -0.27446468906E+03  0.42719411472E+03  0.64899476470E+03  0.00000000000E+00 0. -1.
<mgrwt>
<rscale>  0 0.16126733E+04</rscale>
<asrwt>0</asrwt>
<pdfrwt beam="1">  1        2 0.16621029E+00 0.16126733E+04</pdfrwt>
<pdfrwt beam="2">  1       -2 0.92586603E-01 0.16126733E+04</pdfrwt>
<totfact> 0.21246738E+01</totfact>
</mgrwt>
</event>
<event>
 6    1  0.1831439E-005  0.2536483E+04  0.7818608E-02  0.8390102E-01
          3   -1    0    0  501    0  0.00000000000E+00  0.00000000000E+00  0.10770891144E+04  0.10770891144E+04  0.00000000000E+00 0. -1.
         -3   -1    0    0    0  501 -0.00000000000E+00 -0.00000000000E+00 -0.14933175757E+04  0.14933175757E+04  0.00000000000E+00 0.  1.
         23    2    1    2    0    0 -0.64782313346E+03 -0.31734025225E+03 -0.12633894603E+04  0.14577246124E+04  0.91806695484E+02 0.  0.
         13    1    3    3    0    0 -0.33232066311E+03 -0.17460187063E+03 -0.56733779016E+03  0.68029038249E+03  0.00000000000E+00 0. -1.
        -13    1    3    3    0    0 -0.31550247036E+03 -0.14273838162E+03 -0.69605167011E+03  0.77743422992E+03  0.00000000000E+00 0.  1.
         22    1    1    2    0    0  0.64782313346E+03  0.31734025225E+03  0.84716099897E+03  0.11126820777E+04  0.00000000000E+00 0. -1.
<mgrwt>
<rscale>  0 0.25364827E+04</rscale>
<asrwt>0</asrwt>
<pdfrwt beam="1">  1        3 0.16570602E+00 0.25364827E+04</pdfrwt>
<pdfrwt beam="2">  1       -3 0.22974116E+00 0.25364827E+04</pdfrwt>
<totfact> 0.55409190E-02</totfact>
</mgrwt>
</event>
<event>
 6    1  0.1831439E-005  0.3392329E+04  0.7818608E-02  0.8139792E-01
          1   -1    0    0  501    0  0.00000000000E+00  0.00000000000E+00  0.11673057367E+04  0.11673057367E+04  0.00000000000E+00 0. -1.
         -1   -1    0    0    0  501 -0.00000000000E+00 -0.00000000000E+00 -0.24646271764E+04  0.24646271764E+04  0.00000000000E+00 0.  1.
         23    2    1    2    0    0  0.77003854349E+03 -0.12843874240E+03  0.96155648704E+03  0.12419568972E+04  0.91707074973E+02 0.  0.
         13    1    3    3    0    0  0.36009651128E+03 -0.10470795800E+03  0.43908761330E+03  0.57743500592E+03  0.00000000000E+00 0. -1.
        -13    1    3    3    0    0  0.40994203221E+03 -0.23730784399E+02  0.52246887375E+03  0.66452189124E+03  0.00000000000E+00 0.  1.
         22    1    1    2    0    0 -0.77003854349E+03  0.12843874240E+03 -0.22588779268E+04  0.23899760160E+04  0.00000000000E+00 0.  1.
<mgrwt>
<rscale>  0 0.33923287E+04</rscale>
<asrwt>0</asrwt>
<pdfrwt beam="1">  1        1 0.17958550E+00 0.33923287E+04</pdfrwt>
<pdfrwt beam="2">  1       -1 0.37917341E+00 0.33923287E+04</pdfrwt>
<totfact> 0.92081615E-02</totfact>
</mgrwt>
</event>
<event>
 6    1  0.1831439E-005  0.3957457E+04  0.7818608E-02  0.8013184E-01
          1   -1    0    0  501    0  0.00000000000E+00  0.00000000000E+00  0.15378179149E+04  0.15378179149E+04  0.00000000000E+00 0. -1.
         -1   -1    0    0    0  501 -0.00000000000E+00 -0.00000000000E+00 -0.25460532376E+04  0.25460532376E+04  0.00000000000E+00 0.  1.
         23    2    1    2    0    0 -0.43746044961E+03 -0.59323014374E+03  0.13893716251E+04  0.15755225476E+04  0.92866231720E+02 0.  0.
         11    1    3    3    0    0 -0.82212586722E+02 -0.11557325895E+03  0.19615386722E+03  0.24205872682E+03  0.00000000000E+00 0. -1.
        -11    1    3    3    0    0 -0.35524786288E+03 -0.47765688479E+03  0.11932177578E+04  0.13334638208E+04  0.00000000000E+00 0.  1.
         22    1    1    2    0    0  0.43746044961E+03  0.59323014374E+03 -0.23976069477E+04  0.25083486050E+04  0.00000000000E+00 0.  1.
<mgrwt>
<rscale>  0 0.39574569E+04</rscale>
<asrwt>0</asrwt>
<pdfrwt beam="1">  1        1 0.23658737E+00 0.39574569E+04</pdfrwt>
<pdfrwt beam="2">  1       -1 0.39170050E+00 0.39574569E+04</pdfrwt>
<totfact> 0.39394393E-02</totfact>
</mgrwt>
</event>
<event>
 6    1  0.1831439E-005  0.1833306E+04  0.7818608E-02  0.8688785E-01
          1   -1    0    0  501    0  0.00000000000E+00  0.00000000000E+00  0.18782377620E+04  0.18782377620E+04  0.00000000000E+00 0. -1.
         -1   -1    0    0    0  501 -0.00000000000E+00 -0.00000000000E+00 -0.44736252021E+03  0.44736252021E+03  0.00000000000E+00 0.  1.
         23    2    1    2    0    0  0.56873130744E+03 -0.71545392746E+03  0.74758284223E+03  0.11844525592E+04  0.93370962785E+02 0.  0.
         13    1    3    3    0    0  0.44646847428E+03 -0.54998401813E+03  0.52777785957E+03  0.88338326211E+03  0.00000000000E+00 0. -1.
        -13    1    3    3    0    0  0.12226283316E+03 -0.16546990933E+03  0.21980498266E+03  0.30106929712E+03  0.00000000000E+00 0.  1.
         22    1    1    2    0    0 -0.56873130744E+03  0.71545392746E+03  0.68329239959E+03  0.11411477230E+04  0.00000000000E+00 0.  1.
<mgrwt>
<rscale>  0 0.18333065E+04</rscale>
<asrwt>0</asrwt>
<pdfrwt beam="1">  1        1 0.28895965E+00 0.18333065E+04</pdfrwt>
<pdfrwt beam="2">  1       -1 0.68825004E-01 0.18333065E+04</pdfrwt>
<totfact> 0.72452366E+00</totfact>
</mgrwt>
</event>
<event>
 6    1  0.1831439E-005  0.2642983E+04  0.7818608E-02  0.8353746E-01
         -2   -1    0    0    0  501 -0.00000000000E+00  0.00000000000E+00  0.76617076396E+03  0.76617076396E+03  0.00000000000E+00 0. -1.
          2   -1    0    0  501    0  0.00000000000E+00 -0.00000000000E+00 -0.22793084853E+04  0.22793084853E+04  0.00000000000E+00 0.  1.
         23    2    1    2    0    0  0.10235497290E+04 -0.83316331062E+03 -0.73173509193E+03  0.15117239822E+04  0.89766384418E+02 0.  0.
         11    1    3    3    0    0  0.49226885200E+03 -0.45672352922E+03 -0.35865193094E+03  0.76128589397E+03  0.00000000000E+00 0.  1.
        -11    1    3    3    0    0  0.53128087700E+03 -0.37643978140E+03 -0.37308316099E+03  0.75043808825E+03  0.00000000000E+00 0. -1.
         22    1    1    2    0    0 -0.10235497290E+04  0.83316331062E+03 -0.78140262942E+03  0.15337552670E+04  0.00000000000E+00 0. -1.
<mgrwt>
<rscale>  0 0.26429828E+04</rscale>
<asrwt>0</asrwt>
<pdfrwt beam="1">  1        2 0.35066284E+00 0.26429828E+04</pdfrwt>
<pdfrwt beam="2">  1       -2 0.11787243E+00 0.26429828E+04</pdfrwt>
<totfact> 0.22785271E+00</totfact>
</mgrwt>
</event>
<event>
 6    1  0.1831439E-005  0.2368242E+03  0.7818608E-02  0.1121927E+00
         -1   -1    0    0    0  501 -0.00000000000E+00  0.00000000000E+00  0.42447340933E+02  0.42447340933E+02  0.00000000000E+00 0.  1.
          1   -1    0    0  501    0  0.00000000000E+00 -0.00000000000E+00 -0.33032510102E+03  0.33032510102E+03  0.00000000000E+00 0. -1.
         23    2    1    2    0    0 -0.98763850105E+02 -0.10851921573E+02 -0.20101524310E+03  0.24079835682E+03  0.87776183553E+02 0.  0.
         11    1    3    3    0    0 -0.21117377014E+02  0.18935313655E+02 -0.62829848034E+01  0.29051086265E+02  0.00000000000E+00 0.  1.
        -11    1    3    3    0    0 -0.77646473090E+02 -0.29787235228E+02 -0.19473225830E+03  0.21174727055E+03  0.00000000000E+00 0. -1.
         22    1    1    2    0    0  0.98763850105E+02  0.10851921573E+02 -0.86862516983E+02  0.13197408513E+03  0.00000000000E+00 0. -1.
<mgrwt>
<rscale>  0 0.23682417E+03</rscale>
<asrwt>0</asrwt>
<pdfrwt beam="1">  1        1 0.50819246E-01 0.23682417E+03</pdfrwt>
<pdfrwt beam="2">  1       -1 0.65303602E-02 0.23682417E+03</pdfrwt>
<totfact> 0.89594739E+03</totfact>
</mgrwt>
</event>
<event>
 6    1  0.1831439E-005  0.2255626E+04  0.7818608E-02  0.8495626E-01
          1   -1    0    0  501    0  0.00000000000E+00  0.00000000000E+00  0.12977813871E+04  0.12977813871E+04  0.00000000000E+00 0. -1.
         -1   -1    0    0    0  501 -0.00000000000E+00 -0.00000000000E+00 -0.98010493071E+03  0.98010493071E+03  0.00000000000E+00 0.  1.
         23    2    1    2    0    0  0.92579105059E+03 -0.17878376347E+03  0.78064351926E+03  0.12274620203E+04  0.90586995541E+02 0.  0.
         11    1    3    3    0    0  0.21376282595E+03 -0.64618728800E+02  0.14569266061E+03  0.26663922672E+03  0.00000000000E+00 0.  1.
        -11    1    3    3    0    0  0.71202822464E+03 -0.11416503467E+03  0.63495085865E+03  0.96082279362E+03  0.00000000000E+00 0. -1.
         22    1    1    2    0    0 -0.92579105059E+03  0.17878376347E+03 -0.46296706287E+03  0.10504242975E+04  0.00000000000E+00 0.  1.
<mgrwt>
<rscale>  0 0.22556258E+04</rscale>
<asrwt>0</asrwt>
<pdfrwt beam="1">  1        1 0.19965868E+00 0.22556258E+04</pdfrwt>
<pdfrwt beam="2">  1       -1 0.15078537E+00 0.22556258E+04</pdfrwt>
<totfact> 0.28340271E+00</totfact>
</mgrwt>
</event>
<event>
 6    1  0.1831439E-005  0.1482606E+04  0.7818608E-02  0.8896103E-01
         -1   -1    0    0    0  501 -0.00000000000E+00  0.00000000000E+00  0.38651643871E+03  0.38651643871E+03  0.00000000000E+00 0.  1.
          1   -1    0    0  501    0  0.00000000000E+00 -0.00000000000E+00 -0.14217505905E+04  0.14217505905E+04  0.00000000000E+00 0. -1.
         23    2    1    2    0    0 -0.34049173918E+03  0.65207106173E+03 -0.59924091503E+03  0.95315218519E+03  0.90984173877E+02 0.  0.
         11    1    3    3    0    0 -0.27658434134E+03  0.57938250187E+03 -0.49323124819E+03  0.80960487001E+03  0.00000000000E+00 0.  1.
        -11    1    3    3    0    0 -0.63907397832E+02  0.72688559851E+02 -0.10600966684E+03  0.14354731518E+03  0.00000000000E+00 0. -1.
         22    1    1    2    0    0  0.34049173918E+03 -0.65207106173E+03 -0.43599323678E+03  0.85511484405E+03  0.00000000000E+00 0.  1.
<mgrwt>
<rscale>  0 0.14826058E+04</rscale>
<asrwt>0</asrwt>
<pdfrwt beam="1">  1        1 0.21873086E+00 0.14826058E+04</pdfrwt>
<pdfrwt beam="2">  1       -1 0.59464068E-01 0.14826058E+04</pdfrwt>
<totfact> 0.20599125E+01</totfact>
</mgrwt>
</event>
<event>
 6    1  0.1831439E-005  0.3906961E+04  0.7818608E-02  0.8023583E-01
          2   -1    0    0  501    0  0.00000000000E+00  0.00000000000E+00  0.33229068021E+04  0.33229068021E+04  0.00000000000E+00 0. -1.
         -2   -1    0    0    0  501 -0.00000000000E+00 -0.00000000000E+00 -0.11484179244E+04  0.11484179244E+04  0.00000000000E+00 0.  1.
         23    2    1    2    0    0  0.15894499841E+04 -0.20013078385E+03 -0.18936200369E+03  0.16157696890E+04  0.91924626480E+02 0.  0.
         11    1    3    3    0    0  0.60088499242E+03 -0.72499106531E+02 -0.26845530733E+02  0.60583791321E+03  0.00000000000E+00 0.  1.
        -11    1    3    3    0    0  0.98856499168E+03 -0.12763167732E+03 -0.16251647296E+03  0.10099317758E+04  0.00000000000E+00 0. -1.
         22    1    1    2    0    0 -0.15894499841E+04  0.20013078385E+03  0.23638508814E+04  0.28555550375E+04  0.00000000000E+00 0. -1.
<mgrwt>
<rscale>  0 0.39069608E+04</rscale>
<asrwt>0</asrwt>
<pdfrwt beam="1">  1        2 0.51121643E+00 0.39069608E+04</pdfrwt>
<pdfrwt beam="2">  1       -2 0.17667968E+00 0.39069608E+04</pdfrwt>
<totfact> 0.16320449E-01</totfact>
</mgrwt>
</event>
<event>
 6    1  0.1831439E-005  0.2830439E+04  0.7818608E-02  0.8293880E-01
          1   -1    0    0  501    0  0.00000000000E+00  0.00000000000E+00  0.13145168014E+04  0.13145168014E+04  0.00000000000E+00 0. -1.
         -1   -1    0    0    0  501 -0.00000000000E+00 -0.00000000000E+00 -0.15236372550E+04  0.15236372550E+04  0.00000000000E+00 0.  1.
         23    2    1    2    0    0  0.30645046443E+02 -0.49786666423E+03 -0.14310609487E+04  0.15183249357E+04  0.92546405392E+02 0.  0.
         13    1    3    3    0    0  0.25389065626E+02 -0.16705887335E+03 -0.61381271583E+03  0.63664693664E+03  0.00000000000E+00 0. -1.
        -13    1    3    3    0    0  0.52559808171E+01 -0.33080779087E+03 -0.81724823290E+03  0.88167799906E+03  0.00000000000E+00 0.  1.
         22    1    1    2    0    0 -0.30645046443E+02  0.49786666423E+03  0.12219404952E+04  0.13198291207E+04  0.00000000000E+00 0. -1.
<mgrwt>
<rscale>  0 0.28304394E+04</rscale>
<asrwt>0</asrwt>
<pdfrwt beam="1">  1        1 0.20223335E+00 0.28304394E+04</pdfrwt>
<pdfrwt beam="2">  1       -1 0.23440573E+00 0.28304394E+04</pdfrwt>
<totfact> 0.67308652E-01</totfact>
</mgrwt>
</event>
<event>
 6    1  0.1914975E-005  0.2438375E+04  0.7818608E-02  0.8425275E-01
          1   -1    0    0  501    0  0.00000000000E+00  0.00000000000E+00  0.17029175673E+04  0.17029175673E+04  0.00000000000E+00 0. -1.
         -1   -1    0    0    0  501 -0.00000000000E+00 -0.00000000000E+00 -0.87286541378E+03  0.87286541378E+03  0.00000000000E+00 0.  1.
         23    2    1    2    0    0 -0.69648919453E+03 -0.27022890113E+03  0.14309920692E+04  0.16170079087E+04  0.94103228474E+02 0.  0.
         11    1    3    3    0    0 -0.37948460717E+03 -0.12955911356E+03  0.67226055093E+03  0.78276968473E+03  0.00000000000E+00 0.  1.
        -11    1    3    3    0    0 -0.31700458736E+03 -0.14066978757E+03  0.75873151824E+03  0.83423822396E+03  0.00000000000E+00 0. -1.
         22    1    1    2    0    0  0.69648919453E+03  0.27022890113E+03 -0.60093991569E+03  0.95877507236E+03  0.00000000000E+00 0.  1.
<mgrwt>
<rscale>  0 0.24383747E+04</rscale>
<asrwt>0</asrwt>
<pdfrwt beam="1">  1        1 0.26198732E+00 0.24383747E+04</pdfrwt>
<pdfrwt beam="2">  1       -1 0.13428699E+00 0.24383747E+04</pdfrwt>
<totfact> 0.19784817E+00</totfact>
</mgrwt>
</event>
<event>
 6    1  0.1831439E-005  0.2839573E+04  0.7818608E-02  0.8291087E-01
         -1   -1    0    0    0  501 -0.00000000000E+00  0.00000000000E+00  0.12611834916E+04  0.12611834916E+04  0.00000000000E+00 0.  1.
          1   -1    0    0  501    0  0.00000000000E+00 -0.00000000000E+00 -0.15983349212E+04  0.15983349212E+04  0.00000000000E+00 0. -1.
         23    2    1    2    0    0 -0.38646507859E+03 -0.99409174493E+03 -0.11101435338E+04  0.15422900926E+04  0.93093554047E+02 0.  0.
         11    1    3    3    0    0 -0.25477117960E+03 -0.68198274839E+03 -0.69526577218E+03  0.10066793516E+04  0.00000000000E+00 0. -1.
        -11    1    3    3    0    0 -0.13169389899E+03 -0.31210899654E+03 -0.41487776158E+03  0.53561074093E+03  0.00000000000E+00 0.  1.
         22    1    1    2    0    0  0.38646507859E+03  0.99409174493E+03  0.77299210418E+03  0.13172283202E+04  0.00000000000E+00 0.  1.
<mgrwt>
<rscale>  0 0.28395729E+04</rscale>
<asrwt>0</asrwt>
<pdfrwt beam="1">  1        1 0.24589768E+00 0.28395729E+04</pdfrwt>
<pdfrwt beam="2">  1       -1 0.19402823E+00 0.28395729E+04</pdfrwt>
<totfact> 0.79935295E-01</totfact>
</mgrwt>
</event>
<event>
 6    1  0.1831439E-005  0.4331332E+03  0.7818608E-02  0.1032875E+00
         -1   -1    0    0    0  501 -0.00000000000E+00  0.00000000000E+00  0.18470589229E+03  0.18470589229E+03  0.00000000000E+00 0.  1.
          1   -1    0    0  501    0  0.00000000000E+00 -0.00000000000E+00 -0.25392307635E+03  0.25392307635E+03  0.00000000000E+00 0. -1.
         23    2    1    2    0    0  0.17248643038E+03  0.60444094269E+02 -0.13421690713E+03  0.24464437854E+03  0.91823943452E+02 0.  0.
         13    1    3    3    0    0  0.85591887542E+02 -0.17999386088E+02 -0.58705793904E+02  0.10533906849E+03  0.00000000000E+00 0. -1.
        -13    1    3    3    0    0  0.86894542840E+02  0.78443480357E+02 -0.75511113230E+02  0.13930531005E+03  0.00000000000E+00 0.  1.
         22    1    1    2    0    0 -0.17248643038E+03 -0.60444094269E+02  0.64999723072E+02  0.19398459010E+03  0.00000000000E+00 0.  1.
<mgrwt>
<rscale>  0 0.43313318E+03</rscale>
<asrwt>0</asrwt>
<pdfrwt beam="1">  1        1 0.39065088E-01 0.43313318E+03</pdfrwt>
<pdfrwt beam="2">  1       -1 0.28416291E-01 0.43313318E+03</pdfrwt>
<totfact> 0.12197163E+03</totfact>
</mgrwt>
</event>
<event>
 6    1  0.1831439E-005  0.1754611E+04  0.7818608E-02  0.8730816E-01
         -1   -1    0    0    0  501 -0.00000000000E+00  0.00000000000E+00  0.76490457427E+03  0.76490457427E+03  0.00000000000E+00 0.  1.
          1   -1    0    0  501    0  0.00000000000E+00 -0.00000000000E+00 -0.10062234258E+04  0.10062234258E+04  0.00000000000E+00 0. -1.
         23    2    1    2    0    0 -0.13430921024E+02  0.57093033950E+03 -0.79030722448E+03  0.97896004065E+03  0.87380832670E+02 0.  0.
         13    1    3    3    0    0  0.32462668782E+02  0.34800316865E+03 -0.50058065884E+03  0.61052520526E+03  0.00000000000E+00 0. -1.
        -13    1    3    3    0    0 -0.45893589806E+02  0.22292717085E+03 -0.28972656564E+03  0.36843483539E+03  0.00000000000E+00 0.  1.
         22    1    1    2    0    0  0.13430921024E+02 -0.57093033950E+03  0.54898837299E+03  0.79216795939E+03  0.00000000000E+00 0.  1.
<mgrwt>
<rscale>  0 0.17546110E+04</rscale>
<asrwt>0</asrwt>
<pdfrwt beam="1">  1        1 0.15480360E+00 0.17546110E+04</pdfrwt>
<pdfrwt beam="2">  1       -1 0.11767763E+00 0.17546110E+04</pdfrwt>
<totfact> 0.92047323E+00</totfact>
</mgrwt>
</event>
<event>
 6    1  0.1831439E-005  0.4331898E+04  0.7818608E-02  0.7940746E-01
         -2   -1    0    0    0  501 -0.00000000000E+00  0.00000000000E+00  0.13452144929E+04  0.13452144929E+04  0.00000000000E+00 0.  1.
          2   -1    0    0  501    0  0.00000000000E+00 -0.00000000000E+00 -0.34874247882E+04  0.34874247882E+04  0.00000000000E+00 0. -1.
         23    2    1    2    0    0 -0.17686397560E+04  0.56882332763E+03  0.16841484706E+03  0.18677387577E+04  0.91858270261E+02 0.  0.
         13    1    3    3    0    0 -0.64320185164E+03  0.24688278398E+03  0.85229916534E+02  0.69420736791E+03  0.00000000000E+00 0.  1.
        -13    1    3    3    0    0 -0.11254379044E+04  0.32194054365E+03  0.83184930530E+02  0.11735313898E+04  0.00000000000E+00 0. -1.
         22    1    1    2    0    0  0.17686397560E+04 -0.56882332763E+03 -0.23106251424E+04  0.29649005233E+04  0.00000000000E+00 0. -1.
<mgrwt>
<rscale>  0 0.43318977E+04</rscale>
<asrwt>0</asrwt>
<pdfrwt beam="1">  1        2 0.53652689E+00 0.43318977E+04</pdfrwt>
<pdfrwt beam="2">  1       -2 0.20695608E+00 0.43318977E+04</pdfrwt>
<totfact> 0.76200361E-02</totfact>
</mgrwt>
</event>
<event>
 6    1  0.1831439E-005  0.6725892E+03  0.7818608E-02  0.9765292E-01
         -1   -1    0    0    0  501 -0.00000000000E+00  0.00000000000E+00  0.15264631460E+03  0.15264631460E+03  0.00000000000E+00 0.  1.
          1   -1    0    0  501    0  0.00000000000E+00 -0.00000000000E+00 -0.74088955946E+03  0.74088955946E+03  0.00000000000E+00 0. -1.
         23    2    1    2    0    0  0.13462164314E+03  0.18984459132E+02  0.10055501083E+03  0.19144867609E+03  0.89765744499E+02 0.  0.
         11    1    3    3    0    0  0.13892495611E+03  0.36792021075E+02  0.82421271545E+02  0.16567154931E+03  0.00000000000E+00 0. -1.
        -11    1    3    3    0    0 -0.43033129775E+01 -0.17807561943E+02  0.18133739287E+02  0.25777126789E+02  0.00000000000E+00 0.  1.
         22    1    1    2    0    0 -0.13462164314E+03 -0.18984459132E+02 -0.68879825570E+03  0.70208719796E+03  0.00000000000E+00 0. -1.
<mgrwt>
<rscale>  0 0.67258921E+03</rscale>
<asrwt>0</asrwt>
<pdfrwt beam="1">  1        1 0.11398301E+00 0.67258921E+03</pdfrwt>
<pdfrwt beam="2">  1       -1 0.23484049E-01 0.67258921E+03</pdfrwt>
<totfact> 0.39348997E+02</totfact>
</mgrwt>
</event>
<event>
 6    1  0.1831439E-005  0.2515102E+04  0.7818608E-02  0.8397625E-01
          1   -1    0    0  501    0  0.00000000000E+00  0.00000000000E+00  0.35881378322E+04  0.35881378322E+04  0.00000000000E+00 0. -1.
         -1   -1    0    0    0  501 -0.00000000000E+00 -0.00000000000E+00 -0.44073954865E+03  0.44073954865E+03  0.00000000000E+00 0.  1.
         23    2    1    2    0    0 -0.11342592921E+04 -0.68086409232E+02  0.24326132344E+04  0.26864551048E+04  0.90851421577E+02 0.  0.
         11    1    3    3    0    0 -0.20114739610E+03 -0.26990077767E+02  0.36405173370E+03  0.41680019681E+03  0.00000000000E+00 0.  1.
        -11    1    3    3    0    0 -0.93311189603E+03 -0.41096331465E+02  0.20685615007E+04  0.22696549080E+04  0.00000000000E+00 0. -1.
         22    1    1    2    0    0  0.11342592921E+04  0.68086409232E+02  0.71478504915E+03  0.13424222761E+04  0.00000000000E+00 0. -1.
<mgrwt>
<rscale>  0 0.25151018E+04</rscale>
<asrwt>0</asrwt>
<pdfrwt beam="1">  1        1 0.55202119E+00 0.25151018E+04</pdfrwt>
<pdfrwt beam="2">  1       -1 0.67806087E-01 0.25151018E+04</pdfrwt>
<totfact> 0.41594033E-01</totfact>
</mgrwt>
</event>
<event>
 6    1  0.1831439E-005  0.2732441E+04  0.7818608E-02  0.8324555E-01
          2   -1    0    0  501    0  0.00000000000E+00  0.00000000000E+00  0.90548430793E+03  0.90548430793E+03  0.00000000000E+00 0. -1.
         -2   -1    0    0    0  501 -0.00000000000E+00 -0.00000000000E+00 -0.20613929410E+04  0.20613929410E+04  0.00000000000E+00 0.  1.
         23    2    1    2    0    0  0.62356200325E+03  0.10966296610E+04 -0.13548832132E+02  0.12649923821E+04  0.92714457680E+02 0.  0.
         13    1    3    3    0    0  0.54698447556E+03  0.93631112048E+03 -0.41339633146E+02  0.10851633500E+04  0.00000000000E+00 0. -1.
        -13    1    3    3    0    0  0.76577527684E+02  0.16031854048E+03  0.27790801015E+02  0.17982903211E+03  0.00000000000E+00 0.  1.
         22    1    1    2    0    0 -0.62356200325E+03 -0.10966296610E+04 -0.11423598009E+04  0.17018848668E+04  0.00000000000E+00 0.  1.
<mgrwt>
<rscale>  0 0.27324414E+04</rscale>
<asrwt>0</asrwt>
<pdfrwt beam="1">  1        2 0.13930528E+00 0.27324414E+04</pdfrwt>
<pdfrwt beam="2">  1       -2 0.31713737E+00 0.27324414E+04</pdfrwt>
<totfact> 0.63440203E-01</totfact>
</mgrwt>
</event>
<event>
 6    1  0.1831439E-005  0.7958638E+03  0.7818608E-02  0.9566024E-01
         -1   -1    0    0    0  501 -0.00000000000E+00  0.00000000000E+00  0.33925733237E+03  0.33925733237E+03  0.00000000000E+00 0.  1.
          1   -1    0    0  501    0  0.00000000000E+00 -0.00000000000E+00 -0.46675419248E+03  0.46675419248E+03  0.00000000000E+00 0. -1.
         23    2    1    2    0    0 -0.19474537147E+03 -0.28496975337E+03 -0.25409903606E+03  0.43836817730E+03  0.92015317738E+02 0.  0.
         11    1    3    3    0    0 -0.14136633170E+03 -0.18174656670E+03 -0.21696753934E+03  0.31637188145E+03  0.00000000000E+00 0.  1.
        -11    1    3    3    0    0 -0.53379039772E+02 -0.10322318667E+03 -0.37131496728E+02  0.12199629585E+03  0.00000000000E+00 0. -1.
         22    1    1    2    0    0  0.19474537147E+03  0.28496975337E+03  0.12660217595E+03  0.36764334755E+03  0.00000000000E+00 0.  1.
<mgrwt>
<rscale>  0 0.79586376E+03</rscale>
<asrwt>0</asrwt>
<pdfrwt beam="1">  1        1 0.71808337E-01 0.79586376E+03</pdfrwt>
<pdfrwt beam="2">  1       -1 0.52193436E-01 0.79586376E+03</pdfrwt>
<totfact> 0.18224310E+02</totfact>
</mgrwt>
</event>
<event>
 6    1  0.2186748E-005  0.2108769E+04  0.7818608E-02  0.8557390E-01
          2   -1    0    0  501    0  0.00000000000E+00  0.00000000000E+00  0.96954407952E+03  0.96954407952E+03  0.00000000000E+00 0. -1.
         -2   -1    0    0    0  501 -0.00000000000E+00 -0.00000000000E+00 -0.11466489507E+04  0.11466489507E+04  0.00000000000E+00 0.  1.
         23    2    1    2    0    0  0.79737385699E+03 -0.55126039518E+03  0.32337331218E+03  0.10252432132E+04  0.82826663366E+02 0.  0.
         11    1    3    3    0    0  0.26141276998E+03 -0.15243850588E+03  0.68937987946E+02  0.31036523737E+03  0.00000000000E+00 0.  1.
        -11    1    3    3    0    0  0.53596108701E+03 -0.39882188930E+03  0.25443532423E+03  0.71487797588E+03  0.00000000000E+00 0. -1.
         22    1    1    2    0    0 -0.79737385699E+03  0.55126039518E+03 -0.50047818334E+03  0.10909498170E+04  0.00000000000E+00 0.  1.
<mgrwt>
<rscale>  0 0.21087690E+04</rscale>
<asrwt>0</asrwt>
<pdfrwt beam="1">  1        2 0.14916063E+00 0.21087690E+04</pdfrwt>
<pdfrwt beam="2">  1       -2 0.17640753E+00 0.21087690E+04</pdfrwt>
<totfact> 0.46611690E+00</totfact>
</mgrwt>
</event>
<event>
 6    1  0.1831439E-005  0.4505696E+04  0.7818608E-02  0.7909640E-01
         -1   -1    0    0    0  501 -0.00000000000E+00  0.00000000000E+00  0.26705557366E+04  0.26705557366E+04  0.00000000000E+00 0.  1.
          1   -1    0    0  501    0  0.00000000000E+00 -0.00000000000E+00 -0.19004749410E+04  0.19004749410E+04  0.00000000000E+00 0. -1.
         23    2    1    2    0    0  0.14837956632E+04  0.41214637655E+03 -0.12816804684E+04  0.20056382144E+04  0.91463752463E+02 0.  0.
         11    1    3    3    0    0  0.39627444122E+03  0.15140049123E+03 -0.36420525422E+03  0.55910733201E+03  0.00000000000E+00 0. -1.
        -11    1    3    3    0    0  0.10875212220E+04  0.26074588532E+03 -0.91747521418E+03  0.14465308824E+04  0.00000000000E+00 0.  1.
         22    1    1    2    0    0 -0.14837956632E+04 -0.41214637655E+03  0.20517612640E+04  0.25653924632E+04  0.00000000000E+00 0.  1.
<mgrwt>
<rscale>  0 0.45056961E+04</rscale>
<asrwt>0</asrwt>
<pdfrwt beam="1">  1        1 0.29238076E+00 0.45056961E+04</pdfrwt>
<pdfrwt beam="2">  1       -1 0.41085473E+00 0.45056961E+04</pdfrwt>
<totfact> 0.15760190E-02</totfact>
</mgrwt>
</event>
<event>
 6    1  0.1831439E-005  0.3713793E+04  0.7818608E-02  0.8064912E-01
          1   -1    0    0  501    0  0.00000000000E+00  0.00000000000E+00  0.25525696638E+04  0.25525696638E+04  0.00000000000E+00 0. -1.
         -1   -1    0    0    0  501 -0.00000000000E+00 -0.00000000000E+00 -0.13508207384E+04  0.13508207384E+04  0.00000000000E+00 0.  1.
         23    2    1    2    0    0  0.71855840065E+03  0.12905660833E+04  0.17818298556E+04  0.23164496736E+04  0.95574396211E+02 0.  0.
         11    1    3    3    0    0  0.36275431422E+03  0.64854394931E+03  0.82161953036E+03  0.11078170424E+04  0.00000000000E+00 0.  1.
        -11    1    3    3    0    0  0.35580408643E+03  0.64202213404E+03  0.96021032524E+03  0.12086326312E+04  0.00000000000E+00 0. -1.
         22    1    1    2    0    0 -0.71855840065E+03 -0.12905660833E+04 -0.58008093015E+03  0.15869407286E+04  0.00000000000E+00 0.  1.
<mgrwt>
<rscale>  0 0.37137927E+04</rscale>
<asrwt>0</asrwt>
<pdfrwt beam="1">  1        1 0.39270303E+00 0.37137927E+04</pdfrwt>
<pdfrwt beam="2">  1       -1 0.20781857E+00 0.37137927E+04</pdfrwt>
<totfact> 0.13274677E-01</totfact>
</mgrwt>
</event>
<event>
 6    1  0.1831439E-005  0.4815262E+04  0.7818608E-02  0.7857654E-01
          2   -1    0    0  501    0  0.00000000000E+00  0.00000000000E+00  0.20016123028E+04  0.20016123028E+04  0.00000000000E+00 0. -1.
         -2   -1    0    0    0  501 -0.00000000000E+00 -0.00000000000E+00 -0.28960085670E+04  0.28960085670E+04  0.00000000000E+00 0.  1.
         23    2    1    2    0    0  0.15867737969E+04 -0.13480992474E+04  0.78058965874E+03  0.22253932400E+04  0.88499684487E+02 0.  0.
         13    1    3    3    0    0  0.75121840046E+03 -0.62411765356E+03  0.32042708960E+03  0.10278742386E+04  0.00000000000E+00 0. -1.
        -13    1    3    3    0    0  0.83555539645E+03 -0.72398159382E+03  0.46016256914E+03  0.11975190014E+04  0.00000000000E+00 0.  1.
         22    1    1    2    0    0 -0.15867737969E+04  0.13480992474E+04 -0.16749859229E+04  0.26722276298E+04  0.00000000000E+00 0.  1.
<mgrwt>
<rscale>  0 0.48152617E+04</rscale>
<asrwt>0</asrwt>
<pdfrwt beam="1">  1        2 0.30794035E+00 0.48152617E+04</pdfrwt>
<pdfrwt beam="2">  1       -2 0.44553978E+00 0.48152617E+04</pdfrwt>
<totfact> 0.18334986E-02</totfact>
</mgrwt>
</event>
<event>
 6    1  0.1831439E-005  0.3972107E+03  0.7818608E-02  0.1044750E+00
          2   -1    0    0  501    0  0.00000000000E+00  0.00000000000E+00  0.38166802776E+03  0.38166802776E+03  0.00000000000E+00 0. -1.
         -2   -1    0    0    0  501 -0.00000000000E+00 -0.00000000000E+00 -0.10334656119E+03  0.10334656119E+03  0.00000000000E+00 0.  1.
         23    2    1    2    0    0 -0.11300612446E+03  0.50382740487E+01  0.32984357156E+03  0.36071537063E+03  0.92320249864E+02 0.  0.
         13    1    3    3    0    0 -0.58061706908E+02  0.35867994452E+02  0.24921489618E+03  0.25839067188E+03  0.00000000000E+00 0. -1.
        -13    1    3    3    0    0 -0.54944417557E+02 -0.30829720403E+02  0.80628675384E+02  0.10232469875E+03  0.00000000000E+00 0.  1.
         22    1    1    2    0    0  0.11300612446E+03 -0.50382740487E+01 -0.51522104994E+02  0.12429921832E+03  0.00000000000E+00 0.  1.
<mgrwt>
<rscale>  0 0.39721067E+03</rscale>
<asrwt>0</asrwt>
<pdfrwt beam="1">  1        2 0.58718158E-01 0.39721067E+03</pdfrwt>
<pdfrwt beam="2">  1       -2 0.15899471E-01 0.39721067E+03</pdfrwt>
<totfact> 0.26262989E+03</totfact>
</mgrwt>
</event>
<event>
 6    1  0.1831439E-005  0.3710467E+03  0.7818608E-02  0.1054293E+00
          2   -1    0    0  501    0  0.00000000000E+00  0.00000000000E+00  0.82106403384E+02  0.82106403384E+02  0.00000000000E+00 0. -1.
         -2   -1    0    0    0  501 -0.00000000000E+00 -0.00000000000E+00 -0.41919890136E+03  0.41919890136E+03  0.00000000000E+00 0.  1.
         23    2    1    2    0    0  0.89932877745E+02 -0.12705881064E+03 -0.28751119915E+03  0.33793404334E+03  0.85468497994E+02 0.  0.
         11    1    3    3    0    0  0.70554470581E+02 -0.31611849605E+02 -0.15786997406E+03  0.17578444489E+03  0.00000000000E+00 0. -1.
        -11    1    3    3    0    0  0.19378407164E+02 -0.95446961034E+02 -0.12964122509E+03  0.16214959845E+03  0.00000000000E+00 0.  1.
         22    1    1    2    0    0 -0.89932877745E+02  0.12705881064E+03 -0.49581298827E+02  0.16337126141E+03  0.00000000000E+00 0. -1.
<mgrwt>
<rscale>  0 0.37104670E+03</rscale>
<asrwt>0</asrwt>
<pdfrwt beam="1">  1        2 0.12631754E-01 0.37104670E+03</pdfrwt>
<pdfrwt beam="2">  1       -2 0.64492140E-01 0.37104670E+03</pdfrwt>
<totfact> 0.10970642E+03</totfact>
</mgrwt>
</event>
<event>
 6    1  0.1831439E-005  0.6016163E+04  0.7818608E-02  0.7688401E-01
         -1   -1    0    0    0  501 -0.00000000000E+00  0.00000000000E+00  0.34567288252E+04  0.34567288252E+04  0.00000000000E+00 0.  1.
          1   -1    0    0  501    0  0.00000000000E+00 -0.00000000000E+00 -0.26176636644E+04  0.26176636644E+04  0.00000000000E+00 0. -1.
         23    2    1    2    0    0  0.15930356533E+04 -0.21478105143E+04 -0.96974303715E+03  0.28459811628E+04  0.91403627267E+02 0.  0.
         13    1    3    3    0    0  0.76107949211E+03 -0.98811537139E+03 -0.49436357908E+03  0.13416442631E+04  0.00000000000E+00 0.  1.
        -13    1    3    3    0    0  0.83195616115E+03 -0.11596951429E+04 -0.47537945807E+03  0.15043368997E+04  0.00000000000E+00 0. -1.
         22    1    1    2    0    0 -0.15930356533E+04  0.21478105143E+04  0.18088081980E+04  0.32284113268E+04  0.00000000000E+00 0.  1.
<mgrwt>
<rscale>  0 0.60161627E+04</rscale>
<asrwt>0</asrwt>
<pdfrwt beam="1">  1        1 0.40271749E+00 0.60161627E+04</pdfrwt>
<pdfrwt beam="2">  1       -1 0.53180444E+00 0.60161627E+04</pdfrwt>
<totfact> 0.72052926E-04</totfact>
</mgrwt>
</event>
<event>
 6    1  0.1831439E-005  0.1210422E+04  0.7818608E-02  0.9103783E-01
         -3   -1    0    0    0  501 -0.00000000000E+00  0.00000000000E+00  0.78094514576E+03  0.78094514576E+03  0.00000000000E+00 0.  1.
          3   -1    0    0  501    0  0.00000000000E+00 -0.00000000000E+00 -0.46902201258E+03  0.46902201258E+03  0.00000000000E+00 0. -1.
         23    2    1    2    0    0  0.50440690222E+03 -0.32475666328E+03  0.10966305103E+03  0.61687762740E+03  0.92837541244E+02 0.  0.
         11    1    3    3    0    0  0.30347696652E+03 -0.23235855063E+03  0.36596902268E+02  0.38396366822E+03  0.00000000000E+00 0. -1.
        -11    1    3    3    0    0  0.20092993571E+03 -0.92398112656E+02  0.73066148762E+02  0.23291395918E+03  0.00000000000E+00 0.  1.
         22    1    1    2    0    0 -0.50440690222E+03  0.32475666328E+03  0.20226008215E+03  0.63308953094E+03  0.00000000000E+00 0.  1.
<mgrwt>
<rscale>  0 0.12104222E+04</rscale>
<asrwt>0</asrwt>
<pdfrwt beam="1">  1        3 0.72157233E-01 0.12104222E+04</pdfrwt>
<pdfrwt beam="2">  1       -3 0.12014541E+00 0.12104222E+04</pdfrwt>
<totfact> 0.26619380E+00</totfact>
</mgrwt>
</event>
<event>
 6    1  0.1831439E-005  0.3064152E+04  0.7818608E-02  0.8225645E-01
         -2   -1    0    0    0  501 -0.00000000000E+00  0.00000000000E+00  0.11916161111E+04  0.11916161111E+04  0.00000000000E+00 0.  1.
          2   -1    0    0  501    0  0.00000000000E+00 -0.00000000000E+00 -0.19698100890E+04  0.19698100890E+04  0.00000000000E+00 0. -1.
         23    2    1    2    0    0 -0.95455833708E+03 -0.59799614366E+03 -0.14589236221E+04  0.18453054400E+04  0.88955184173E+02 0.  0.
         11    1    3    3    0    0 -0.62405117104E+03 -0.34421320894E+03 -0.94746389136E+03  0.11855844224E+04  0.00000000000E+00 0. -1.
        -11    1    3    3    0    0 -0.33050716603E+03 -0.25378293472E+03 -0.51145973078E+03  0.65972101753E+03  0.00000000000E+00 0.  1.
         22    1    1    2    0    0  0.95455833708E+03  0.59799614366E+03  0.68072964429E+03  0.13161207602E+04  0.00000000000E+00 0.  1.
<mgrwt>
<rscale>  0 0.30641524E+04</rscale>
<asrwt>0</asrwt>
<pdfrwt beam="1">  1        2 0.30304770E+00 0.30641524E+04</pdfrwt>
<pdfrwt beam="2">  1       -2 0.18332556E+00 0.30641524E+04</pdfrwt>
<totfact> 0.10173476E+00</totfact>
</mgrwt>
</event>
<event>
 6    1  0.1831439E-005  0.3120177E+04  0.7818608E-02  0.8210222E-01
          2   -1    0    0  501    0  0.00000000000E+00  0.00000000000E+00  0.16641681740E+04  0.16641681740E+04  0.00000000000E+00 0. -1.
         -2   -1    0    0    0  501 -0.00000000000E+00 -0.00000000000E+00 -0.14625181489E+04  0.14625181489E+04  0.00000000000E+00 0.  1.
         23    2    1    2    0    0 -0.31540346972E+03 -0.83038824188E+03  0.13849708893E+04  0.16470673690E+04  0.75250069795E+02 0.  0.
         13    1    3    3    0    0 -0.15880827223E+03 -0.44770747635E+03  0.80672332639E+03  0.93619686874E+03  0.00000000000E+00 0. -1.
        -13    1    3    3    0    0 -0.15659519748E+03 -0.38268076553E+03  0.57824756286E+03  0.71087050026E+03  0.00000000000E+00 0.  1.
         22    1    1    2    0    0  0.31540346972E+03  0.83038824188E+03 -0.11833208642E+04  0.14796189538E+04  0.00000000000E+00 0.  1.
<mgrwt>
<rscale>  0 0.31201770E+04</rscale>
<asrwt>0</asrwt>
<pdfrwt beam="1">  1        2 0.25602587E+00 0.31201770E+04</pdfrwt>
<pdfrwt beam="2">  1       -2 0.22500279E+00 0.31201770E+04</pdfrwt>
<totfact> 0.79991223E-01</totfact>
</mgrwt>
</event>
<event>
 6    1  0.1831439E-005  0.3562260E+04  0.7818608E-02  0.8099191E-01
          2   -1    0    0  501    0  0.00000000000E+00  0.00000000000E+00  0.17250541759E+04  0.17250541759E+04  0.00000000000E+00 0. -1.
         -2   -1    0    0    0  501 -0.00000000000E+00 -0.00000000000E+00 -0.18390291601E+04  0.18390291601E+04  0.00000000000E+00 0.  1.
         23    2    1    2    0    0 -0.17893813802E+03 -0.39600035270E+03  0.16699504378E+04  0.17279937281E+04  0.91611805107E+02 0.  0.
         13    1    3    3    0    0 -0.12634215969E+03 -0.35553797316E+03  0.13920726790E+04  0.14423023037E+04  0.00000000000E+00 0. -1.
        -13    1    3    3    0    0 -0.52595978324E+02 -0.40462379533E+02  0.27787775884E+03  0.28569142436E+03  0.00000000000E+00 0.  1.
         22    1    1    2    0    0  0.17893813802E+03  0.39600035270E+03 -0.17839254221E+04  0.18360896079E+04  0.00000000000E+00 0.  1.
<mgrwt>
<rscale>  0 0.35622605E+04</rscale>
<asrwt>0</asrwt>
<pdfrwt beam="1">  1        2 0.26539295E+00 0.35622605E+04</pdfrwt>
<pdfrwt beam="2">  1       -2 0.28292756E+00 0.35622605E+04</pdfrwt>
<totfact> 0.31379912E-01</totfact>
</mgrwt>
</event>
<event>
 6    1  0.1831439E-005  0.1547946E+04  0.7818608E-02  0.8853181E-01
          2   -1    0    0  501    0  0.00000000000E+00  0.00000000000E+00  0.73462623406E+03  0.73462623406E+03  0.00000000000E+00 0. -1.
         -2   -1    0    0    0  501 -0.00000000000E+00 -0.00000000000E+00 -0.81542706088E+03  0.81542706088E+03  0.00000000000E+00 0.  1.
         23    2    1    2    0    0  0.65187445233E+03  0.12776235555E+03  0.35206975464E+03  0.75718479299E+03  0.90067627368E+02 0.  0.
         13    1    3    3    0    0  0.49425847649E+03  0.61513209833E+02  0.28241529677E+03  0.57256765226E+03  0.00000000000E+00 0.  1.
        -13    1    3    3    0    0  0.15761597584E+03  0.66249145716E+02  0.69654457875E+02  0.18461714072E+03  0.00000000000E+00 0. -1.
         22    1    1    2    0    0 -0.65187445233E+03 -0.12776235555E+03 -0.43287058145E+03  0.79286850195E+03  0.00000000000E+00 0.  1.
<mgrwt>
<rscale>  0 0.15479459E+04</rscale>
<asrwt>0</asrwt>
<pdfrwt beam="1">  1        2 0.11301942E+00 0.15479459E+04</pdfrwt>
<pdfrwt beam="2">  1       -2 0.12545032E+00 0.15479459E+04</pdfrwt>
<totfact> 0.17617516E+01</totfact>
</mgrwt>
</event>
<event>
 6    1  0.1831439E-005  0.2425980E+04  0.7818608E-02  0.8429841E-01
          2   -1    0    0  501    0  0.00000000000E+00  0.00000000000E+00  0.11888041417E+04  0.11888041417E+04  0.00000000000E+00 0. -1.
         -2   -1    0    0    0  501 -0.00000000000E+00 -0.00000000000E+00 -0.12376680245E+04  0.12376680245E+04  0.00000000000E+00 0.  1.
         23    2    1    2    0    0  0.17675188189E+03  0.11417771751E+04  0.33967204382E+03  0.12075150252E+04  0.88425638029E+02 0.  0.
         13    1    3    3    0    0  0.74081995503E+02  0.32240144151E+03  0.64033670065E+02  0.33694382685E+03  0.00000000000E+00 0.  1.
        -13    1    3    3    0    0  0.10266988639E+03  0.81937573355E+03  0.27563837375E+03  0.87057119834E+03  0.00000000000E+00 0. -1.
         22    1    1    2    0    0 -0.17675188189E+03 -0.11417771751E+04 -0.38853592662E+03  0.12189571410E+04  0.00000000000E+00 0.  1.
<mgrwt>
<rscale>  0 0.24259801E+04</rscale>
<asrwt>0</asrwt>
<pdfrwt beam="1">  1        2 0.18289294E+00 0.24259801E+04</pdfrwt>
<pdfrwt beam="2">  1       -2 0.19041047E+00 0.24259801E+04</pdfrwt>
<totfact> 0.26584227E+00</totfact>
</mgrwt>
</event>
<event>
 6    1  0.1831439E-005  0.6498304E+03  0.7818608E-02  0.9807097E-01
          2   -1    0    0  501    0  0.00000000000E+00  0.00000000000E+00  0.13681532757E+04  0.13681532757E+04  0.00000000000E+00 0.  1.
         -2   -1    0    0    0  501 -0.00000000000E+00 -0.00000000000E+00 -0.77162325734E+02  0.77162325734E+02  0.00000000000E+00 0. -1.
         23    2    1    2    0    0  0.19701708772E+03  0.75290221204E+02  0.11108084780E+03  0.24670298700E+03  0.63553589875E+02 0.  0.
         13    1    3    3    0    0  0.17778537208E+03  0.83503976954E+02  0.11135556890E+03  0.22578887355E+03  0.00000000000E+00 0.  1.
        -13    1    3    3    0    0  0.19231715643E+02 -0.82137557501E+01 -0.27472109967E+00  0.20914113459E+02  0.00000000000E+00 0. -1.
         22    1    1    2    0    0 -0.19701708772E+03 -0.75290221204E+02  0.11799101021E+04  0.11986126144E+04  0.00000000000E+00 0.  1.
<mgrwt>
<rscale>  0 0.64983040E+03</rscale>
<asrwt>0</asrwt>
<pdfrwt beam="1">  1        2 0.21048510E+00 0.64983040E+03</pdfrwt>
<pdfrwt beam="2">  1       -2 0.11871128E-01 0.64983040E+03</pdfrwt>
<totfact> 0.79305515E+02</totfact>
</mgrwt>
</event>
<event>
 6    1  0.1831439E-005  0.1333315E+04  0.7818608E-02  0.9003556E-01
          2   -1    0    0  501    0  0.00000000000E+00  0.00000000000E+00  0.12436559580E+04  0.12436559580E+04  0.00000000000E+00 0.  1.
         -2   -1    0    0    0  501 -0.00000000000E+00 -0.00000000000E+00 -0.35735924721E+03  0.35735924721E+03  0.00000000000E+00 0. -1.
         23    2    1    2    0    0  0.51171872456E+02  0.53432663411E+03 -0.25535455343E+02  0.54292191461E+03  0.77386261275E+02 0.  0.
         13    1    3    3    0    0  0.70308322492E+02  0.37030799613E+03 -0.99189754264E+01  0.37705391959E+03  0.00000000000E+00 0. -1.
        -13    1    3    3    0    0 -0.19136450036E+02  0.16401863798E+03 -0.15616479917E+02  0.16586799501E+03  0.00000000000E+00 0.  1.
         22    1    1    2    0    0 -0.51171872456E+02 -0.53432663411E+03  0.91183216618E+03  0.10580932907E+04  0.00000000000E+00 0.  1.
<mgrwt>
<rscale>  0 0.13333146E+04</rscale>
<asrwt>0</asrwt>
<pdfrwt beam="1">  1        2 0.19133168E+00 0.13333146E+04</pdfrwt>
<pdfrwt beam="2">  1       -2 0.54978346E-01 0.13333146E+04</pdfrwt>
<totfact> 0.54280267E+01</totfact>
</mgrwt>
</event>
<event>
 6    1  0.1831439E-005  0.5438853E+04  0.7818608E-02  0.7764159E-01
          2   -1    0    0  501    0  0.00000000000E+00  0.00000000000E+00  0.42836034847E+04  0.42836034847E+04  0.00000000000E+00 0. -1.
         -2   -1    0    0    0  501 -0.00000000000E+00 -0.00000000000E+00 -0.17264157605E+04  0.17264157605E+04  0.00000000000E+00 0.  1.
         23    2    1    2    0    0  0.17776984298E+04  0.70939082954E+03 -0.85456080712E+03  0.20980536142E+04  0.90042982168E+02 0.  0.
         13    1    3    3    0    0  0.45329708082E+02  0.34405696324E+02 -0.25478570580E+02  0.62351358711E+02  0.00000000000E+00 0.  1.
        -13    1    3    3    0    0  0.17323687217E+04  0.67498513322E+03 -0.82908223654E+03  0.20357022555E+04  0.00000000000E+00 0. -1.
         22    1    1    2    0    0 -0.17776984298E+04 -0.70939082954E+03  0.34117485313E+04  0.39119656309E+04  0.00000000000E+00 0. -1.
<mgrwt>
<rscale>  0 0.54388530E+04</rscale>
<asrwt>0</asrwt>
<pdfrwt beam="1">  1        2 0.65901592E+00 0.54388530E+04</pdfrwt>
<pdfrwt beam="2">  1       -2 0.26560243E+00 0.54388530E+04</pdfrwt>
<totfact> 0.70589306E-03</totfact>
</mgrwt>
</event>
<event>
 6    1  0.1831439E-005  0.3291332E+04  0.7818608E-02  0.8165104E-01
          2   -1    0    0  501    0  0.00000000000E+00  0.00000000000E+00  0.16607490998E+04  0.16607490998E+04  0.00000000000E+00 0.  1.
         -2   -1    0    0    0  501 -0.00000000000E+00 -0.00000000000E+00 -0.16307197741E+04  0.16307197741E+04  0.00000000000E+00 0. -1.
         23    2    1    2    0    0  0.18833478137E+02  0.72191503267E+03 -0.14623876441E+04  0.16335109655E+04  0.90908957425E+02 0.  0.
         13    1    3    3    0    0 -0.18972392323E+02  0.49784334398E+03 -0.94077389349E+03  0.10645484796E+04  0.00000000000E+00 0.  1.
        -13    1    3    3    0    0  0.37805870461E+02  0.22407168869E+03 -0.52161375061E+03  0.56896248588E+03  0.00000000000E+00 0. -1.
         22    1    1    2    0    0 -0.18833478137E+02 -0.72191503267E+03  0.14924169697E+04  0.16579579084E+04  0.00000000000E+00 0.  1.
<mgrwt>
<rscale>  0 0.32913319E+04</rscale>
<asrwt>0</asrwt>
<pdfrwt beam="1">  1        2 0.25549986E+00 0.32913319E+04</pdfrwt>
<pdfrwt beam="2">  1       -2 0.25087996E+00 0.32913319E+04</pdfrwt>
<totfact> 0.54708872E-01</totfact>
</mgrwt>
</event>
<event>
 6    1  0.1831439E-005  0.1269825E+04  0.7818608E-02  0.9053843E-01
          2   -1    0    0  501    0  0.00000000000E+00  0.00000000000E+00  0.13655375527E+04  0.13655375527E+04  0.00000000000E+00 0. -1.
         -2   -1    0    0    0  501 -0.00000000000E+00 -0.00000000000E+00 -0.29520504944E+03  0.29520504944E+03  0.00000000000E+00 0.  1.
         23    2    1    2    0    0  0.38678565120E+02  0.40559517200E+03  0.11694793097E+04  0.12414174727E+04  0.86209110860E+02 0.  0.
         13    1    3    3    0    0  0.48908577975E+02  0.34255222927E+03  0.89394680198E+03  0.95857965947E+03  0.00000000000E+00 0.  1.
        -13    1    3    3    0    0 -0.10230012855E+02  0.63042942727E+02  0.27553250772E+03  0.28283781324E+03  0.00000000000E+00 0. -1.
         22    1    1    2    0    0 -0.38678565120E+02 -0.40559517200E+03 -0.99146806442E+02  0.41932512943E+03  0.00000000000E+00 0.  1.
<mgrwt>
<rscale>  0 0.12698245E+04</rscale>
<asrwt>0</asrwt>
<pdfrwt beam="1">  1        2 0.21008270E+00 0.12698245E+04</pdfrwt>
<pdfrwt beam="2">  1       -2 0.45416162E-01 0.12698245E+04</pdfrwt>
<totfact> 0.68365648E+01</totfact>
</mgrwt>
</event>
<event>
 6    1  0.1831439E-005  0.3289756E+04  0.7818608E-02  0.8165507E-01
          2   -1    0    0  501    0  0.00000000000E+00  0.00000000000E+00  0.16419408559E+04  0.16419408559E+04  0.00000000000E+00 0. -1.
         -2   -1    0    0    0  501 -0.00000000000E+00 -0.00000000000E+00 -0.16478199272E+04  0.16478199272E+04  0.00000000000E+00 0.  1.
         23    2    1    2    0    0  0.16862154559E+03  0.32633024183E+03 -0.16050010953E+04  0.16489939198E+04  0.90707108196E+02 0.  0.
         11    1    3    3    0    0  0.70331651678E+02  0.88759448208E+02 -0.34777994649E+03  0.36575356739E+03  0.00000000000E+00 0. -1.
        -11    1    3    3    0    0  0.98289893913E+02  0.23757079362E+03 -0.12572211488E+04  0.12832403524E+04  0.00000000000E+00 0.  1.
         22    1    1    2    0    0 -0.16862154559E+03 -0.32633024183E+03  0.15991220239E+04  0.16407668633E+04  0.00000000000E+00 0. -1.
<mgrwt>
<rscale>  0 0.32897555E+04</rscale>
<asrwt>0</asrwt>
<pdfrwt beam="1">  1        2 0.25260629E+00 0.32897555E+04</pdfrwt>
<pdfrwt beam="2">  1       -2 0.25351076E+00 0.32897555E+04</pdfrwt>
<totfact> 0.54005091E-01</totfact>
</mgrwt>
</event>
<event>
 6    1  0.1831439E-005  0.1470607E+04  0.7818608E-02  0.8904237E-01
         -2   -1    0    0    0  501 -0.00000000000E+00  0.00000000000E+00  0.16480108386E+03  0.16480108386E+03  0.00000000000E+00 0.  1.
          2   -1    0    0  501    0  0.00000000000E+00 -0.00000000000E+00 -0.32807515571E+04  0.32807515571E+04  0.00000000000E+00 0. -1.
         23    2    1    2    0    0 -0.30290982136E+03  0.66429275794E+03 -0.14218887253E+04  0.16008617634E+04  0.89171800835E+02 0.  0.
         11    1    3    3    0    0 -0.15799278473E+03  0.27995777764E+03 -0.54974028394E+03  0.63683000642E+03  0.00000000000E+00 0. -1.
        -11    1    3    3    0    0 -0.14491703662E+03  0.38433498030E+03 -0.87214844138E+03  0.96403175694E+03  0.00000000000E+00 0.  1.
         22    1    1    2    0    0  0.30290982136E+03 -0.66429275794E+03 -0.16940617479E+04  0.18446908776E+04  0.00000000000E+00 0. -1.
<mgrwt>
<rscale>  0 0.14706072E+04</rscale>
<asrwt>0</asrwt>
<pdfrwt beam="1">  1        2 0.50473101E+00 0.14706072E+04</pdfrwt>
<pdfrwt beam="2">  1       -2 0.25354013E-01 0.14706072E+04</pdfrwt>
<totfact> 0.15715359E+01</totfact>
</mgrwt>
</event>
<event>
 6    1  0.1831439E-005  0.1919694E+04  0.7818608E-02  0.8645115E-01
          2   -1    0    0  501    0  0.00000000000E+00  0.00000000000E+00  0.60865425880E+03  0.60865425880E+03  0.00000000000E+00 0. -1.
         -2   -1    0    0    0  501 -0.00000000000E+00 -0.00000000000E+00 -0.15136771840E+04  0.15136771840E+04  0.00000000000E+00 0.  1.
         23    2    1    2    0    0 -0.22649364189E+02  0.13609007030E+03 -0.15012415652E+04  0.15103590843E+04  0.91786848815E+02 0.  0.
         13    1    3    3    0    0 -0.52483967827E+02  0.11205255806E+03 -0.12642325470E+04  0.12702733074E+04  0.00000000000E+00 0. -1.
        -13    1    3    3    0    0  0.29834603638E+02  0.24037512240E+02 -0.23700901815E+03  0.24008577686E+03  0.00000000000E+00 0.  1.
         22    1    1    2    0    0  0.22649364189E+02 -0.13609007030E+03  0.59621863996E+03  0.61197235850E+03  0.00000000000E+00 0. -1.
<mgrwt>
<rscale>  0 0.19196938E+04</rscale>
<asrwt>0</asrwt>
<pdfrwt beam="1">  1        2 0.93639117E-01 0.19196938E+04</pdfrwt>
<pdfrwt beam="2">  1       -2 0.23287341E+00 0.19196938E+04</pdfrwt>
<totfact> 0.37371461E+00</totfact>
</mgrwt>
</event>
<event>
 6    1  0.1831439E-005  0.2072210E+04  0.7818608E-02  0.8573585E-01
          1   -1    0    0  501    0  0.00000000000E+00  0.00000000000E+00  0.16720106991E+04  0.16720106991E+04  0.00000000000E+00 0. -1.
         -1   -1    0    0    0  501 -0.00000000000E+00 -0.00000000000E+00 -0.64204936506E+03  0.64204936506E+03  0.00000000000E+00 0.  1.
         23    2    1    2    0    0 -0.80763259817E+03 -0.50254574263E+03  0.96962291646E+03  0.13609266204E+04  0.84439497866E+02 0.  0.
         13    1    3    3    0    0 -0.54476538448E+03 -0.31799113663E+03  0.69242817273E+03  0.93666667577E+03  0.00000000000E+00 0.  1.
        -13    1    3    3    0    0 -0.26286721369E+03 -0.18455460600E+03  0.27719474373E+03  0.42425994459E+03  0.00000000000E+00 0. -1.
         22    1    1    2    0    0  0.80763259817E+03  0.50254574263E+03  0.60338417576E+02  0.95313344380E+03  0.00000000000E+00 0. -1.
<mgrwt>
<rscale>  0 0.20722098E+04</rscale>
<asrwt>0</asrwt>
<pdfrwt beam="1">  1        1 0.25723241E+00 0.20722098E+04</pdfrwt>
<pdfrwt beam="2">  1       -1 0.98776826E-01 0.20722098E+04</pdfrwt>
<totfact> 0.45006861E+00</totfact>
</mgrwt>
</event>
<event>
 6    1  0.1831439E-005  0.2671782E+04  0.7818608E-02  0.8344219E-01
         -2   -1    0    0    0  501 -0.00000000000E+00  0.00000000000E+00  0.99221155180E+03  0.99221155180E+03  0.00000000000E+00 0.  1.
          2   -1    0    0  501    0  0.00000000000E+00 -0.00000000000E+00 -0.17986137486E+04  0.17986137486E+04  0.00000000000E+00 0. -1.
         23    2    1    2    0    0 -0.39860708031E+03  0.83753606089E+03 -0.14056580731E+04  0.16865328287E+04  0.90355442379E+02 0.  0.
         11    1    3    3    0    0 -0.22099695598E+03  0.39044291687E+03 -0.73650321480E+03  0.86239336228E+03  0.00000000000E+00 0.  1.
        -11    1    3    3    0    0 -0.17761012433E+03  0.44709314402E+03 -0.66915485833E+03  0.82413946643E+03  0.00000000000E+00 0. -1.
         22    1    1    2    0    0  0.39860708031E+03 -0.83753606089E+03  0.59925587632E+03  0.11042924717E+04  0.00000000000E+00 0.  1.
<mgrwt>
<rscale>  0 0.26717824E+04</rscale>
<asrwt>0</asrwt>
<pdfrwt beam="1">  1        2 0.27670981E+00 0.26717824E+04</pdfrwt>
<pdfrwt beam="2">  1       -2 0.15264793E+00 0.26717824E+04</pdfrwt>
<totfact> 0.21741003E+00</totfact>
</mgrwt>
</event>
<event>
 6    1  0.1831439E-005  0.2009136E+04  0.7818608E-02  0.8602361E-01
         -2   -1    0    0    0  501 -0.00000000000E+00  0.00000000000E+00  0.77051689658E+03  0.77051689658E+03  0.00000000000E+00 0. -1.
          2   -1    0    0  501    0  0.00000000000E+00 -0.00000000000E+00 -0.13097142691E+04  0.13097142691E+04  0.00000000000E+00 0.  1.
         23    2    1    2    0    0  0.49929747849E+03  0.18810681058E+03  0.60853431665E+03  0.81454156133E+03  0.92096668634E+02 0.  0.
         11    1    3    3    0    0  0.20513009717E+03  0.74961466197E+02  0.31875297456E+03  0.38639492359E+03  0.00000000000E+00 0. -1.
        -11    1    3    3    0    0  0.29416738132E+03  0.11314534438E+03  0.28978134209E+03  0.42814663774E+03  0.00000000000E+00 0.  1.
         22    1    1    2    0    0 -0.49929747849E+03 -0.18810681058E+03 -0.11477316892E+04  0.12656896043E+04  0.00000000000E+00 0.  1.
<mgrwt>
<rscale>  0 0.20091361E+04</rscale>
<asrwt>0</asrwt>
<pdfrwt beam="1">  1        2 0.20149450E+00 0.20091361E+04</pdfrwt>
<pdfrwt beam="2">  1       -2 0.11854106E+00 0.20091361E+04</pdfrwt>
<totfact> 0.82934953E+00</totfact>
</mgrwt>
</event>
<event>
 6    1  0.1831439E-005  0.7586524E+03  0.7818608E-02  0.9621873E-01
          2   -1    0    0  501    0  0.00000000000E+00  0.00000000000E+00  0.17909377013E+04  0.17909377013E+04  0.00000000000E+00 0. -1.
         -2   -1    0    0    0  501 -0.00000000000E+00 -0.00000000000E+00 -0.80342469053E+02  0.80342469053E+02  0.00000000000E+00 0.  1.
         23    2    1    2    0    0 -0.25233298024E+03 -0.92289559597E+02  0.15087919970E+04  0.15352536216E+04  0.91439032316E+02 0.  0.
         13    1    3    3    0    0 -0.14082880533E+03 -0.28127818852E+02  0.10090741015E+04  0.10192421052E+04  0.00000000000E+00 0. -1.
        -13    1    3    3    0    0 -0.11150417491E+03 -0.64161740745E+02  0.49971789552E+03  0.51601151644E+03  0.00000000000E+00 0.  1.
         22    1    1    2    0    0  0.25233298024E+03  0.92289559597E+02  0.20180323526E+03  0.33602654879E+03  0.00000000000E+00 0.  1.
<mgrwt>
<rscale>  0 0.75865238E+03</rscale>
<asrwt>0</asrwt>
<pdfrwt beam="1">  1        2 0.27552885E+00 0.75865238E+03</pdfrwt>
<pdfrwt beam="2">  1       -2 0.12360381E-01 0.75865238E+03</pdfrwt>
<totfact> 0.43059445E+02</totfact>
</mgrwt>
</event>
<event>
 6    1  0.1831439E-005  0.2621918E+04  0.7818608E-02  0.8360794E-01
         -2   -1    0    0    0  501 -0.00000000000E+00  0.00000000000E+00  0.79258362578E+03  0.79258362578E+03  0.00000000000E+00 0.  1.
          2   -1    0    0  501    0  0.00000000000E+00 -0.00000000000E+00 -0.21683681327E+04  0.21683681327E+04  0.00000000000E+00 0. -1.
         23    2    1    2    0    0 -0.12466475983E+04 -0.33058263806E+03 -0.94406891173E+03  0.16008806316E+04  0.90208489578E+02 0.  0.
         11    1    3    3    0    0 -0.46353738969E+03 -0.16824430930E+03 -0.35984456944E+03  0.61045980491E+03  0.00000000000E+00 0. -1.
        -11    1    3    3    0    0 -0.78311020866E+03 -0.16233832876E+03 -0.58422434229E+03  0.99042082673E+03  0.00000000000E+00 0.  1.
         22    1    1    2    0    0  0.12466475983E+04  0.33058263806E+03 -0.43171559523E+03  0.13600711269E+04  0.00000000000E+00 0. -1.
<mgrwt>
<rscale>  0 0.26219177E+04</rscale>
<asrwt>0</asrwt>
<pdfrwt beam="1">  1        2 0.33359509E+00 0.26219177E+04</pdfrwt>
<pdfrwt beam="2">  1       -2 0.12193595E+00 0.26219177E+04</pdfrwt>
<totfact> 0.24234774E+00</totfact>
</mgrwt>
</event>
<event>
 6    1  0.1831439E-005  0.7882264E+03  0.7818608E-02  0.9577217E-01
         -1   -1    0    0    0  501 -0.00000000000E+00  0.00000000000E+00  0.15622472362E+03  0.15622472362E+03  0.00000000000E+00 0.  1.
          1   -1    0    0  501    0  0.00000000000E+00 -0.00000000000E+00 -0.99424231269E+03  0.99424231269E+03  0.00000000000E+00 0. -1.
         23    2    1    2    0    0 -0.33399842667E+03  0.38487061919E+02 -0.13983542070E+03  0.37555120657E+03  0.91916053642E+02 0.  0.
         13    1    3    3    0    0 -0.25664838034E+03  0.68401586420E+02 -0.10559803416E+03  0.28582881761E+03  0.00000000000E+00 0. -1.
        -13    1    3    3    0    0 -0.77350046330E+02 -0.29914524501E+02 -0.34237386541E+02  0.89722388959E+02  0.00000000000E+00 0.  1.
         22    1    1    2    0    0  0.33399842667E+03 -0.38487061919E+02 -0.69818216837E+03  0.77491582974E+03  0.00000000000E+00 0. -1.
<mgrwt>
<rscale>  0 0.78822644E+03</rscale>
<asrwt>0</asrwt>
<pdfrwt beam="1">  1        1 0.15296035E+00 0.78822644E+03</pdfrwt>
<pdfrwt beam="2">  1       -1 0.24034573E-01 0.78822644E+03</pdfrwt>
<totfact> 0.23143336E+02</totfact>
</mgrwt>
</event>
<event>
 6    1  0.1831439E-005  0.2118690E+04  0.7818608E-02  0.8553055E-01
          2   -1    0    0  501    0  0.00000000000E+00  0.00000000000E+00  0.24201754900E+04  0.24201754900E+04  0.00000000000E+00 0. -1.
         -2   -1    0    0    0  501 -0.00000000000E+00 -0.00000000000E+00 -0.46369026940E+03  0.46369026940E+03  0.00000000000E+00 0.  1.
         23    2    1    2    0    0 -0.69441204885E+03 -0.79160988524E+03  0.11104130558E+04  0.15330539990E+04  0.91559300027E+02 0.  0.
         11    1    3    3    0    0 -0.60705408236E+03 -0.73302905086E+03  0.99524516109E+03  0.13770835773E+04  0.00000000000E+00 0.  1.
        -11    1    3    3    0    0 -0.87357966492E+02 -0.58580834374E+02  0.11516789466E+03  0.15597042164E+03  0.00000000000E+00 0. -1.
         22    1    1    2    0    0  0.69441204885E+03  0.79160988524E+03  0.84607216486E+03  0.13508117604E+04  0.00000000000E+00 0. -1.
<mgrwt>
<rscale>  0 0.21186900E+04</rscale>
<asrwt>0</asrwt>
<pdfrwt beam="1">  1        2 0.37233468E+00 0.21186900E+04</pdfrwt>
<pdfrwt beam="2">  1       -2 0.71336966E-01 0.21186900E+04</pdfrwt>
<totfact> 0.63530526E+00</totfact>
</mgrwt>
</event>
<event>
 6    1  0.1831439E-005  0.2964488E+04  0.7818608E-02  0.8253945E-01
         -1   -1    0    0    0  501 -0.00000000000E+00  0.00000000000E+00  0.71285005248E+03  0.71285005248E+03  0.00000000000E+00 0.  1.
          1   -1    0    0  501    0  0.00000000000E+00 -0.00000000000E+00 -0.30820610175E+04  0.30820610175E+04  0.00000000000E+00 0. -1.
         23    2    1    2    0    0  0.10550281709E+04  0.10383439730E+04 -0.12389040765E+04  0.19324298459E+04  0.90328017806E+02 0.  0.
         11    1    3    3    0    0  0.39861500464E+03  0.36952417854E+03 -0.50796539465E+03  0.74395623702E+03  0.00000000000E+00 0. -1.
        -11    1    3    3    0    0  0.65641316627E+03  0.66881979449E+03 -0.73093868187E+03  0.11884736089E+04  0.00000000000E+00 0.  1.
         22    1    1    2    0    0 -0.10550281709E+04 -0.10383439730E+04 -0.11303068885E+04  0.18624812240E+04  0.00000000000E+00 0.  1.
<mgrwt>
<rscale>  0 0.29644881E+04</rscale>
<asrwt>0</asrwt>
<pdfrwt beam="1">  1        1 0.47416322E+00 0.29644881E+04</pdfrwt>
<pdfrwt beam="2">  1       -1 0.10966924E+00 0.29644881E+04</pdfrwt>
<totfact> 0.34113272E-01</totfact>
</mgrwt>
</event>
<event>
 6    1  0.1831439E-005  0.1579403E+04  0.7818608E-02  0.8833302E-01
         -2   -1    0    0    0  501 -0.00000000000E+00  0.00000000000E+00  0.24419344520E+03  0.24419344520E+03  0.00000000000E+00 0. -1.
          2   -1    0    0  501    0  0.00000000000E+00 -0.00000000000E+00 -0.25538292173E+04  0.25538292173E+04  0.00000000000E+00 0.  1.
         23    2    1    2    0    0 -0.35931282124E+03  0.29548160558E+03 -0.34053259302E+02  0.47537528176E+03  0.91689428460E+02 0.  0.
         11    1    3    3    0    0 -0.98949445857E+02  0.13524381710E+03 -0.25736809057E+02  0.16954134080E+03  0.00000000000E+00 0. -1.
        -11    1    3    3    0    0 -0.26036337538E+03  0.16023778849E+03 -0.83164502445E+01  0.30583394096E+03  0.00000000000E+00 0.  1.
         22    1    1    2    0    0  0.35931282124E+03 -0.29548160558E+03 -0.22755825128E+04  0.23226473807E+04  0.00000000000E+00 0.  1.
<mgrwt>
<rscale>  0 0.15794029E+04</rscale>
<asrwt>0</asrwt>
<pdfrwt beam="1">  1        2 0.39289679E+00 0.15794029E+04</pdfrwt>
<pdfrwt beam="2">  1       -2 0.37568224E-01 0.15794029E+04</pdfrwt>
<totfact> 0.20844458E+01</totfact>
</mgrwt>
</event>
<event>
 6    1  0.1831439E-005  0.1998335E+04  0.7818608E-02  0.8607400E-01
          1   -1    0    0  501    0  0.00000000000E+00  0.00000000000E+00  0.59805852184E+03  0.59805852184E+03  0.00000000000E+00 0. -1.
         -1   -1    0    0    0  501 -0.00000000000E+00 -0.00000000000E+00 -0.16692936720E+04  0.16692936720E+04  0.00000000000E+00 0.  1.
         23    2    1    2    0    0  0.85468794668E+03 -0.34459626413E+03 -0.96880294379E+03  0.13401356990E+04  0.90257832501E+02 0.  0.
         13    1    3    3    0    0  0.48479648657E+03 -0.18397293178E+03 -0.60737785321E+03  0.79861225234E+03  0.00000000000E+00 0.  1.
        -13    1    3    3    0    0  0.36989146011E+03 -0.16062333235E+03 -0.36142509058E+03  0.54152344664E+03  0.00000000000E+00 0. -1.
         22    1    1    2    0    0 -0.85468794668E+03  0.34459626413E+03 -0.10243220639E+03  0.92721649487E+03  0.00000000000E+00 0. -1.
<mgrwt>
<rscale>  0 0.19983346E+04</rscale>
<asrwt>0</asrwt>
<pdfrwt beam="1">  1        1 0.92009003E-01 0.19983346E+04</pdfrwt>
<pdfrwt beam="2">  1       -1 0.25681441E+00 0.19983346E+04</pdfrwt>
<totfact> 0.20092883E+00</totfact>
</mgrwt>
</event>
<event>
 6    1  0.1831439E-005  0.1667930E+04  0.7818608E-02  0.8779869E-01
         -2   -1    0    0    0  501 -0.00000000000E+00  0.00000000000E+00  0.63361415167E+03  0.63361415167E+03  0.00000000000E+00 0.  1.
          2   -1    0    0  501    0  0.00000000000E+00 -0.00000000000E+00 -0.10976676425E+04  0.10976676425E+04  0.00000000000E+00 0. -1.
         23    2    1    2    0    0 -0.18236774516E+03 -0.60418444419E+03  0.32794726531E+03  0.71858142644E+03  0.10253302168E+03 0.  0.
         13    1    3    3    0    0 -0.58542062694E+02 -0.32684235211E+03  0.13310888114E+03  0.35773044388E+03  0.00000000000E+00 0. -1.
        -13    1    3    3    0    0 -0.12382568246E+03 -0.27734209208E+03  0.19483838417E+03  0.36085098257E+03  0.00000000000E+00 0.  1.
         22    1    1    2    0    0  0.18236774516E+03  0.60418444419E+03 -0.79200075617E+03  0.10127003678E+04  0.00000000000E+00 0. -1.
<mgrwt>
<rscale>  0 0.16679302E+04</rscale>
<asrwt>0</asrwt>
<pdfrwt beam="1">  1        2 0.16887194E+00 0.16679302E+04</pdfrwt>
<pdfrwt beam="2">  1       -2 0.97479101E-01 0.16679302E+04</pdfrwt>
<totfact> 0.18297386E+01</totfact>
</mgrwt>
</event>
<event>
 6    1  0.1831439E-005  0.2006188E+04  0.7818608E-02  0.8603733E-01
         -2   -1    0    0    0  501 -0.00000000000E+00  0.00000000000E+00  0.14794062110E+04  0.14794062110E+04  0.00000000000E+00 0.  1.
          2   -1    0    0  501    0  0.00000000000E+00 -0.00000000000E+00 -0.68013594868E+03  0.68013594868E+03  0.00000000000E+00 0. -1.
         23    2    1    2    0    0  0.25141119493E+03  0.14606718524E+03 -0.63066033912E+03  0.70034897971E+03  0.90625705488E+02 0.  0.
         11    1    3    3    0    0  0.19973209780E+03  0.14903976378E+03 -0.47656920047E+03  0.53779546755E+03  0.00000000000E+00 0. -1.
        -11    1    3    3    0    0  0.51679097132E+02 -0.29725785469E+01 -0.15409113866E+03  0.16255351216E+03  0.00000000000E+00 0.  1.
         22    1    1    2    0    0 -0.25141119493E+03 -0.14606718524E+03  0.14299306015E+04  0.14591931800E+04  0.00000000000E+00 0.  1.
<mgrwt>
<rscale>  0 0.20061878E+04</rscale>
<asrwt>0</asrwt>
<pdfrwt beam="1">  1        2 0.10463630E+00 0.20061878E+04</pdfrwt>
<pdfrwt beam="2">  1       -2 0.22760095E+00 0.20061878E+04</pdfrwt>
<totfact> 0.34906011E+00</totfact>
</mgrwt>
</event>
<event>
 6    1  0.1831439E-005  0.4486996E+04  0.7818608E-02  0.7912917E-01
         -1   -1    0    0    0  501 -0.00000000000E+00  0.00000000000E+00  0.21990538325E+04  0.21990538325E+04  0.00000000000E+00 0.  1.
          1   -1    0    0  501    0  0.00000000000E+00 -0.00000000000E+00 -0.22888399367E+04  0.22888399367E+04  0.00000000000E+00 0. -1.
         23    2    1    2    0    0 -0.16099898498E+04  0.13297433228E+04 -0.86291061474E+03  0.22612357061E+04  0.91036084386E+02 0.  0.
         11    1    3    3    0    0 -0.10311160902E+04  0.82332376660E+03 -0.58620610999E+03  0.14438490293E+04  0.00000000000E+00 0. -1.
        -11    1    3    3    0    0 -0.57887375962E+03  0.50641955624E+03 -0.27670450475E+03  0.81738667684E+03  0.00000000000E+00 0.  1.
         22    1    1    2    0    0  0.16099898498E+04 -0.13297433228E+04  0.77312451046E+03  0.22266580631E+04  0.00000000000E+00 0.  1.
<mgrwt>
<rscale>  0 0.44869955E+04</rscale>
<asrwt>0</asrwt>
<pdfrwt beam="1">  1        1 0.35212922E+00 0.44869955E+04</pdfrwt>
<pdfrwt beam="2">  1       -1 0.33831598E+00 0.44869955E+04</pdfrwt>
<totfact> 0.26448567E-02</totfact>
</mgrwt>
</event>
<event>
 6    1  0.1831439E-005  0.2078587E+04  0.7818608E-02  0.8570735E-01
          2   -1    0    0  501    0  0.00000000000E+00  0.00000000000E+00  0.12810869238E+04  0.12810869238E+04  0.00000000000E+00 0. -1.
         -2   -1    0    0    0  501 -0.00000000000E+00 -0.00000000000E+00 -0.84313660289E+03  0.84313660289E+03  0.00000000000E+00 0.  1.
         23    2    1    2    0    0  0.38775221538E+02 -0.98762482250E+03 -0.10218049965E+03  0.99788094507E+03  0.91756297928E+02 0.  0.
         11    1    3    3    0    0 -0.18612280055E+02 -0.29472106943E+03 -0.12048115823E+01  0.29531064544E+03  0.00000000000E+00 0.  1.
        -11    1    3    3    0    0  0.57387501594E+02 -0.69290375306E+03 -0.10097568806E+03  0.70257029964E+03  0.00000000000E+00 0. -1.
         22    1    1    2    0    0 -0.38775221538E+02  0.98762482250E+03  0.54013082051E+03  0.11263425816E+04  0.00000000000E+00 0.  1.
<mgrwt>
<rscale>  0 0.20785873E+04</rscale>
<asrwt>0</asrwt>
<pdfrwt beam="1">  1        2 0.19709030E+00 0.20785873E+04</pdfrwt>
<pdfrwt beam="2">  1       -2 0.12971332E+00 0.20785873E+04</pdfrwt>
<totfact> 0.68382589E+00</totfact>
</mgrwt>
</event>
<event>
 6    1  0.1831439E-005  0.7043506E+04  0.7818608E-02  0.7572965E-01
          2   -1    0    0  501    0  0.00000000000E+00  0.00000000000E+00  0.43086711797E+04  0.43086711797E+04  0.00000000000E+00 0. -1.
         -2   -1    0    0    0  501 -0.00000000000E+00 -0.00000000000E+00 -0.28785541465E+04  0.28785541465E+04  0.00000000000E+00 0.  1.
         23    2    1    2    0    0 -0.13935711447E+04 -0.26634464733E+04  0.25862610376E+04  0.39665644298E+04  0.94337530184E+02 0.  0.
         11    1    3    3    0    0 -0.68450401309E+03 -0.13287886345E+04  0.12250723313E+04  0.19326218450E+04  0.00000000000E+00 0. -1.
        -11    1    3    3    0    0 -0.70906713158E+03 -0.13346578388E+04  0.13611887063E+04  0.20339425847E+04  0.00000000000E+00 0.  1.
         22    1    1    2    0    0  0.13935711447E+04  0.26634464733E+04 -0.11561440043E+04  0.32206608965E+04  0.00000000000E+00 0.  1.
<mgrwt>
<rscale>  0 0.70435057E+04</rscale>
<asrwt>0</asrwt>
<pdfrwt beam="1">  1        2 0.66287249E+00 0.70435057E+04</pdfrwt>
<pdfrwt beam="2">  1       -2 0.44285448E+00 0.70435057E+04</pdfrwt>
<totfact> 0.44608365E-04</totfact>
</mgrwt>
</event>
<event>
 6    1  0.1831439E-005  0.1664255E+04  0.7818608E-02  0.8782018E-01
         -1   -1    0    0    0  501 -0.00000000000E+00  0.00000000000E+00  0.27411657650E+03  0.27411657650E+03  0.00000000000E+00 0.  1.
          1   -1    0    0  501    0  0.00000000000E+00 -0.00000000000E+00 -0.25260659588E+04  0.25260659588E+04  0.00000000000E+00 0. -1.
         23    2    1    2    0    0  0.64384443431E+03 -0.46390711631E+03 -0.72028236272E+03  0.10751464989E+04  0.85952567261E+02 0.  0.
         11    1    3    3    0    0  0.10850196070E+03 -0.80552242914E+02 -0.16902953909E+03  0.21640777343E+03  0.00000000000E+00 0. -1.
        -11    1    3    3    0    0  0.53534247361E+03 -0.38335487340E+03 -0.55125282363E+03  0.85873872544E+03  0.00000000000E+00 0.  1.
         22    1    1    2    0    0 -0.64384443431E+03  0.46390711631E+03 -0.15316670196E+04  0.17250360364E+04  0.00000000000E+00 0. -1.
<mgrwt>
<rscale>  0 0.16642555E+04</rscale>
<asrwt>0</asrwt>
<pdfrwt beam="1">  1        1 0.38862552E+00 0.16642555E+04</pdfrwt>
<pdfrwt beam="2">  1       -1 0.42171782E-01 0.16642555E+04</pdfrwt>
<totfact> 0.68655867E+00</totfact>
</mgrwt>
</event>
<event>
 6    1  0.1831439E-005  0.2047328E+04  0.7818608E-02  0.8584807E-01
         -1   -1    0    0    0  501 -0.00000000000E+00  0.00000000000E+00  0.46397353098E+03  0.46397353098E+03  0.00000000000E+00 0.  1.
          1   -1    0    0  501    0  0.00000000000E+00 -0.00000000000E+00 -0.22585079399E+04  0.22585079399E+04  0.00000000000E+00 0. -1.
         23    2    1    2    0    0 -0.51673970267E+03  0.70555499823E+03 -0.16011512914E+04  0.18268114390E+04  0.93417343237E+02 0.  0.
         11    1    3    3    0    0 -0.31363546272E+03  0.49389042846E+03 -0.11090746626E+04  0.12539304470E+04  0.00000000000E+00 0. -1.
        -11    1    3    3    0    0 -0.20310423995E+03  0.21166456977E+03 -0.49207662878E+03  0.57288099198E+03  0.00000000000E+00 0.  1.
         22    1    1    2    0    0  0.51673970267E+03 -0.70555499823E+03 -0.19338311756E+03  0.89567003188E+03  0.00000000000E+00 0.  1.
<mgrwt>
<rscale>  0 0.20473279E+04</rscale>
<asrwt>0</asrwt>
<pdfrwt beam="1">  1        1 0.34746276E+00 0.20473279E+04</pdfrwt>
<pdfrwt beam="2">  1       -1 0.71380543E-01 0.20473279E+04</pdfrwt>
<totfact> 0.36381960E+00</totfact>
</mgrwt>
</event>
<event>
 6    1  0.1831439E-005  0.1954874E+04  0.7818608E-02  0.8628014E-01
         -2   -1    0    0    0  501 -0.00000000000E+00  0.00000000000E+00  0.10497129796E+04  0.10497129796E+04  0.00000000000E+00 0. -1.
          2   -1    0    0  501    0  0.00000000000E+00 -0.00000000000E+00 -0.91013767920E+03  0.91013767920E+03  0.00000000000E+00 0.  1.
         23    2    1    2    0    0  0.53074286412E+03 -0.68443369641E+02 -0.74770573967E+03  0.92368458779E+03  0.88073048783E+02 0.  0.
         13    1    3    3    0    0  0.27268665910E+03 -0.28690494348E+02 -0.45693752270E+03  0.53289122545E+03  0.00000000000E+00 0. -1.
        -13    1    3    3    0    0  0.25805620502E+03 -0.39752875293E+02 -0.29076821697E+03  0.39079336233E+03  0.00000000000E+00 0.  1.
         22    1    1    2    0    0 -0.53074286412E+03  0.68443369641E+02  0.88728104005E+03  0.10361660710E+04  0.00000000000E+00 0. -1.
<mgrwt>
<rscale>  0 0.19548743E+04</rscale>
<asrwt>0</asrwt>
<pdfrwt beam="1">  1        2 0.14002118E+00 0.19548743E+04</pdfrwt>
<pdfrwt beam="2">  1       -2 0.16149430E+00 0.19548743E+04</pdfrwt>
<totfact> 0.66073929E+00</totfact>
</mgrwt>
</event>
<event>
 6    1  0.1831439E-005  0.2319395E+04  0.7818608E-02  0.8470313E-01
          1   -1    0    0  501    0  0.00000000000E+00  0.00000000000E+00  0.13537012424E+04  0.13537012424E+04  0.00000000000E+00 0. -1.
         -1   -1    0    0    0  501 -0.00000000000E+00 -0.00000000000E+00 -0.99349730086E+03  0.99349730086E+03  0.00000000000E+00 0.  1.
         23    2    1    2    0    0 -0.72062384899E+03  0.90607884156E+03  0.20017489255E+03  0.11784869041E+04  0.92107528111E+02 0.  0.
         11    1    3    3    0    0 -0.51748775843E+03  0.67300594393E+03  0.18537066368E+03  0.86896079523E+03  0.00000000000E+00 0. -1.
        -11    1    3    3    0    0 -0.20313609056E+03  0.23307289763E+03  0.14804228871E+02  0.30952610890E+03  0.00000000000E+00 0.  1.
         22    1    1    2    0    0  0.72062384899E+03 -0.90607884156E+03  0.16002904894E+03  0.11687116391E+04  0.00000000000E+00 0.  1.
<mgrwt>
<rscale>  0 0.23193952E+04</rscale>
<asrwt>0</asrwt>
<pdfrwt beam="1">  1        1 0.20826173E+00 0.23193952E+04</pdfrwt>
<pdfrwt beam="2">  1       -1 0.15284574E+00 0.23193952E+04</pdfrwt>
<totfact> 0.24784965E+00</totfact>
</mgrwt>
</event>
<event>
 6    1  0.1831439E-005  0.2097829E+04  0.7818608E-02  0.8562200E-01
         -2   -1    0    0    0  501 -0.00000000000E+00  0.00000000000E+00  0.74076753700E+03  0.74076753700E+03  0.00000000000E+00 0.  1.
          2   -1    0    0  501    0  0.00000000000E+00 -0.00000000000E+00 -0.14852457984E+04  0.14852457984E+04  0.00000000000E+00 0. -1.
         23    2    1    2    0    0 -0.44254121337E+03 -0.54923406490E+03  0.44810853769E+03  0.84045783057E+03  0.89818260057E+02 0.  0.
         13    1    3    3    0    0 -0.16425953536E+03 -0.25100315833E+03  0.15107910780E+03  0.33587003031E+03  0.00000000000E+00 0. -1.
        -13    1    3    3    0    0 -0.27828167801E+03 -0.29823090657E+03  0.29702942989E+03  0.50458780026E+03  0.00000000000E+00 0.  1.
         22    1    1    2    0    0  0.44254121337E+03  0.54923406490E+03 -0.11925867991E+04  0.13855555048E+04  0.00000000000E+00 0. -1.
<mgrwt>
<rscale>  0 0.20978292E+04</rscale>
<asrwt>0</asrwt>
<pdfrwt beam="1">  1        2 0.22849936E+00 0.20978292E+04</pdfrwt>
<pdfrwt beam="2">  1       -2 0.11396424E+00 0.20978292E+04</pdfrwt>
<totfact> 0.71910214E+00</totfact>
</mgrwt>
</event>
<event>
 6    1  0.1831439E-005  0.4579969E+04  0.7818608E-02  0.7896784E-01
         -1   -1    0    0    0  501 -0.00000000000E+00  0.00000000000E+00  0.22519722335E+04  0.22519722335E+04  0.00000000000E+00 0.  1.
          1   -1    0    0  501    0  0.00000000000E+00 -0.00000000000E+00 -0.23286379721E+04  0.23286379721E+04  0.00000000000E+00 0. -1.
         23    2    1    2    0    0 -0.22063403511E+04 -0.34486278010E+03  0.46512092604E+03  0.22826979201E+04  0.86626997084E+02 0.  0.
         11    1    3    3    0    0 -0.32396475931E+03 -0.33860417126E+02  0.41750797178E+02  0.32839430901E+03  0.00000000000E+00 0. -1.
        -11    1    3    3    0    0 -0.18823755917E+04 -0.31100236298E+03  0.42337012887E+03  0.19543036111E+04  0.00000000000E+00 0.  1.
         22    1    1    2    0    0  0.22063403511E+04  0.34486278010E+03 -0.54178666472E+03  0.22979122855E+04  0.00000000000E+00 0.  1.
<mgrwt>
<rscale>  0 0.45799686E+04</rscale>
<asrwt>0</asrwt>
<pdfrwt beam="1">  1        1 0.35825199E+00 0.45799686E+04</pdfrwt>
<pdfrwt beam="2">  1       -1 0.34645727E+00 0.45799686E+04</pdfrwt>
<totfact> 0.21780433E-02</totfact>
</mgrwt>
</event>
<event>
 6    1  0.1831439E-005  0.1250516E+04  0.7818608E-02  0.9069754E-01
          2   -1    0    0  501    0  0.00000000000E+00  0.00000000000E+00  0.19382005613E+04  0.19382005613E+04  0.00000000000E+00 0. -1.
         -2   -1    0    0    0  501 -0.00000000000E+00 -0.00000000000E+00 -0.20170634857E+03  0.20170634857E+03  0.00000000000E+00 0.  1.
         23    2    1    2    0    0 -0.46690906621E+02  0.52112024058E+03  0.29737214750E+03  0.60862683603E+03  0.90829981414E+02 0.  0.
         13    1    3    3    0    0 -0.56278568261E+01  0.29027001721E+03  0.11790258411E+03  0.31335183900E+03  0.00000000000E+00 0.  1.
        -13    1    3    3    0    0 -0.41063049795E+02  0.23085022337E+03  0.17946956339E+03  0.29527499703E+03  0.00000000000E+00 0. -1.
         22    1    1    2    0    0  0.46690906621E+02 -0.52112024058E+03  0.14391220652E+04  0.15312800739E+04  0.00000000000E+00 0. -1.
<mgrwt>
<rscale>  0 0.12505157E+04</rscale>
<asrwt>0</asrwt>
<pdfrwt beam="1">  1        2 0.29818469E+00 0.12505157E+04</pdfrwt>
<pdfrwt beam="2">  1       -2 0.31031747E-01 0.12505157E+04</pdfrwt>
<totfact> 0.68502832E+01</totfact>
</mgrwt>
</event>
<event>
 6    1  0.1831439E-005  0.2644229E+04  0.7818608E-02  0.8353331E-01
          1   -1    0    0  501    0  0.00000000000E+00  0.00000000000E+00  0.19879534205E+04  0.19879534205E+04  0.00000000000E+00 0. -1.
         -1   -1    0    0    0  501 -0.00000000000E+00 -0.00000000000E+00 -0.87928929219E+03  0.87928929219E+03  0.00000000000E+00 0.  1.
         23    2    1    2    0    0  0.11978389476E+03 -0.12864706693E+04  0.85076201483E+03  0.15497191021E+04  0.92077821409E+02 0.  0.
         11    1    3    3    0    0  0.33175884864E+02 -0.72438631621E+03  0.51306416875E+03  0.88829669351E+03  0.00000000000E+00 0.  1.
        -11    1    3    3    0    0  0.86608009895E+02 -0.56208435308E+03  0.33769784608E+03  0.66142240860E+03  0.00000000000E+00 0. -1.
         22    1    1    2    0    0 -0.11978389476E+03  0.12864706693E+04  0.25790211352E+03  0.13175236106E+04  0.00000000000E+00 0. -1.
<mgrwt>
<rscale>  0 0.26442285E+04</rscale>
<asrwt>0</asrwt>
<pdfrwt beam="1">  1        1 0.30583899E+00 0.26442285E+04</pdfrwt>
<pdfrwt beam="2">  1       -1 0.13527528E+00 0.26442285E+04</pdfrwt>
<totfact> 0.12206947E+00</totfact>
</mgrwt>
</event>
<event>
 6    1  0.1831439E-005  0.1428729E+04  0.7818608E-02  0.8933281E-01
          1   -1    0    0  501    0  0.00000000000E+00  0.00000000000E+00  0.85132979343E+03  0.85132979343E+03  0.00000000000E+00 0. -1.
         -1   -1    0    0    0  501 -0.00000000000E+00 -0.00000000000E+00 -0.59943488025E+03  0.59943488025E+03  0.00000000000E+00 0.  1.
         23    2    1    2    0    0  0.28511866270E+03 -0.64460173669E+03  0.22432368624E+03  0.74538234946E+03  0.92030863886E+02 0.  0.
         13    1    3    3    0    0  0.16486374224E+03 -0.41003794798E+03  0.96151089005E+02  0.45227890091E+03  0.00000000000E+00 0.  1.
        -13    1    3    3    0    0  0.12025492045E+03 -0.23456378871E+03  0.12817259724E+03  0.29310344855E+03  0.00000000000E+00 0. -1.
         22    1    1    2    0    0 -0.28511866270E+03  0.64460173669E+03  0.27571226938E+02  0.70538232422E+03  0.00000000000E+00 0.  1.
<mgrwt>
<rscale>  0 0.14287292E+04</rscale>
<asrwt>0</asrwt>
<pdfrwt beam="1">  1        1 0.13097382E+00 0.14287292E+04</pdfrwt>
<pdfrwt beam="2">  1       -1 0.92220750E-01 0.14287292E+04</pdfrwt>
<totfact> 0.22247488E+01</totfact>
</mgrwt>
</event>
<event>
 6    1  0.1831439E-005  0.1013794E+04  0.7818608E-02  0.9293543E-01
         -3   -1    0    0    0  501 -0.00000000000E+00  0.00000000000E+00  0.11399226839E+04  0.11399226839E+04  0.00000000000E+00 0.  1.
          3   -1    0    0  501    0  0.00000000000E+00 -0.00000000000E+00 -0.22540545016E+03  0.22540545016E+03  0.00000000000E+00 0. -1.
         23    2    1    2    0    0 -0.12687868485E+03 -0.41809722717E+03  0.12601361079E+03  0.46386185324E+03  0.91569081815E+02 0.  0.
         13    1    3    3    0    0 -0.16561508864E+02 -0.15457800817E+03  0.10839167920E+02  0.15584008389E+03  0.00000000000E+00 0. -1.
        -13    1    3    3    0    0 -0.11031717598E+03 -0.26351921901E+03  0.11517444287E+03  0.30802176935E+03  0.00000000000E+00 0.  1.
         22    1    1    2    0    0  0.12687868485E+03  0.41809722717E+03  0.78850362293E+03  0.90146628079E+03  0.00000000000E+00 0.  1.
<mgrwt>
<rscale>  0 0.10137944E+04</rscale>
<asrwt>0</asrwt>
<pdfrwt beam="1">  1        3 0.34677762E-01 0.10137944E+04</pdfrwt>
<pdfrwt beam="2">  1       -3 0.17537272E+00 0.10137944E+04</pdfrwt>
<totfact> 0.45688155E+00</totfact>
</mgrwt>
</event>
<event>
 6    1  0.1831439E-005  0.4643333E+04  0.7818608E-02  0.7886013E-01
         -1   -1    0    0    0  501 -0.00000000000E+00  0.00000000000E+00  0.18305675229E+04  0.18305675229E+04  0.00000000000E+00 0.  1.
          1   -1    0    0  501    0  0.00000000000E+00 -0.00000000000E+00 -0.29445154327E+04  0.29445154327E+04  0.00000000000E+00 0. -1.
         23    2    1    2    0    0  0.15170430819E+04 -0.95251309051E+03  0.96020246439E+03  0.20344989531E+04  0.92175470778E+02 0.  0.
         13    1    3    3    0    0  0.69035688018E+03 -0.43124168659E+03  0.38442535269E+03  0.90019157186E+03  0.00000000000E+00 0. -1.
        -13    1    3    3    0    0  0.82668620177E+03 -0.52127140392E+03  0.57577711171E+03  0.11343073812E+04  0.00000000000E+00 0.  1.
         22    1    1    2    0    0 -0.15170430819E+04  0.95251309051E+03 -0.20741503742E+04  0.27405840025E+04  0.00000000000E+00 0. -1.
<mgrwt>
<rscale>  0 0.46433326E+04</rscale>
<asrwt>0</asrwt>
<pdfrwt beam="1">  1        1 0.45300237E+00 0.46433326E+04</pdfrwt>
<pdfrwt beam="2">  1       -1 0.28162577E+00 0.46433326E+04</pdfrwt>
<totfact> 0.21163379E-02</totfact>
</mgrwt>
</event>
<event>
 6    1  0.1831439E-005  0.2463894E+04  0.7818608E-02  0.8415963E-01
         -2   -1    0    0    0  501 -0.00000000000E+00  0.00000000000E+00  0.16244341859E+04  0.16244341859E+04  0.00000000000E+00 0.  1.
          2   -1    0    0  501    0  0.00000000000E+00 -0.00000000000E+00 -0.93429055851E+03  0.93429055851E+03  0.00000000000E+00 0. -1.
         23    2    1    2    0    0  0.21796596298E+03 -0.12101584641E+04  0.30229421247E+03  0.12693761345E+04  0.89114031125E+02 0.  0.
         11    1    3    3    0    0  0.25641964218E+02 -0.34788508632E+03  0.68305668280E+02  0.35545352429E+03  0.00000000000E+00 0.  1.
        -11    1    3    3    0    0  0.19232399877E+03 -0.86227337783E+03  0.23398854419E+03  0.91392261019E+03  0.00000000000E+00 0. -1.
         22    1    1    2    0    0 -0.21796596298E+03  0.12101584641E+04  0.38784941496E+03  0.12893486100E+04  0.00000000000E+00 0. -1.
<mgrwt>
<rscale>  0 0.24638941E+04</rscale>
<asrwt>0</asrwt>
<pdfrwt beam="1">  1        2 0.14373701E+00 0.24638941E+04</pdfrwt>
<pdfrwt beam="2">  1       -2 0.24991295E+00 0.24638941E+04</pdfrwt>
<totfact> 0.16002775E+00</totfact>
</mgrwt>
</event>
<event>
 6    1  0.1831439E-005  0.1204209E+04  0.7818608E-02  0.9109180E-01
         -2   -1    0    0    0  501 -0.00000000000E+00  0.00000000000E+00  0.12283540268E+04  0.12283540268E+04  0.00000000000E+00 0. -1.
          2   -1    0    0  501    0  0.00000000000E+00 -0.00000000000E+00 -0.29513462343E+03  0.29513462343E+03  0.00000000000E+00 0.  1.
         23    2    1    2    0    0 -0.33938846689E+03  0.49269665471E+03  0.49862176363E+03  0.78402287447E+03  0.90186914287E+02 0.  0.
         13    1    3    3    0    0 -0.13487204193E+03  0.15235955244E+03  0.12494027947E+03  0.23877599198E+03  0.00000000000E+00 0.  1.
        -13    1    3    3    0    0 -0.20451642497E+03  0.34033710227E+03  0.37368148415E+03  0.54524688249E+03  0.00000000000E+00 0. -1.
         22    1    1    2    0    0  0.33938846689E+03 -0.49269665471E+03  0.43459763971E+03  0.73946577573E+03  0.00000000000E+00 0. -1.
<mgrwt>
<rscale>  0 0.12042090E+04</rscale>
<asrwt>0</asrwt>
<pdfrwt beam="1">  1        2 0.45405327E-01 0.12042090E+04</pdfrwt>
<pdfrwt beam="2">  1       -2 0.18897754E+00 0.12042090E+04</pdfrwt>
<totfact> 0.17353456E+01</totfact>
</mgrwt>
</event>
<event>
 6    1  0.1831439E-005  0.2605082E+04  0.7818608E-02  0.8366477E-01
          2   -1    0    0  501    0  0.00000000000E+00  0.00000000000E+00  0.11447328945E+04  0.11447328945E+04  0.00000000000E+00 0.  1.
         -2   -1    0    0    0  501 -0.00000000000E+00 -0.00000000000E+00 -0.14821035044E+04  0.14821035044E+04  0.00000000000E+00 0. -1.
         23    2    1    2    0    0  0.19479635707E+03 -0.72361799220E+03 -0.12411824410E+04  0.14527646611E+04  0.91775211504E+02 0.  0.
         11    1    3    3    0    0  0.38746968351E+02 -0.18794345652E+03 -0.39575834369E+03  0.43982807664E+03  0.00000000000E+00 0.  1.
        -11    1    3    3    0    0  0.15604938872E+03 -0.53567453568E+03 -0.84542409731E+03  0.10129365845E+04  0.00000000000E+00 0. -1.
         22    1    1    2    0    0 -0.19479635707E+03  0.72361799220E+03  0.90381183107E+03  0.11740717377E+04  0.00000000000E+00 0.  1.
<mgrwt>
<rscale>  0 0.26050817E+04</rscale>
<asrwt>0</asrwt>
<pdfrwt beam="1">  1        2 0.17611275E+00 0.26050817E+04</pdfrwt>
<pdfrwt beam="2">  1       -2 0.22801592E+00 0.26050817E+04</pdfrwt>
<totfact> 0.15909780E+00</totfact>
</mgrwt>
</event>
<event>
 6    1  0.1831439E-005  0.2231793E+04  0.7818608E-02  0.8505310E-01
          1   -1    0    0  501    0  0.00000000000E+00  0.00000000000E+00  0.32256918181E+04  0.32256918181E+04  0.00000000000E+00 0. -1.
         -1   -1    0    0    0  501 -0.00000000000E+00 -0.00000000000E+00 -0.38603357679E+03  0.38603357679E+03  0.00000000000E+00 0.  1.
         23    2    1    2    0    0 -0.32462011070E+03 -0.19035631128E+03  0.31193429427E+04  0.31428573179E+04  0.75086516738E+02 0.  0.
         13    1    3    3    0    0 -0.28092937310E+03 -0.15592540234E+03  0.24077214304E+04  0.24290649498E+04  0.00000000000E+00 0.  1.
        -13    1    3    3    0    0 -0.43690737602E+02 -0.34430908939E+02  0.71162151226E+03  0.71379236810E+03  0.00000000000E+00 0. -1.
         22    1    1    2    0    0  0.32462011070E+03  0.19035631128E+03 -0.27968470133E+03  0.46886807705E+03  0.00000000000E+00 0.  1.
<mgrwt>
<rscale>  0 0.22317933E+04</rscale>
<asrwt>0</asrwt>
<pdfrwt beam="1">  1        1 0.49626026E+00 0.22317933E+04</pdfrwt>
<pdfrwt beam="2">  1       -1 0.59389783E-01 0.22317933E+04</pdfrwt>
<totfact> 0.10639765E+00</totfact>
</mgrwt>
</event>
<event>
 6    1  0.1831439E-005  0.4113794E+04  0.7818608E-02  0.7981976E-01
         -1   -1    0    0    0  501 -0.00000000000E+00  0.00000000000E+00  0.15368699879E+04  0.15368699879E+04  0.00000000000E+00 0.  1.
          1   -1    0    0  501    0  0.00000000000E+00 -0.00000000000E+00 -0.27528842082E+04  0.27528842082E+04  0.00000000000E+00 0. -1.
         23    2    1    2    0    0 -0.18391984838E+04  0.65316516894E+03 -0.12819931261E+04  0.23369026870E+04  0.91279747935E+02 0.  0.
         11    1    3    3    0    0 -0.48160328904E+03  0.19133028709E+03 -0.38325917732E+03  0.64454371750E+03  0.00000000000E+00 0.  1.
        -11    1    3    3    0    0 -0.13575951947E+04  0.46183488185E+03 -0.89873394879E+03  0.16923589695E+04  0.00000000000E+00 0. -1.
         22    1    1    2    0    0  0.18391984838E+04 -0.65316516894E+03  0.65978905858E+02  0.19528515091E+04  0.00000000000E+00 0. -1.
<mgrwt>
<rscale>  0 0.41137939E+04</rscale>
<asrwt>0</asrwt>
<pdfrwt beam="1">  1        1 0.42352065E+00 0.41137939E+04</pdfrwt>
<pdfrwt beam="2">  1       -1 0.23644154E+00 0.41137939E+04</pdfrwt>
<totfact> 0.59727633E-02</totfact>
</mgrwt>
</event>
<event>
 6    1  0.1831439E-005  0.4321732E+04  0.7818608E-02  0.7942612E-01
         -1   -1    0    0    0  501 -0.00000000000E+00  0.00000000000E+00  0.15983326931E+04  0.15983326931E+04  0.00000000000E+00 0.  1.
          1   -1    0    0  501    0  0.00000000000E+00 -0.00000000000E+00 -0.29213832234E+04  0.29213832234E+04  0.00000000000E+00 0. -1.
         23    2    1    2    0    0  0.97739793874E+03  0.18033538470E+04  0.46070621685E+02  0.20535682005E+04  0.87338559492E+02 0.  0.
         13    1    3    3    0    0  0.90562966974E+03  0.16552949111E+04  0.64913845491E+02  0.18879566067E+04  0.00000000000E+00 0. -1.
        -13    1    3    3    0    0  0.71768268996E+02  0.14805893586E+03 -0.18843223806E+02  0.16561159381E+03  0.00000000000E+00 0.  1.
         22    1    1    2    0    0 -0.97739793874E+03 -0.18033538470E+04 -0.13691211519E+04  0.24661477159E+04  0.00000000000E+00 0.  1.
<mgrwt>
<rscale>  0 0.43217322E+04</rscale>
<asrwt>0</asrwt>
<pdfrwt beam="1">  1        1 0.44944357E+00 0.43217322E+04</pdfrwt>
<pdfrwt beam="2">  1       -1 0.24589734E+00 0.43217322E+04</pdfrwt>
<totfact> 0.38541528E-02</totfact>
</mgrwt>
</event>
<event>
 6    1  0.1831439E-005  0.9904629E+03  0.7818608E-02  0.9319067E-01
          2   -1    0    0  501    0  0.00000000000E+00  0.00000000000E+00  0.14398296759E+04  0.14398296759E+04  0.00000000000E+00 0. -1.
         -2   -1    0    0    0  501 -0.00000000000E+00 -0.00000000000E+00 -0.17033555659E+03  0.17033555659E+03  0.00000000000E+00 0.  1.
         23    2    1    2    0    0  0.14216707701E+02 -0.39365750791E+03  0.16310026469E+03  0.43573953885E+03  0.89993894596E+02 0.  0.
         11    1    3    3    0    0  0.18984351593E+02 -0.34553596942E+03  0.17219983989E+03  0.38653369404E+03  0.00000000000E+00 0.  1.
        -11    1    3    3    0    0 -0.47676438917E+01 -0.48121538493E+02 -0.90995752006E+01  0.49205844815E+02  0.00000000000E+00 0. -1.
         22    1    1    2    0    0 -0.14216707701E+02  0.39365750791E+03  0.11063938547E+04  0.11744256937E+04  0.00000000000E+00 0. -1.
<mgrwt>
<rscale>  0 0.99046290E+03</rscale>
<asrwt>0</asrwt>
<pdfrwt beam="1">  1        2 0.22151225E+00 0.99046290E+03</pdfrwt>
<pdfrwt beam="2">  1       -2 0.26205471E-01 0.99046290E+03</pdfrwt>
<totfact> 0.18040018E+02</totfact>
</mgrwt>
</event>
<event>
 6    1  0.1831439E-005  0.1996997E+04  0.7818608E-02  0.8608026E-01
         -2   -1    0    0    0  501 -0.00000000000E+00  0.00000000000E+00  0.13535583196E+04  0.13535583196E+04  0.00000000000E+00 0.  1.
          2   -1    0    0  501    0  0.00000000000E+00 -0.00000000000E+00 -0.73657629436E+03  0.73657629436E+03  0.00000000000E+00 0. -1.
         23    2    1    2    0    0  0.84620345141E+03  0.36563624973E+03  0.70501132009E+03  0.11641220303E+04  0.91591439315E+02 0.  0.
         11    1    3    3    0    0  0.41446869560E+03  0.15118339022E+03  0.38463845182E+03  0.58530970923E+03  0.00000000000E+00 0.  1.
        -11    1    3    3    0    0  0.43173475582E+03  0.21445285952E+03  0.32037286828E+03  0.57881232111E+03  0.00000000000E+00 0. -1.
         22    1    1    2    0    0 -0.84620345141E+03 -0.36563624973E+03 -0.88029294836E+02  0.92601258363E+03  0.00000000000E+00 0.  1.
<mgrwt>
<rscale>  0 0.19969967E+04</rscale>
<asrwt>0</asrwt>
<pdfrwt beam="1">  1        2 0.11331943E+00 0.19969967E+04</pdfrwt>
<pdfrwt beam="2">  1       -2 0.20823974E+00 0.19969967E+04</pdfrwt>
<totfact> 0.41906283E+00</totfact>
</mgrwt>
</event>
<event>
 6    1  0.1831439E-005  0.1378331E+04  0.7818608E-02  0.8969655E-01
          1   -1    0    0  501    0  0.00000000000E+00  0.00000000000E+00  0.64391440151E+03  0.64391440151E+03  0.00000000000E+00 0. -1.
         -1   -1    0    0    0  501 -0.00000000000E+00 -0.00000000000E+00 -0.73759652707E+03  0.73759652707E+03  0.00000000000E+00 0.  1.
         23    2    1    2    0    0 -0.17384334847E+03 -0.65439689341E+03  0.63468726432E+02  0.68641870866E+03  0.93196354257E+02 0.  0.
         13    1    3    3    0    0 -0.35771121507E+02 -0.26608221847E+03  0.55814584418E+02  0.27421631598E+03  0.00000000000E+00 0. -1.
        -13    1    3    3    0    0 -0.13807222697E+03 -0.38831467494E+03  0.76541420147E+01  0.41220239267E+03  0.00000000000E+00 0.  1.
         22    1    1    2    0    0  0.17384334847E+03  0.65439689341E+03 -0.15715085199E+03  0.69509221992E+03  0.00000000000E+00 0. -1.
<mgrwt>
<rscale>  0 0.13783309E+04</rscale>
<asrwt>0</asrwt>
<pdfrwt beam="1">  1        1 0.99063754E-01 0.13783309E+04</pdfrwt>
<pdfrwt beam="2">  1       -1 0.11347639E+00 0.13783309E+04</pdfrwt>
<totfact> 0.21386725E+01</totfact>
</mgrwt>
</event>
<event>
 6    1  0.1831439E-005  0.3423152E+04  0.7818608E-02  0.8132247E-01
         -1   -1    0    0    0  501 -0.00000000000E+00  0.00000000000E+00  0.22740474616E+04  0.22740474616E+04  0.00000000000E+00 0.  1.
          1   -1    0    0  501    0  0.00000000000E+00 -0.00000000000E+00 -0.12882284485E+04  0.12882284485E+04  0.00000000000E+00 0. -1.
         23    2    1    2    0    0 -0.12715163645E+04  0.10939249367E+04  0.14538041062E+03  0.16861728541E+04  0.92832095382E+02 0.  0.
         11    1    3    3    0    0 -0.56908924807E+03  0.48544985056E+03  0.11106597782E+03  0.75621411062E+03  0.00000000000E+00 0.  1.
        -11    1    3    3    0    0 -0.70242711641E+03  0.60847508612E+03  0.34314432793E+02  0.92995874349E+03  0.00000000000E+00 0. -1.
         22    1    1    2    0    0  0.12715163645E+04 -0.10939249367E+04  0.84043860242E+03  0.18761030560E+04  0.00000000000E+00 0.  1.
<mgrwt>
<rscale>  0 0.34231521E+04</rscale>
<asrwt>0</asrwt>
<pdfrwt beam="1">  1        1 0.19818899E+00 0.34231521E+04</pdfrwt>
<pdfrwt beam="2">  1       -1 0.34985346E+00 0.34231521E+04</pdfrwt>
<totfact> 0.11787865E-01</totfact>
</mgrwt>
</event>
<event>
 6    1  0.1831439E-005  0.2283026E+04  0.7818608E-02  0.8484644E-01
         -1   -1    0    0    0  501 -0.00000000000E+00  0.00000000000E+00  0.48557324208E+03  0.48557324208E+03  0.00000000000E+00 0.  1.
          1   -1    0    0  501    0  0.00000000000E+00 -0.00000000000E+00 -0.26835326086E+04  0.26835326086E+04  0.00000000000E+00 0. -1.
         23    2    1    2    0    0  0.54135014086E+03 -0.64540435473E+02  0.28846417807E+03  0.62361425062E+03  0.91965801962E+02 0.  0.
         11    1    3    3    0    0  0.13442486654E+03  0.22366036662E+02  0.59737236332E+02  0.14879120184E+03  0.00000000000E+00 0.  1.
        -11    1    3    3    0    0  0.40692527432E+03 -0.86906472135E+02  0.22872694174E+03  0.47482304878E+03  0.00000000000E+00 0. -1.
         22    1    1    2    0    0 -0.54135014086E+03  0.64540435473E+02 -0.24864235446E+04  0.25454916000E+04  0.00000000000E+00 0. -1.
<mgrwt>
<rscale>  0 0.22830257E+04</rscale>
<asrwt>0</asrwt>
<pdfrwt beam="1">  1        1 0.41285117E+00 0.22830257E+04</pdfrwt>
<pdfrwt beam="2">  1       -1 0.74703576E-01 0.22830257E+04</pdfrwt>
<totfact> 0.16450994E+00</totfact>
</mgrwt>
</event>
<event>
 6    1  0.1831439E-005  0.1547239E+04  0.7818608E-02  0.8853633E-01
          1   -1    0    0  501    0  0.00000000000E+00  0.00000000000E+00  0.97872889666E+03  0.97872889666E+03  0.00000000000E+00 0. -1.
         -1   -1    0    0    0  501 -0.00000000000E+00 -0.00000000000E+00 -0.61149432790E+03  0.61149432790E+03  0.00000000000E+00 0.  1.
         23    2    1    2    0    0  0.34316011268E+03  0.14738219432E+02 -0.52544342032E+03  0.63374527383E+03  0.86983941606E+02 0.  0.
         13    1    3    3    0    0  0.75799979853E+02  0.12643675118E+01 -0.19007597689E+03  0.20463653769E+03  0.00000000000E+00 0. -1.
        -13    1    3    3    0    0  0.26736013283E+03  0.13473851921E+02 -0.33536744343E+03  0.42910873613E+03  0.00000000000E+00 0.  1.
         22    1    1    2    0    0 -0.34316011268E+03 -0.14738219432E+02  0.89267798908E+03  0.95647795073E+03  0.00000000000E+00 0. -1.
<mgrwt>
<rscale>  0 0.15472390E+04</rscale>
<asrwt>0</asrwt>
<pdfrwt beam="1">  1        1 0.15057368E+00 0.15472390E+04</pdfrwt>
<pdfrwt beam="2">  1       -1 0.94076050E-01 0.15472390E+04</pdfrwt>
<totfact> 0.16590451E+01</totfact>
</mgrwt>
</event>
<event>
 6    1  0.1865177E-005  0.4343933E+04  0.7818608E-02  0.7938544E-01
          2   -1    0    0  501    0  0.00000000000E+00  0.00000000000E+00  0.32281182758E+04  0.32281182758E+04  0.00000000000E+00 0. -1.
         -2   -1    0    0    0  501 -0.00000000000E+00 -0.00000000000E+00 -0.14613585548E+04  0.14613585548E+04  0.00000000000E+00 0.  1.
         23    2    1    2    0    0  0.14040248714E+04 -0.90184698145E+03 -0.61522185857E+03  0.17811353680E+04  0.96599413303E+02 0.  0.
         11    1    3    3    0    0  0.90166093027E+03 -0.61225044105E+03 -0.36235933192E+03  0.11485413885E+04  0.00000000000E+00 0.  1.
        -11    1    3    3    0    0  0.50236394111E+03 -0.28959654041E+03 -0.25286252664E+03  0.63259397952E+03  0.00000000000E+00 0. -1.
         22    1    1    2    0    0 -0.14040248714E+04  0.90184698145E+03  0.23819815795E+04  0.29083414625E+04  0.00000000000E+00 0. -1.
<mgrwt>
<rscale>  0 0.43439329E+04</rscale>
<asrwt>0</asrwt>
<pdfrwt beam="1">  1        2 0.49663358E+00 0.43439329E+04</pdfrwt>
<pdfrwt beam="2">  1       -2 0.22482439E+00 0.43439329E+04</pdfrwt>
<totfact> 0.87778854E-02</totfact>
</mgrwt>
</event>
<event>
 6    1  0.1831439E-005  0.2136500E+04  0.7818608E-02  0.8545333E-01
         -2   -1    0    0    0  501 -0.00000000000E+00  0.00000000000E+00  0.34946133528E+03  0.34946133528E+03  0.00000000000E+00 0.  1.
          2   -1    0    0  501    0  0.00000000000E+00 -0.00000000000E+00 -0.32654776736E+04  0.32654776736E+04  0.00000000000E+00 0. -1.
         23    2    1    2    0    0 -0.81951717500E+03  0.65480913535E+03 -0.11367035507E+04  0.15494275952E+04  0.90815784584E+02 0.  0.
         13    1    3    3    0    0 -0.78123751258E+03  0.63598041933E+03 -0.10647220025E+04  0.14657544431E+04  0.00000000000E+00 0.  1.
        -13    1    3    3    0    0 -0.38279662422E+02  0.18828716019E+02 -0.71981548211E+02  0.83673152115E+02  0.00000000000E+00 0. -1.
         22    1    1    2    0    0  0.81951717500E+03 -0.65480913535E+03 -0.17793127876E+04  0.20655114137E+04  0.00000000000E+00 0.  1.
<mgrwt>
<rscale>  0 0.21365001E+04</rscale>
<asrwt>0</asrwt>
<pdfrwt beam="1">  1        2 0.50238118E+00 0.21365001E+04</pdfrwt>
<pdfrwt beam="2">  1       -2 0.53763282E-01 0.21365001E+04</pdfrwt>
<totfact> 0.35265818E+00</totfact>
</mgrwt>
</event>
<event>
 6    1  0.1831439E-005  0.2028497E+04  0.7818608E-02  0.8593412E-01
          2   -1    0    0  501    0  0.00000000000E+00  0.00000000000E+00  0.11490638813E+04  0.11490638813E+04  0.00000000000E+00 0. -1.
         -2   -1    0    0    0  501 -0.00000000000E+00 -0.00000000000E+00 -0.89525038076E+03  0.89525038076E+03  0.00000000000E+00 0.  1.
         23    2    1    2    0    0 -0.86165323028E+03 -0.52249404509E+03  0.22239605800E+03  0.10361310584E+04  0.93065821797E+02 0.  0.
         11    1    3    3    0    0 -0.58530242055E+03 -0.34900422378E+03  0.10574959074E+03  0.68961282446E+03  0.00000000000E+00 0.  1.
        -11    1    3    3    0    0 -0.27635080972E+03 -0.17348982131E+03  0.11664646727E+03  0.34651823395E+03  0.00000000000E+00 0. -1.
         22    1    1    2    0    0  0.86165323028E+03  0.52249404509E+03  0.31417442519E+02  0.10081832036E+04  0.00000000000E+00 0.  1.
<mgrwt>
<rscale>  0 0.20284969E+04</rscale>
<asrwt>0</asrwt>
<pdfrwt beam="1">  1        2 0.17677906E+00 0.20284969E+04</pdfrwt>
<pdfrwt beam="2">  1       -2 0.13773083E+00 0.20284969E+04</pdfrwt>
<totfact> 0.70615493E+00</totfact>
</mgrwt>
</event>
<event>
 6    1  0.1831439E-005  0.2625794E+04  0.7818608E-02  0.8359492E-01
         -1   -1    0    0    0  501 -0.00000000000E+00  0.00000000000E+00  0.17722269940E+04  0.17722269940E+04  0.00000000000E+00 0.  1.
          1   -1    0    0  501    0  0.00000000000E+00 -0.00000000000E+00 -0.97261724195E+03  0.97261724195E+03  0.00000000000E+00 0. -1.
         23    2    1    2    0    0  0.55263496305E+03  0.71476530762E+03  0.13937184849E+04  0.16635209569E+04  0.92498170373E+02 0.  0.
         13    1    3    3    0    0  0.46311205165E+03  0.53662636190E+03  0.10839476997E+04  0.12951383093E+04  0.00000000000E+00 0. -1.
        -13    1    3    3    0    0  0.89522911398E+02  0.17813894572E+03  0.30977078525E+03  0.36838264759E+03  0.00000000000E+00 0.  1.
         22    1    1    2    0    0 -0.55263496305E+03 -0.71476530762E+03 -0.59410873285E+03  0.10813232791E+04  0.00000000000E+00 0. -1.
<mgrwt>
<rscale>  0 0.26257940E+04</rscale>
<asrwt>0</asrwt>
<pdfrwt beam="1">  1        1 0.14963342E+00 0.26257940E+04</pdfrwt>
<pdfrwt beam="2">  1       -1 0.27265031E+00 0.26257940E+04</pdfrwt>
<totfact> 0.69395618E-01</totfact>
</mgrwt>
</event>
<event>
 6    1  0.1831439E-005  0.2641569E+04  0.7818608E-02  0.8354217E-01
         -1   -1    0    0    0  501 -0.00000000000E+00  0.00000000000E+00  0.18446628391E+04  0.18446628391E+04  0.00000000000E+00 0.  1.
          1   -1    0    0  501    0  0.00000000000E+00 -0.00000000000E+00 -0.94568565227E+03  0.94568565227E+03  0.00000000000E+00 0. -1.
         23    2    1    2    0    0  0.83084022360E+03 -0.18689589933E+03 -0.61442583083E+03  0.10537960884E+04  0.87986021628E+02 0.  0.
         11    1    3    3    0    0  0.71334915500E+02 -0.10677190469E+02 -0.84381237874E+02  0.11100840451E+03  0.00000000000E+00 0.  1.
        -11    1    3    3    0    0  0.75950530810E+03 -0.17621870886E+03 -0.53004459296E+03  0.94278768390E+03  0.00000000000E+00 0. -1.
         22    1    1    2    0    0 -0.83084022360E+03  0.18689589933E+03  0.15134030177E+04  0.17365524030E+04  0.00000000000E+00 0.  1.
<mgrwt>
<rscale>  0 0.26415686E+04</rscale>
<asrwt>0</asrwt>
<pdfrwt beam="1">  1        1 0.14549010E+00 0.26415686E+04</pdfrwt>
<pdfrwt beam="2">  1       -1 0.28379428E+00 0.26415686E+04</pdfrwt>
<totfact> 0.61665283E-01</totfact>
</mgrwt>
</event>
<event>
 6    1  0.1831439E-005  0.2087146E+04  0.7818608E-02  0.8566927E-01
          1   -1    0    0  501    0  0.00000000000E+00  0.00000000000E+00  0.15498031815E+04  0.15498031815E+04  0.00000000000E+00 0. -1.
         -1   -1    0    0    0  501 -0.00000000000E+00 -0.00000000000E+00 -0.70269865035E+03  0.70269865035E+03  0.00000000000E+00 0.  1.
         23    2    1    2    0    0 -0.73682152592E+03 -0.67756848963E+03  0.11079545327E+03  0.10098610642E+04  0.74422559480E+02 0.  0.
         11    1    3    3    0    0 -0.43479395072E+03 -0.44814180179E+03  0.75043798115E+02  0.62889460621E+03  0.00000000000E+00 0. -1.
        -11    1    3    3    0    0 -0.30202757521E+03 -0.22942668784E+03  0.35751655156E+02  0.38096645800E+03  0.00000000000E+00 0.  1.
         22    1    1    2    0    0  0.73682152592E+03  0.67756848963E+03  0.73630907785E+03  0.12426407676E+04  0.00000000000E+00 0. -1.
<mgrwt>
<rscale>  0 0.20871460E+04</rscale>
<asrwt>0</asrwt>
<pdfrwt beam="1">  1        1 0.23843126E+00 0.20871460E+04</pdfrwt>
<pdfrwt beam="2">  1       -1 0.10810749E+00 0.20871460E+04</pdfrwt>
<totfact> 0.44232761E+00</totfact>
</mgrwt>
</event>
<event>
 6    1  0.1831439E-005  0.3085016E+04  0.7818608E-02  0.8219862E-01
          1   -1    0    0  501    0  0.00000000000E+00  0.00000000000E+00  0.12363936196E+04  0.12363936196E+04  0.00000000000E+00 0. -1.
         -1   -1    0    0    0  501 -0.00000000000E+00 -0.00000000000E+00 -0.19244120137E+04  0.19244120137E+04  0.00000000000E+00 0.  1.
         23    2    1    2    0    0  0.18285442324E+03 -0.58565350898E+03 -0.17927888468E+04  0.18971033243E+04  0.92105380693E+02 0.  0.
         11    1    3    3    0    0  0.79133680574E+02 -0.33488188400E+03 -0.88211258640E+03  0.94685301432E+03  0.00000000000E+00 0.  1.
        -11    1    3    3    0    0  0.10372074267E+03 -0.25077162498E+03 -0.91067626043E+03  0.95025031001E+03  0.00000000000E+00 0. -1.
         22    1    1    2    0    0 -0.18285442324E+03  0.58565350898E+03  0.11047704527E+04  0.12637023090E+04  0.00000000000E+00 0. -1.
<mgrwt>
<rscale>  0 0.30850159E+04</rscale>
<asrwt>0</asrwt>
<pdfrwt beam="1">  1        1 0.19021440E+00 0.30850159E+04</pdfrwt>
<pdfrwt beam="2">  1       -1 0.29606339E+00 0.30850159E+04</pdfrwt>
<totfact> 0.29743329E-01</totfact>
</mgrwt>
</event>
<event>
 6    1  0.1831439E-005  0.3781041E+04  0.7818608E-02  0.8050236E-01
          4   -1    0    0  501    0  0.00000000000E+00  0.00000000000E+00  0.13121409322E+04  0.13121409322E+04  0.00000000000E+00 0.  1.
         -4   -1    0    0    0  501 -0.00000000000E+00 -0.00000000000E+00 -0.27238440423E+04  0.27238440423E+04  0.00000000000E+00 0. -1.
         23    2    1    2    0    0  0.63630851966E+03 -0.51978210326E+03 -0.25223577285E+04  0.26544584100E+04  0.93802841189E+02 0.  0.
         13    1    3    3    0    0  0.15706300456E+03 -0.12638120918E+03 -0.49737647051E+03  0.53667900169E+03  0.00000000000E+00 0. -1.
        -13    1    3    3    0    0  0.47924551510E+03 -0.39340089409E+03 -0.20249812580E+04  0.21177794083E+04  0.00000000000E+00 0.  1.
         22    1    1    2    0    0 -0.63630851966E+03  0.51978210326E+03  0.11106546184E+04  0.13815265645E+04  0.00000000000E+00 0.  1.
<mgrwt>
<rscale>  0 0.37810407E+04</rscale>
<asrwt>0</asrwt>
<pdfrwt beam="1">  1        4 0.20186784E+00 0.37810407E+04</pdfrwt>
<pdfrwt beam="2">  1       -4 0.41905293E+00 0.37810407E+04</pdfrwt>
<totfact> 0.10066742E-03</totfact>
</mgrwt>
</event>
<event>
 6    1  0.1831439E-005  0.1294577E+04  0.7818608E-02  0.9033877E-01
          2   -1    0    0  501    0  0.00000000000E+00  0.00000000000E+00  0.18514188886E+04  0.18514188886E+04  0.00000000000E+00 0.  1.
         -2   -1    0    0    0  501 -0.00000000000E+00 -0.00000000000E+00 -0.22630326200E+03  0.22630326200E+03  0.00000000000E+00 0. -1.
         23    2    1    2    0    0  0.31885517390E+03 -0.12840838757E+03  0.16906169697E+04  0.17277967845E+04  0.94544456415E+02 0.  0.
         13    1    3    3    0    0  0.35291969250E+02 -0.20845510106E+02  0.39673173308E+03  0.39884348612E+03  0.00000000000E+00 0.  1.
        -13    1    3    3    0    0  0.28356320465E+03 -0.10756287746E+03  0.12938852366E+04  0.13289532983E+04  0.00000000000E+00 0. -1.
         22    1    1    2    0    0 -0.31885517390E+03  0.12840838757E+03 -0.65501343099E+02  0.34992536614E+03  0.00000000000E+00 0. -1.
<mgrwt>
<rscale>  0 0.12945766E+04</rscale>
<asrwt>0</asrwt>
<pdfrwt beam="1">  1        2 0.28483367E+00 0.12945766E+04</pdfrwt>
<pdfrwt beam="2">  1       -2 0.34815888E-01 0.12945766E+04</pdfrwt>
<totfact> 0.61326458E+01</totfact>
</mgrwt>
</event>
<event>
 6    1  0.1831439E-005  0.1636704E+04  0.7818608E-02  0.8798312E-01
         -2   -1    0    0    0  501 -0.00000000000E+00  0.00000000000E+00  0.38598266974E+03  0.38598266974E+03  0.00000000000E+00 0.  1.
          2   -1    0    0  501    0  0.00000000000E+00 -0.00000000000E+00 -0.17350510832E+04  0.17350510832E+04  0.00000000000E+00 0. -1.
         23    2    1    2    0    0  0.73948712711E+03  0.29919418462E+03 -0.45524151463E+03  0.92299999033E+03  0.91245680675E+02 0.  0.
         13    1    3    3    0    0  0.78043813837E+02  0.61848590963E+01 -0.59991387736E+02  0.98630907746E+02  0.00000000000E+00 0. -1.
        -13    1    3    3    0    0  0.66144331327E+03  0.29300932552E+03 -0.39525012690E+03  0.82436908259E+03  0.00000000000E+00 0.  1.
         22    1    1    2    0    0 -0.73948712711E+03 -0.29919418462E+03 -0.89382689884E+03  0.11980337626E+04  0.00000000000E+00 0. -1.
<mgrwt>
<rscale>  0 0.16367036E+04</rscale>
<asrwt>0</asrwt>
<pdfrwt beam="1">  1        2 0.26693093E+00 0.16367036E+04</pdfrwt>
<pdfrwt beam="2">  1       -2 0.59381950E-01 0.16367036E+04</pdfrwt>
<totfact> 0.23732990E+01</totfact>
</mgrwt>
</event>
<event>
 6    1  0.1831439E-005  0.1787313E+04  0.7818608E-02  0.8713075E-01
          2   -1    0    0  501    0  0.00000000000E+00  0.00000000000E+00  0.66948696277E+03  0.66948696277E+03  0.00000000000E+00 0. -1.
         -2   -1    0    0    0  501 -0.00000000000E+00 -0.00000000000E+00 -0.11928868131E+04  0.11928868131E+04  0.00000000000E+00 0.  1.
         23    2    1    2    0    0  0.29248833894E+03  0.24526627243E+03  0.57683859517E+03  0.69780106033E+03  0.92079216528E+02 0.  0.
         11    1    3    3    0    0  0.13466237585E+03  0.14264655679E+03  0.22302642334E+03  0.29702319967E+03  0.00000000000E+00 0.  1.
        -11    1    3    3    0    0  0.15782596309E+03  0.10261971564E+03  0.35381217183E+03  0.40077786066E+03  0.00000000000E+00 0. -1.
         22    1    1    2    0    0 -0.29248833894E+03 -0.24526627243E+03 -0.11002384455E+04  0.11645727155E+04  0.00000000000E+00 0.  1.
<mgrwt>
<rscale>  0 0.17873133E+04</rscale>
<asrwt>0</asrwt>
<pdfrwt beam="1">  1        2 0.10299800E+00 0.17873133E+04</pdfrwt>
<pdfrwt beam="2">  1       -2 0.18352105E+00 0.17873133E+04</pdfrwt>
<totfact> 0.70182079E+00</totfact>
</mgrwt>
</event>
<event>
 6    1  0.1831439E-005  0.3183357E+04  0.7818608E-02  0.8193227E-01
          2   -1    0    0  501    0  0.00000000000E+00  0.00000000000E+00  0.29992687766E+04  0.29992687766E+04  0.00000000000E+00 0. -1.
         -2   -1    0    0    0  501 -0.00000000000E+00 -0.00000000000E+00 -0.84468584163E+03  0.84468584163E+03  0.00000000000E+00 0.  1.
         23    2    1    2    0    0 -0.60806751377E+03 -0.13305987058E+04  0.18313445796E+04  0.23457149673E+04  0.91196059536E+02 0.  0.
         13    1    3    3    0    0 -0.39196269756E+03 -0.75697019898E+03  0.10389038644E+04  0.13438600663E+04  0.00000000000E+00 0.  1.
        -13    1    3    3    0    0 -0.21610481620E+03 -0.57362850684E+03  0.79244071520E+03  0.10018549009E+04  0.00000000000E+00 0. -1.
         22    1    1    2    0    0  0.60806751377E+03  0.13305987058E+04  0.32323835535E+03  0.14982396509E+04  0.00000000000E+00 0.  1.
<mgrwt>
<rscale>  0 0.31833566E+04</rscale>
<asrwt>0</asrwt>
<pdfrwt beam="1">  1        2 0.46142596E+00 0.31833566E+04</pdfrwt>
<pdfrwt beam="2">  1       -2 0.12995167E+00 0.31833566E+04</pdfrwt>
<totfact> 0.63845112E-01</totfact>
</mgrwt>
</event>
<event>
 6    1  0.1938069E-005  0.2736078E+04  0.7818608E-02  0.8323393E-01
         -1   -1    0    0    0  501 -0.00000000000E+00  0.00000000000E+00  0.10742120096E+04  0.10742120096E+04  0.00000000000E+00 0.  1.
          1   -1    0    0  501    0  0.00000000000E+00 -0.00000000000E+00 -0.17422359936E+04  0.17422359936E+04  0.00000000000E+00 0. -1.
         23    2    1    2    0    0  0.97733757627E+03  0.80764271747E+03  0.19029931796E+03  0.12853717844E+04  0.92148231876E+02 0.  0.
         13    1    3    3    0    0  0.72511056253E+03  0.56179256476E+03  0.16721791946E+03  0.93239371850E+03  0.00000000000E+00 0.  1.
        -13    1    3    3    0    0  0.25222701374E+03  0.24585015271E+03  0.23081398508E+02  0.35297806590E+03  0.00000000000E+00 0. -1.
         22    1    1    2    0    0 -0.97733757627E+03 -0.80764271747E+03 -0.85832330200E+03  0.15310762188E+04  0.00000000000E+00 0. -1.
<mgrwt>
<rscale>  0 0.27360781E+04</rscale>
<asrwt>0</asrwt>
<pdfrwt beam="1">  1        1 0.26803630E+00 0.27360781E+04</pdfrwt>
<pdfrwt beam="2">  1       -1 0.16526339E+00 0.27360781E+04</pdfrwt>
<totfact> 0.10357328E+00</totfact>
</mgrwt>
</event>
<event>
 6    1  0.1831439E-005  0.2078000E+04  0.7818608E-02  0.8570997E-01
         -2   -1    0    0    0  501 -0.00000000000E+00  0.00000000000E+00  0.55257865284E+03  0.55257865284E+03  0.00000000000E+00 0.  1.
          2   -1    0    0  501    0  0.00000000000E+00 -0.00000000000E+00 -0.19536054077E+04  0.19536054077E+04  0.00000000000E+00 0. -1.
         23    2    1    2    0    0 -0.78574989499E+03 -0.64331748008E+03 -0.44850165914E+03  0.11138607017E+04  0.90948594386E+02 0.  0.
         11    1    3    3    0    0 -0.73832398747E+03 -0.59206838039E+03 -0.43945822881E+03  0.10434513944E+04  0.00000000000E+00 0. -1.
        -11    1    3    3    0    0 -0.47425907527E+02 -0.51249099684E+02 -0.90434303234E+01  0.70409307305E+02  0.00000000000E+00 0.  1.
         22    1    1    2    0    0  0.78574989499E+03  0.64331748008E+03 -0.95252509572E+03  0.13923233589E+04  0.00000000000E+00 0. -1.
<mgrwt>
<rscale>  0 0.20779997E+04</rscale>
<asrwt>0</asrwt>
<pdfrwt beam="1">  1        2 0.30055468E+00 0.20779997E+04</pdfrwt>
<pdfrwt beam="2">  1       -2 0.85012100E-01 0.20779997E+04</pdfrwt>
<totfact> 0.78837728E+00</totfact>
</mgrwt>
</event>
<event>
 6    1  0.1831439E-005  0.2033209E+04  0.7818608E-02  0.8591250E-01
         -1   -1    0    0    0  501 -0.00000000000E+00  0.00000000000E+00  0.11340338719E+04  0.11340338719E+04  0.00000000000E+00 0.  1.
          1   -1    0    0  501    0  0.00000000000E+00 -0.00000000000E+00 -0.91133502284E+03  0.91133502284E+03  0.00000000000E+00 0. -1.
         23    2    1    2    0    0 -0.17996789967E+03  0.73507212586E+03  0.79102432979E+03  0.10989475683E+04  0.96160243273E+02 0.  0.
         11    1    3    3    0    0 -0.33981488709E+02  0.30616023911E+03  0.35702254888E+03  0.47154420153E+03  0.00000000000E+00 0.  1.
        -11    1    3    3    0    0 -0.14598641096E+03  0.42891188675E+03  0.43400178090E+03  0.62740336675E+03  0.00000000000E+00 0. -1.
         22    1    1    2    0    0  0.17996789967E+03 -0.73507212586E+03 -0.56832548073E+03  0.94642132646E+03  0.00000000000E+00 0. -1.
<mgrwt>
<rscale>  0 0.20332091E+04</rscale>
<asrwt>0</asrwt>
<pdfrwt beam="1">  1        1 0.14020539E+00 0.20332091E+04</pdfrwt>
<pdfrwt beam="2">  1       -1 0.17446675E+00 0.20332091E+04</pdfrwt>
<totfact> 0.37601237E+00</totfact>
</mgrwt>
</event>
<event>
 6    1  0.1831439E-005  0.2424690E+04  0.7818608E-02  0.8430317E-01
         -1   -1    0    0    0  501 -0.00000000000E+00  0.00000000000E+00  0.24129920928E+04  0.24129920928E+04  0.00000000000E+00 0.  1.
          1   -1    0    0  501    0  0.00000000000E+00 -0.00000000000E+00 -0.60911111262E+03  0.60911111262E+03  0.00000000000E+00 0. -1.
         23    2    1    2    0    0 -0.13917000156E+03  0.72214286159E+03  0.21016586392E+04  0.22286738538E+04  0.95705323877E+02 0.  0.
         11    1    3    3    0    0 -0.10046260002E+02  0.24001135694E+03  0.76707357368E+03  0.80380858806E+03  0.00000000000E+00 0.  1.
        -11    1    3    3    0    0 -0.12912374156E+03  0.48213150466E+03  0.13345850655E+04  0.14248652657E+04  0.00000000000E+00 0. -1.
         22    1    1    2    0    0  0.13917000156E+03 -0.72214286159E+03 -0.29777765897E+03  0.79342935166E+03  0.00000000000E+00 0. -1.
<mgrwt>
<rscale>  0 0.24246899E+04</rscale>
<asrwt>0</asrwt>
<pdfrwt beam="1">  1        1 0.93709403E-01 0.24246899E+04</pdfrwt>
<pdfrwt beam="2">  1       -1 0.37122955E+00 0.24246899E+04</pdfrwt>
<totfact> 0.33604879E-01</totfact>
</mgrwt>
</event>
<event>
 6    1  0.1831439E-005  0.3810593E+03  0.7818608E-02  0.1050543E+00
         -2   -1    0    0    0  501 -0.00000000000E+00  0.00000000000E+00  0.34212242130E+02  0.34212242130E+02  0.00000000000E+00 0.  1.
          2   -1    0    0  501    0  0.00000000000E+00 -0.00000000000E+00 -0.10610687849E+04  0.10610687849E+04  0.00000000000E+00 0. -1.
         23    2    1    2    0    0 -0.14604129218E+03  0.60534179108E+02 -0.78757448423E+03  0.80849129674E+03  0.91608748592E+02 0.  0.
         13    1    3    3    0    0 -0.19253874154E+02 -0.17540985287E+02 -0.53942526549E+02  0.59901535917E+02  0.00000000000E+00 0.  1.
        -13    1    3    3    0    0 -0.12678741802E+03  0.78075164394E+02 -0.73363195769E+03  0.74858976082E+03  0.00000000000E+00 0. -1.
         22    1    1    2    0    0  0.14604129218E+03 -0.60534179108E+02 -0.23928205849E+03  0.28678973025E+03  0.00000000000E+00 0. -1.
<mgrwt>
<rscale>  0 0.38105927E+03</rscale>
<asrwt>0</asrwt>
<pdfrwt beam="1">  1        2 0.16324133E+00 0.38105927E+03</pdfrwt>
<pdfrwt beam="2">  1       -2 0.52634226E-02 0.38105927E+03</pdfrwt>
<totfact> 0.43809648E+03</totfact>
</mgrwt>
</event>
<event>
 6    1  0.1831439E-005  0.1075387E+04  0.7818608E-02  0.9229519E-01
         -2   -1    0    0    0  501 -0.00000000000E+00  0.00000000000E+00  0.32607820190E+03  0.32607820190E+03  0.00000000000E+00 0.  1.
          2   -1    0    0  501    0  0.00000000000E+00 -0.00000000000E+00 -0.88664089255E+03  0.88664089255E+03  0.00000000000E+00 0. -1.
         23    2    1    2    0    0  0.44849963876E+03  0.27953066462E+03 -0.36855615087E+03  0.65044173428E+03  0.89171155204E+02 0.  0.
         11    1    3    3    0    0  0.30282406232E+03  0.13786583294E+03 -0.22621626463E+03  0.40234711257E+03  0.00000000000E+00 0.  1.
        -11    1    3    3    0    0  0.14567557645E+03  0.14166483169E+03 -0.14233988624E+03  0.24809462172E+03  0.00000000000E+00 0. -1.
         22    1    1    2    0    0 -0.44849963876E+03 -0.27953066462E+03 -0.19200653978E+03  0.56227736016E+03  0.00000000000E+00 0. -1.
<mgrwt>
<rscale>  0 0.10753869E+04</rscale>
<asrwt>0</asrwt>
<pdfrwt beam="1">  1        2 0.13640629E+00 0.10753869E+04</pdfrwt>
<pdfrwt beam="2">  1       -2 0.50165877E-01 0.10753869E+04</pdfrwt>
<totfact> 0.11188873E+02</totfact>
</mgrwt>
</event>
<event>
 6    1  0.1831439E-005  0.3093534E+04  0.7818608E-02  0.8217515E-01
         -1   -1    0    0    0  501 -0.00000000000E+00  0.00000000000E+00  0.15606202625E+04  0.15606202625E+04  0.00000000000E+00 0.  1.
          1   -1    0    0  501    0  0.00000000000E+00 -0.00000000000E+00 -0.15330369583E+04  0.15330369583E+04  0.00000000000E+00 0. -1.
         23    2    1    2    0    0  0.10660218381E+04  0.78058167685E+03  0.81542714182E+03  0.15553437852E+04  0.91992136629E+02 0.  0.
         11    1    3    3    0    0  0.44946952432E+03  0.38472372893E+03  0.35387200332E+03  0.68939146762E+03  0.00000000000E+00 0. -1.
        -11    1    3    3    0    0  0.61655231373E+03  0.39585794793E+03  0.46155513851E+03  0.86595231762E+03  0.00000000000E+00 0.  1.
         22    1    1    2    0    0 -0.10660218381E+04 -0.78058167685E+03 -0.78784383763E+03  0.15383134355E+04  0.00000000000E+00 0. -1.
<mgrwt>
<rscale>  0 0.30935343E+04</rscale>
<asrwt>0</asrwt>
<pdfrwt beam="1">  1        1 0.23585184E+00 0.30935343E+04</pdfrwt>
<pdfrwt beam="2">  1       -1 0.24009543E+00 0.30935343E+04</pdfrwt>
<totfact> 0.42418612E-01</totfact>
</mgrwt>
</event>
<event>
 6    1  0.1831439E-005  0.1001247E+04  0.7818608E-02  0.9307178E-01
          2   -1    0    0  501    0  0.00000000000E+00  0.00000000000E+00  0.84350054727E+03  0.84350054727E+03  0.00000000000E+00 0. -1.
         -2   -1    0    0    0  501 -0.00000000000E+00 -0.00000000000E+00 -0.29712351003E+03  0.29712351003E+03  0.00000000000E+00 0.  1.
         23    2    1    2    0    0  0.45834258890E+03 -0.19031854070E+03  0.26798751021E+03  0.57158995947E+03  0.92729177771E+02 0.  0.
         11    1    3    3    0    0  0.10082495614E+03 -0.33045927637E+02  0.17361094658E+02  0.10751331416E+03  0.00000000000E+00 0. -1.
        -11    1    3    3    0    0  0.35751763276E+03 -0.15727261306E+03  0.25062641555E+03  0.46407664531E+03  0.00000000000E+00 0.  1.
         22    1    1    2    0    0 -0.45834258890E+03  0.19031854070E+03  0.27838952702E+03  0.56903409783E+03  0.00000000000E+00 0. -1.
<mgrwt>
<rscale>  0 0.10012469E+04</rscale>
<asrwt>0</asrwt>
<pdfrwt beam="1">  1        2 0.12976931E+00 0.10012469E+04</pdfrwt>
<pdfrwt beam="2">  1       -2 0.45711310E-01 0.10012469E+04</pdfrwt>
<totfact> 0.14526107E+02</totfact>
</mgrwt>
</event>
<event>
 6    1  0.1831439E-005  0.2237929E+04  0.7818608E-02  0.8502805E-01
          2   -1    0    0  501    0  0.00000000000E+00  0.00000000000E+00  0.15846882313E+04  0.15846882313E+04  0.00000000000E+00 0. -1.
         -2   -1    0    0    0  501 -0.00000000000E+00 -0.00000000000E+00 -0.79011234154E+03  0.79011234154E+03  0.00000000000E+00 0.  1.
         23    2    1    2    0    0 -0.22446910288E+03  0.89741401452E+03 -0.26650890871E+03  0.96709348643E+03  0.92219962454E+02 0.  0.
         11    1    3    3    0    0 -0.54424393276E+02  0.36831785371E+03 -0.79384084675E+02  0.38068607651E+03  0.00000000000E+00 0. -1.
        -11    1    3    3    0    0 -0.17004470961E+03  0.52909616081E+03 -0.18712482404E+03  0.58640740993E+03  0.00000000000E+00 0.  1.
         22    1    1    2    0    0  0.22446910288E+03 -0.89741401452E+03  0.10610847985E+04  0.14077070864E+04  0.00000000000E+00 0. -1.
<mgrwt>
<rscale>  0 0.22379292E+04</rscale>
<asrwt>0</asrwt>
<pdfrwt beam="1">  1        2 0.24379819E+00 0.22379292E+04</pdfrwt>
<pdfrwt beam="2">  1       -2 0.12155574E+00 0.22379292E+04</pdfrwt>
<totfact> 0.53305010E+00</totfact>
</mgrwt>
</event>
<event>
 6    1  0.1831439E-005  0.2770486E+04  0.7818608E-02  0.8312490E-01
         -1   -1    0    0    0  501 -0.00000000000E+00  0.00000000000E+00  0.14518726210E+04  0.14518726210E+04  0.00000000000E+00 0.  1.
          1   -1    0    0  501    0  0.00000000000E+00 -0.00000000000E+00 -0.13216715864E+04  0.13216715864E+04  0.00000000000E+00 0. -1.
         23    2    1    2    0    0 -0.37514198654E+03 -0.54821191065E+03 -0.11502306968E+04  0.13310556536E+04  0.86085354198E+02 0.  0.
         13    1    3    3    0    0 -0.19946152273E+03 -0.35596086352E+03 -0.66011362943E+03  0.77604319414E+03  0.00000000000E+00 0. -1.
        -13    1    3    3    0    0 -0.17568046381E+03 -0.19225104713E+03 -0.49011706734E+03  0.55501245949E+03  0.00000000000E+00 0.  1.
         22    1    1    2    0    0  0.37514198654E+03  0.54821191065E+03  0.12804317314E+04  0.14424885538E+04  0.00000000000E+00 0.  1.
<mgrwt>
<rscale>  0 0.27704864E+04</rscale>
<asrwt>0</asrwt>
<pdfrwt beam="1">  1        1 0.20333409E+00 0.27704864E+04</pdfrwt>
<pdfrwt beam="2">  1       -1 0.22336502E+00 0.27704864E+04</pdfrwt>
<totfact> 0.79162713E-01</totfact>
</mgrwt>
</event>
<event>
 6    1  0.1831439E-005  0.6418511E+03  0.7818608E-02  0.9822191E-01
         -1   -1    0    0    0  501 -0.00000000000E+00  0.00000000000E+00  0.89905940811E+02  0.89905940811E+02  0.00000000000E+00 0.  1.
          1   -1    0    0  501    0  0.00000000000E+00 -0.00000000000E+00 -0.11455663628E+04  0.11455663628E+04  0.00000000000E+00 0. -1.
         23    2    1    2    0    0  0.37106084339E+02 -0.21051145997E+02 -0.11382390371E+04  0.11425247921E+04  0.89189589232E+02 0.  0.
         13    1    3    3    0    0 -0.16612938140E+02 -0.31795296897E+02 -0.69303647106E+03  0.69396432246E+03  0.00000000000E+00 0.  1.
        -13    1    3    3    0    0  0.53719022479E+02  0.10744150900E+02 -0.44520256600E+03  0.44856046964E+03  0.00000000000E+00 0. -1.
         22    1    1    2    0    0 -0.37106084339E+02  0.21051145997E+02  0.82578615033E+02  0.92947511551E+02  0.00000000000E+00 0.  1.
<mgrwt>
<rscale>  0 0.64185114E+03</rscale>
<asrwt>0</asrwt>
<pdfrwt beam="1">  1        1 0.17624098E+00 0.64185114E+03</pdfrwt>
<pdfrwt beam="2">  1       -1 0.13831683E-01 0.64185114E+03</pdfrwt>
<totfact> 0.44717360E+02</totfact>
</mgrwt>
</event>
<event>
 6    1  0.1831439E-005  0.2152764E+04  0.7818608E-02  0.8538350E-01
         -1   -1    0    0    0  501 -0.00000000000E+00  0.00000000000E+00  0.48888416273E+03  0.48888416273E+03  0.00000000000E+00 0.  1.
          1   -1    0    0  501    0  0.00000000000E+00 -0.00000000000E+00 -0.23698824450E+04  0.23698824450E+04  0.00000000000E+00 0. -1.
         23    2    1    2    0    0  0.81961704510E+03  0.42015837234E+03 -0.16763284238E+04  0.19152651984E+04  0.99290670085E+02 0.  0.
         13    1    3    3    0    0  0.72497062979E+03  0.36862242397E+03 -0.14065914946E+04  0.16247967683E+04  0.00000000000E+00 0.  1.
        -13    1    3    3    0    0  0.94646415312E+02  0.51535948363E+02 -0.26973692922E+03  0.29046843011E+03  0.00000000000E+00 0. -1.
         22    1    1    2    0    0 -0.81961704510E+03 -0.42015837234E+03 -0.20466985844E+03  0.94350140934E+03  0.00000000000E+00 0.  1.
<mgrwt>
<rscale>  0 0.21527638E+04</rscale>
<asrwt>0</asrwt>
<pdfrwt beam="1">  1        1 0.36459729E+00 0.21527638E+04</pdfrwt>
<pdfrwt beam="2">  1       -1 0.75212949E-01 0.21527638E+04</pdfrwt>
<totfact> 0.27114195E+00</totfact>
</mgrwt>
</event>
<event>
 6    1  0.1831439E-005  0.1772924E+04  0.7818608E-02  0.8720832E-01
         -2   -1    0    0    0  501 -0.00000000000E+00  0.00000000000E+00  0.24688879166E+04  0.24688879166E+04  0.00000000000E+00 0.  1.
          2   -1    0    0  501    0  0.00000000000E+00 -0.00000000000E+00 -0.31828700496E+03  0.31828700496E+03  0.00000000000E+00 0. -1.
         23    2    1    2    0    0 -0.33137071612E+03  0.56129071815E+03  0.13974395055E+03  0.67331600012E+03  0.94721922075E+02 0.  0.
         13    1    3    3    0    0 -0.26227026929E+03  0.47981593807E+03  0.14702058969E+03  0.56623677236E+03  0.00000000000E+00 0.  1.
        -13    1    3    3    0    0 -0.69100446831E+02  0.81474780079E+02 -0.72766391366E+01  0.10707922776E+03  0.00000000000E+00 0. -1.
         22    1    1    2    0    0  0.33137071612E+03 -0.56129071815E+03  0.20108569611E+04  0.21138589215E+04  0.00000000000E+00 0.  1.
<mgrwt>
<rscale>  0 0.17729241E+04</rscale>
<asrwt>0</asrwt>
<pdfrwt beam="1">  1        2 0.48967233E-01 0.17729241E+04</pdfrwt>
<pdfrwt beam="2">  1       -2 0.37982890E+00 0.17729241E+04</pdfrwt>
<totfact> 0.98071196E-01</totfact>
</mgrwt>
</event>
<event>
 6    1  0.1831439E-005  0.1903014E+04  0.7818608E-02  0.8653358E-01
         -2   -1    0    0    0  501 -0.00000000000E+00  0.00000000000E+00  0.98529764216E+03  0.98529764216E+03  0.00000000000E+00 0.  1.
          2   -1    0    0  501    0  0.00000000000E+00 -0.00000000000E+00 -0.91887493957E+03  0.91887493957E+03  0.00000000000E+00 0. -1.
         23    2    1    2    0    0  0.49925380634E+03  0.80324783433E+03  0.11554205762E+03  0.95713818028E+03  0.91115764631E+02 0.  0.
         13    1    3    3    0    0  0.11828736985E+03  0.14249970206E+03  0.48779689274E+02  0.19151377245E+03  0.00000000000E+00 0.  1.
        -13    1    3    3    0    0  0.38096643650E+03  0.66074813227E+03  0.66762368346E+02  0.76562440783E+03  0.00000000000E+00 0. -1.
         22    1    1    2    0    0 -0.49925380634E+03 -0.80324783433E+03 -0.49119355028E+02  0.94703440146E+03  0.00000000000E+00 0. -1.
<mgrwt>
<rscale>  0 0.19030137E+04</rscale>
<asrwt>0</asrwt>
<pdfrwt beam="1">  1        2 0.14136538E+00 0.19030137E+04</pdfrwt>
<pdfrwt beam="2">  1       -2 0.15158425E+00 0.19030137E+04</pdfrwt>
<totfact> 0.77667696E+00</totfact>
</mgrwt>
</event>
<event>
 6    1  0.1831439E-005  0.4576798E+04  0.7818608E-02  0.7897328E-01
          2   -1    0    0  501    0  0.00000000000E+00  0.00000000000E+00  0.25145123788E+04  0.25145123788E+04  0.00000000000E+00 0. -1.
         -2   -1    0    0    0  501 -0.00000000000E+00 -0.00000000000E+00 -0.20826188592E+04  0.20826188592E+04  0.00000000000E+00 0.  1.
         23    2    1    2    0    0  0.97170458448E+03  0.17517953636E+04  0.13253623716E+04  0.24036674509E+04  0.89638179599E+02 0.  0.
         13    1    3    3    0    0  0.47090547714E+03  0.91794403278E+03  0.64647093084E+03  0.12174965627E+04  0.00000000000E+00 0. -1.
        -13    1    3    3    0    0  0.50079910733E+03  0.83385133079E+03  0.67889144080E+03  0.11861708883E+04  0.00000000000E+00 0.  1.
         22    1    1    2    0    0 -0.97170458448E+03 -0.17517953636E+04 -0.89346885212E+03  0.21934637870E+04  0.00000000000E+00 0.  1.
<mgrwt>
<rscale>  0 0.45767984E+04</rscale>
<asrwt>0</asrwt>
<pdfrwt beam="1">  1        2 0.38684806E+00 0.45767984E+04</pdfrwt>
<pdfrwt beam="2">  1       -2 0.32040290E+00 0.45767984E+04</pdfrwt>
<totfact> 0.61208659E-02</totfact>
</mgrwt>
</event>
<event>
 6    1  0.1831439E-005  0.9039035E+03  0.7818608E-02  0.9420715E-01
          2   -1    0    0  501    0  0.00000000000E+00  0.00000000000E+00  0.73144670936E+03  0.73144670936E+03  0.00000000000E+00 0. -1.
         -2   -1    0    0    0  501 -0.00000000000E+00 -0.00000000000E+00 -0.27925532863E+03  0.27925532863E+03  0.00000000000E+00 0.  1.
         23    2    1    2    0    0 -0.24281141369E+03 -0.37525680131E+03  0.20912634932E+03  0.50192344269E+03  0.91751091492E+02 0.  0.
         13    1    3    3    0    0 -0.86776230332E+02 -0.14069188012E+03  0.12705968696E+03  0.20849096703E+03  0.00000000000E+00 0. -1.
        -13    1    3    3    0    0 -0.15603518336E+03 -0.23456492119E+03  0.82066662356E+02  0.29343247566E+03  0.00000000000E+00 0.  1.
         22    1    1    2    0    0  0.24281141369E+03  0.37525680131E+03  0.24306503141E+03  0.50877859531E+03  0.00000000000E+00 0.  1.
<mgrwt>
<rscale>  0 0.90390352E+03</rscale>
<asrwt>0</asrwt>
<pdfrwt beam="1">  1        2 0.11253026E+00 0.90390352E+03</pdfrwt>
<pdfrwt beam="2">  1       -2 0.42962359E-01 0.90390352E+03</pdfrwt>
<totfact> 0.19945642E+02</totfact>
</mgrwt>
</event>
<event>
 6    1  0.1831439E-005  0.2189827E+04  0.7818608E-02  0.8522674E-01
          2   -1    0    0  501    0  0.00000000000E+00  0.00000000000E+00  0.25478844906E+04  0.25478844906E+04  0.00000000000E+00 0. -1.
         -2   -1    0    0    0  501 -0.00000000000E+00 -0.00000000000E+00 -0.47052181149E+03  0.47052181149E+03  0.00000000000E+00 0.  1.
         23    2    1    2    0    0 -0.31404118249E+03  0.83519463231E+03  0.19106421596E+04  0.21106796528E+04  0.90792051610E+02 0.  0.
         13    1    3    3    0    0 -0.21779731856E+02  0.13117368617E+03  0.24068755198E+03  0.27497525405E+03  0.00000000000E+00 0.  1.
        -13    1    3    3    0    0 -0.29226145063E+03  0.70402094614E+03  0.16699546076E+04  0.18357043988E+04  0.00000000000E+00 0. -1.
         22    1    1    2    0    0  0.31404118249E+03 -0.83519463231E+03  0.16672051949E+03  0.90772664925E+03  0.00000000000E+00 0.  1.
<mgrwt>
<rscale>  0 0.21898267E+04</rscale>
<asrwt>0</asrwt>
<pdfrwt beam="1">  1        2 0.39198222E+00 0.21898267E+04</pdfrwt>
<pdfrwt beam="2">  1       -2 0.72387973E-01 0.21898267E+04</pdfrwt>
<totfact> 0.51588842E+00</totfact>
</mgrwt>
</event>
<event>
 6    1  0.1831439E-005  0.1428825E+04  0.7818608E-02  0.8933214E-01
         -3   -1    0    0    0  501 -0.00000000000E+00  0.00000000000E+00  0.19227181274E+03  0.19227181274E+03  0.00000000000E+00 0.  1.
          3   -1    0    0  501    0  0.00000000000E+00 -0.00000000000E+00 -0.26544967503E+04  0.26544967503E+04  0.00000000000E+00 0. -1.
         23    2    1    2    0    0  0.58348943539E+03 -0.35664999669E+03 -0.84470260985E+03  0.10906257380E+04  0.91010218659E+02 0.  0.
         11    1    3    3    0    0  0.23114280359E+03 -0.14941412420E+03 -0.41101264685E+03  0.49465439655E+03  0.00000000000E+00 0. -1.
        -11    1    3    3    0    0  0.35234663180E+03 -0.20723587250E+03 -0.43368996300E+03  0.59597134143E+03  0.00000000000E+00 0.  1.
         22    1    1    2    0    0 -0.58348943539E+03  0.35664999669E+03 -0.16175223277E+04  0.17561428250E+04  0.00000000000E+00 0. -1.
<mgrwt>
<rscale>  0 0.14288246E+04</rscale>
<asrwt>0</asrwt>
<pdfrwt beam="1">  1        3 0.40838411E+00 0.14288246E+04</pdfrwt>
<pdfrwt beam="2">  1       -3 0.29580280E-01 0.14288246E+04</pdfrwt>
<totfact> 0.28839213E-01</totfact>
</mgrwt>
</event>
<event>
 6    1  0.1831439E-005  0.3018288E+04  0.7818608E-02  0.8238528E-01
         -2   -1    0    0    0  501 -0.00000000000E+00  0.00000000000E+00  0.14150848969E+04  0.14150848969E+04  0.00000000000E+00 0. -1.
          2   -1    0    0  501    0  0.00000000000E+00 -0.00000000000E+00 -0.16094554108E+04  0.16094554108E+04  0.00000000000E+00 0.  1.
         23    2    1    2    0    0 -0.85283510613E+03  0.90987268118E+03  0.75192832616E+03  0.14590763161E+04  0.91167287202E+02 0.  0.
         13    1    3    3    0    0 -0.64769060719E+03  0.72113457204E+03  0.62044537724E+03  0.11508651788E+04  0.00000000000E+00 0.  1.
        -13    1    3    3    0    0 -0.20514449893E+03  0.18873810914E+03  0.13148294892E+03  0.30821113728E+03  0.00000000000E+00 0. -1.
         22    1    1    2    0    0  0.85283510613E+03 -0.90987268118E+03 -0.94629884012E+03  0.15654639916E+04  0.00000000000E+00 0.  1.
<mgrwt>
<rscale>  0 0.30182883E+04</rscale>
<asrwt>0</asrwt>
<pdfrwt beam="1">  1        2 0.24760852E+00 0.30182883E+04</pdfrwt>
<pdfrwt beam="2">  1       -2 0.21770537E+00 0.30182883E+04</pdfrwt>
<totfact> 0.96252100E-01</totfact>
</mgrwt>
</event>
<event>
 6    1  0.1831439E-005  0.7191427E+03  0.7818608E-02  0.9685044E-01
          3   -1    0    0  501    0  0.00000000000E+00  0.00000000000E+00  0.71240145047E+03  0.71240145047E+03  0.00000000000E+00 0. -1.
         -3   -1    0    0    0  501 -0.00000000000E+00 -0.00000000000E+00 -0.18148695771E+03  0.18148695771E+03  0.00000000000E+00 0.  1.
         23    2    1    2    0    0  0.25407329800E+03  0.24569807353E+03  0.27395025330E+03  0.45690854085E+03  0.93786402669E+02 0.  0.
         11    1    3    3    0    0  0.25366595927E+03  0.21834827837E+03  0.23358046631E+03  0.40814485639E+03  0.00000000000E+00 0. -1.
        -11    1    3    3    0    0  0.40733872990E+00  0.27349795155E+02  0.40369786987E+02  0.48763684451E+02  0.00000000000E+00 0.  1.
         22    1    1    2    0    0 -0.25407329800E+03 -0.24569807353E+03  0.25696423947E+03  0.43697986734E+03  0.00000000000E+00 0. -1.
<mgrwt>
<rscale>  0 0.71914274E+03</rscale>
<asrwt>0</asrwt>
<pdfrwt beam="1">  1        3 0.10960022E+00 0.71914274E+03</pdfrwt>
<pdfrwt beam="2">  1       -3 0.27921071E-01 0.71914274E+03</pdfrwt>
<totfact> 0.23083185E+01</totfact>
</mgrwt>
</event>
<event>
 6    1  0.1831439E-005  0.3526941E+04  0.7818608E-02  0.8107435E-01
          2   -1    0    0  501    0  0.00000000000E+00  0.00000000000E+00  0.72934531331E+03  0.72934531331E+03  0.00000000000E+00 0. -1.
         -2   -1    0    0    0  501 -0.00000000000E+00 -0.00000000000E+00 -0.42638621218E+04  0.42638621218E+04  0.00000000000E+00 0.  1.
         23    2    1    2    0    0 -0.54710554262E+03  0.99356406809E+03  0.14111106412E+03  0.11465550866E+04  0.90455525575E+02 0.  0.
         11    1    3    3    0    0 -0.35651108390E+03  0.64512922673E+03  0.13504567344E+03  0.74935252455E+03  0.00000000000E+00 0. -1.
        -11    1    3    3    0    0 -0.19059445872E+03  0.34843484135E+03  0.60653906813E+01  0.39720256209E+03  0.00000000000E+00 0.  1.
         22    1    1    2    0    0  0.54710554262E+03 -0.99356406809E+03 -0.36756278726E+04  0.38466523485E+04  0.00000000000E+00 0.  1.
<mgrwt>
<rscale>  0 0.35269408E+04</rscale>
<asrwt>0</asrwt>
<pdfrwt beam="1">  1        2 0.11220697E+00 0.35269408E+04</pdfrwt>
<pdfrwt beam="2">  1       -2 0.65597878E+00 0.35269408E+04</pdfrwt>
<totfact> 0.10163511E-02</totfact>
</mgrwt>
</event>
<event>
 6    1  0.1831439E-005  0.1387210E+04  0.7818608E-02  0.8963129E-01
         -3   -1    0    0    0  501 -0.00000000000E+00  0.00000000000E+00  0.36659849745E+03  0.36659849745E+03  0.00000000000E+00 0.  1.
          3   -1    0    0  501    0  0.00000000000E+00 -0.00000000000E+00 -0.13123021813E+04  0.13123021813E+04  0.00000000000E+00 0. -1.
         23    2    1    2    0    0  0.70456413094E+02 -0.49416521385E+03  0.10292486607E+03  0.51752855905E+03  0.89882793921E+02 0.  0.
         13    1    3    3    0    0 -0.26883490744E+00 -0.78080786640E+02 -0.14564608653E+02  0.79428013570E+02  0.00000000000E+00 0. -1.
        -13    1    3    3    0    0  0.70725248001E+02 -0.41608442721E+03  0.11748947473E+03  0.43810054547E+03  0.00000000000E+00 0.  1.
         22    1    1    2    0    0 -0.70456413094E+02  0.49416521385E+03 -0.10486285499E+04  0.11613721197E+04  0.00000000000E+00 0. -1.
<mgrwt>
<rscale>  0 0.13872102E+04</rscale>
<asrwt>0</asrwt>
<pdfrwt beam="1">  1        3 0.20189264E+00 0.13872102E+04</pdfrwt>
<pdfrwt beam="2">  1       -3 0.56399769E-01 0.13872102E+04</pdfrwt>
<totfact> 0.11321825E+00</totfact>
</mgrwt>
</event>
<event>
 6    1  0.1831439E-005  0.1038020E+04  0.7818608E-02  0.9267800E-01
          2   -1    0    0  501    0  0.00000000000E+00  0.00000000000E+00  0.17513379265E+04  0.17513379265E+04  0.00000000000E+00 0. -1.
         -2   -1    0    0    0  501 -0.00000000000E+00 -0.00000000000E+00 -0.15380905239E+03  0.15380905239E+03  0.00000000000E+00 0.  1.
         23    2    1    2    0    0  0.47411140050E+03  0.51408369878E+02  0.11614650333E+04  0.12589456837E+04  0.92297185683E+02 0.  0.
         11    1    3    3    0    0  0.11146774145E+03  0.40403762208E+02  0.36412342981E+03  0.38294045689E+03  0.00000000000E+00 0. -1.
        -11    1    3    3    0    0  0.36264365905E+03  0.11004607670E+02  0.79734160346E+03  0.87600522683E+03  0.00000000000E+00 0.  1.
         22    1    1    2    0    0 -0.47411140050E+03 -0.51408369878E+02  0.43606384085E+03  0.64620129516E+03  0.00000000000E+00 0.  1.
<mgrwt>
<rscale>  0 0.10380205E+04</rscale>
<asrwt>0</asrwt>
<pdfrwt beam="1">  1        2 0.26943659E+00 0.10380205E+04</pdfrwt>
<pdfrwt beam="2">  1       -2 0.23662932E-01 0.10380205E+04</pdfrwt>
<totfact> 0.14506022E+02</totfact>
</mgrwt>
</event>
<event>
 6    1  0.1831439E-005  0.1865258E+04  0.7818608E-02  0.8672346E-01
         -2   -1    0    0    0  501 -0.00000000000E+00  0.00000000000E+00  0.22513614945E+04  0.22513614945E+04  0.00000000000E+00 0.  1.
          2   -1    0    0  501    0  0.00000000000E+00 -0.00000000000E+00 -0.38634261405E+03  0.38634261405E+03  0.00000000000E+00 0. -1.
         23    2    1    2    0    0 -0.44607196590E+02  0.83176638600E+03  0.34842958390E+03  0.90742429960E+03  0.90501722137E+02 0.  0.
         13    1    3    3    0    0 -0.43884330275E+02  0.38528588086E+03  0.20400440510E+03  0.43816531325E+03  0.00000000000E+00 0.  1.
        -13    1    3    3    0    0 -0.72286631435E+00  0.44648050513E+03  0.14442517880E+03  0.46925898635E+03  0.00000000000E+00 0. -1.
         22    1    1    2    0    0  0.44607196590E+02 -0.83176638600E+03  0.15165892966E+04  0.17302798090E+04  0.00000000000E+00 0.  1.
<mgrwt>
<rscale>  0 0.18652580E+04</rscale>
<asrwt>0</asrwt>
<pdfrwt beam="1">  1        2 0.59437326E-01 0.18652580E+04</pdfrwt>
<pdfrwt beam="2">  1       -2 0.34636330E+00 0.18652580E+04</pdfrwt>
<totfact> 0.12777679E+00</totfact>
</mgrwt>
</event>
<event>
 6    1  0.1831439E-005  0.2036389E+04  0.7818608E-02  0.8589794E-01
          2   -1    0    0  501    0  0.00000000000E+00  0.00000000000E+00  0.11027004549E+04  0.11027004549E+04  0.00000000000E+00 0. -1.
         -2   -1    0    0    0  501 -0.00000000000E+00 -0.00000000000E+00 -0.94016504051E+03  0.94016504051E+03  0.00000000000E+00 0.  1.
         23    2    1    2    0    0 -0.90469231923E+03 -0.23086913456E+03  0.48371189339E+03  0.10554835630E+04  0.91102174682E+02 0.  0.
         13    1    3    3    0    0 -0.63069090339E+03 -0.13904775311E+03  0.29259919258E+03  0.70902720735E+03  0.00000000000E+00 0. -1.
        -13    1    3    3    0    0 -0.27400141584E+03 -0.91821381449E+02  0.19111270081E+03  0.34645635567E+03  0.00000000000E+00 0.  1.
         22    1    1    2    0    0  0.90469231923E+03  0.23086913456E+03 -0.32117647900E+03  0.98738193240E+03  0.00000000000E+00 0.  1.
<mgrwt>
<rscale>  0 0.20363894E+04</rscale>
<asrwt>0</asrwt>
<pdfrwt beam="1">  1        2 0.16964622E+00 0.20363894E+04</pdfrwt>
<pdfrwt beam="2">  1       -2 0.14464078E+00 0.20363894E+04</pdfrwt>
<totfact> 0.66307617E+00</totfact>
</mgrwt>
</event>
<event>
 6    1  0.1831439E-005  0.2258344E+04  0.7818608E-02  0.8494529E-01
         -2   -1    0    0    0  501 -0.00000000000E+00  0.00000000000E+00  0.71464646536E+03  0.71464646536E+03  0.00000000000E+00 0. -1.
          2   -1    0    0  501    0  0.00000000000E+00 -0.00000000000E+00 -0.17841405804E+04  0.17841405804E+04  0.00000000000E+00 0.  1.
         23    2    1    2    0    0 -0.51377163640E+03 -0.46445362850E+03 -0.15194018405E+04  0.16728963576E+04  0.10159627532E+03 0.  0.
         11    1    3    3    0    0 -0.10547556694E+03 -0.46832014877E+02 -0.22695095798E+03  0.25460767892E+03  0.00000000000E+00 0.  1.
        -11    1    3    3    0    0 -0.40829606946E+03 -0.41762161362E+03 -0.12924508825E+04  0.14182886787E+04  0.00000000000E+00 0. -1.
         22    1    1    2    0    0  0.51377163640E+03  0.46445362850E+03  0.44990772541E+03  0.82589068815E+03  0.00000000000E+00 0. -1.
<mgrwt>
<rscale>  0 0.22583443E+04</rscale>
<asrwt>0</asrwt>
<pdfrwt beam="1">  1        2 0.27448316E+00 0.22583443E+04</pdfrwt>
<pdfrwt beam="2">  1       -2 0.10994561E+00 0.22583443E+04</pdfrwt>
<totfact> 0.52695323E+00</totfact>
</mgrwt>
</event>
<event>
 6    1  0.1831439E-005  0.3403783E+04  0.7818608E-02  0.8136978E-01
         -2   -1    0    0    0  501 -0.00000000000E+00  0.00000000000E+00  0.24682802144E+04  0.24682802144E+04  0.00000000000E+00 0.  1.
          2   -1    0    0  501    0  0.00000000000E+00 -0.00000000000E+00 -0.11734626725E+04  0.11734626725E+04  0.00000000000E+00 0. -1.
         23    2    1    2    0    0 -0.14443304709E+04  0.88298292056E+03  0.47367465187E+03  0.17602474729E+04  0.91401000313E+02 0.  0.
         13    1    3    3    0    0 -0.70314207159E+03  0.48276742065E+03  0.23090463136E+03  0.88362328176E+03  0.00000000000E+00 0. -1.
        -13    1    3    3    0    0 -0.74118839926E+03  0.40021549991E+03  0.24277002051E+03  0.87662419110E+03  0.00000000000E+00 0.  1.
         22    1    1    2    0    0  0.14443304709E+04 -0.88298292056E+03  0.82114289001E+03  0.18814954140E+04  0.00000000000E+00 0.  1.
<mgrwt>
<rscale>  0 0.34037830E+04</rscale>
<asrwt>0</asrwt>
<pdfrwt beam="1">  1        2 0.18053272E+00 0.34037830E+04</pdfrwt>
<pdfrwt beam="2">  1       -2 0.37973542E+00 0.34037830E+04</pdfrwt>
<totfact> 0.16345683E-01</totfact>
</mgrwt>
</event>
<event>
 6    1  0.1831439E-005  0.2382647E+04  0.7818608E-02  0.8446029E-01
         -2   -1    0    0    0  501 -0.00000000000E+00  0.00000000000E+00  0.98789843376E+03  0.98789843376E+03  0.00000000000E+00 0.  1.
          2   -1    0    0  501    0  0.00000000000E+00 -0.00000000000E+00 -0.14366377943E+04  0.14366377943E+04  0.00000000000E+00 0. -1.
         23    2    1    2    0    0 -0.46835617979E+03  0.85817713700E+03 -0.91412820755E+03  0.13417563388E+04  0.94096669191E+02 0.  0.
         13    1    3    3    0    0 -0.37168645879E+03  0.63265374687E+03 -0.72949619319E+03  0.10346817303E+04  0.00000000000E+00 0.  1.
        -13    1    3    3    0    0 -0.96669720997E+02  0.22552339012E+03 -0.18463201436E+03  0.30707460848E+03  0.00000000000E+00 0. -1.
         22    1    1    2    0    0  0.46835617979E+03 -0.85817713700E+03  0.46538884705E+03  0.10827798893E+04  0.00000000000E+00 0.  1.
<mgrwt>
<rscale>  0 0.23826475E+04</rscale>
<asrwt>0</asrwt>
<pdfrwt beam="1">  1        2 0.22102120E+00 0.23826475E+04</pdfrwt>
<pdfrwt beam="2">  1       -2 0.15198438E+00 0.23826475E+04</pdfrwt>
<totfact> 0.35933493E+00</totfact>
</mgrwt>
</event>
<event>
 6    1  0.1831439E-005  0.2733627E+04  0.7818608E-02  0.8324176E-01
         -2   -1    0    0    0  501 -0.00000000000E+00  0.00000000000E+00  0.18438874116E+04  0.18438874116E+04  0.00000000000E+00 0. -1.
          2   -1    0    0  501    0  0.00000000000E+00 -0.00000000000E+00 -0.10131743593E+04  0.10131743593E+04  0.00000000000E+00 0.  1.
         23    2    1    2    0    0  0.17968236512E+03 -0.12614552114E+04 -0.96899177921E+02  0.12809845353E+04  0.89313639322E+02 0.  0.
         11    1    3    3    0    0  0.60532576110E+02 -0.43388563060E+03  0.91472179155E+01  0.43818330047E+03  0.00000000000E+00 0.  1.
        -11    1    3    3    0    0  0.11914978901E+03 -0.82756958083E+03 -0.10604639584E+03  0.84280123482E+03  0.00000000000E+00 0. -1.
         22    1    1    2    0    0 -0.17968236512E+03  0.12614552114E+04  0.92761223025E+03  0.15760772356E+04  0.00000000000E+00 0.  1.
<mgrwt>
<rscale>  0 0.27336272E+04</rscale>
<asrwt>0</asrwt>
<pdfrwt beam="1">  1        2 0.15587298E+00 0.27336272E+04</pdfrwt>
<pdfrwt beam="2">  1       -2 0.28367498E+00 0.27336272E+04</pdfrwt>
<totfact> 0.86434354E-01</totfact>
</mgrwt>
</event>
<event>
 6    1  0.1831439E-005  0.1739106E+04  0.7818608E-02  0.8739370E-01
         -1   -1    0    0    0  501 -0.00000000000E+00  0.00000000000E+00  0.90519303086E+03  0.90519303086E+03  0.00000000000E+00 0. -1.
          1   -1    0    0  501    0  0.00000000000E+00 -0.00000000000E+00 -0.83531661648E+03  0.83531661648E+03  0.00000000000E+00 0.  1.
         23    2    1    2    0    0 -0.79643228547E+02 -0.72560871425E+03 -0.43339350231E+03  0.85386898784E+03  0.91712979014E+02 0.  0.
         11    1    3    3    0    0 -0.57427749101E+01 -0.41962933924E+03 -0.27225524983E+03  0.50024462303E+03  0.00000000000E+00 0.  1.
        -11    1    3    3    0    0 -0.73900453637E+02 -0.30597937501E+03 -0.16113825247E+03  0.35362436481E+03  0.00000000000E+00 0. -1.
         22    1    1    2    0    0  0.79643228547E+02  0.72560871425E+03  0.50326991668E+03  0.88664065950E+03  0.00000000000E+00 0. -1.
<mgrwt>
<rscale>  0 0.17391064E+04</rscale>
<asrwt>0</asrwt>
<pdfrwt beam="1">  1        1 0.12851025E+00 0.17391064E+04</pdfrwt>
<pdfrwt beam="2">  1       -1 0.13926047E+00 0.17391064E+04</pdfrwt>
<totfact> 0.83098156E+00</totfact>
</mgrwt>
</event>
<event>
 6    1  0.1831439E-005  0.1569810E+04  0.7818608E-02  0.8839313E-01
          1   -1    0    0  501    0  0.00000000000E+00  0.00000000000E+00  0.13454585035E+04  0.13454585035E+04  0.00000000000E+00 0. -1.
         -1   -1    0    0    0  501 -0.00000000000E+00 -0.00000000000E+00 -0.45789270581E+03  0.45789270581E+03  0.00000000000E+00 0.  1.
         23    2    1    2    0    0 -0.19321426363E+03 -0.74991242135E+03  0.32080625226E+03  0.84370712233E+03  0.96045121772E+02 0.  0.
         13    1    3    3    0    0 -0.12253126973E+03 -0.33716395401E+03  0.18396817750E+03  0.40315968831E+03  0.00000000000E+00 0. -1.
        -13    1    3    3    0    0 -0.70682993908E+02 -0.41274846734E+03  0.13683807476E+03  0.44054743402E+03  0.00000000000E+00 0.  1.
         22    1    1    2    0    0  0.19321426363E+03  0.74991242135E+03  0.56675954545E+03  0.95964408701E+03  0.00000000000E+00 0. -1.
<mgrwt>
<rscale>  0 0.15698097E+04</rscale>
<asrwt>0</asrwt>
<pdfrwt beam="1">  1        1 0.20699361E+00 0.15698097E+04</pdfrwt>
<pdfrwt beam="2">  1       -1 0.70445032E-01 0.15698097E+04</pdfrwt>
<totfact> 0.16445707E+01</totfact>
</mgrwt>
</event>
<event>
 6    1  0.1831439E-005  0.3722023E+04  0.7818608E-02  0.8063099E-01
          2   -1    0    0  501    0  0.00000000000E+00  0.00000000000E+00  0.29642279296E+04  0.29642279296E+04  0.00000000000E+00 0. -1.
         -2   -1    0    0    0  501 -0.00000000000E+00 -0.00000000000E+00 -0.11683865108E+04  0.11683865108E+04  0.00000000000E+00 0.  1.
         23    2    1    2    0    0 -0.10031904113E+04  0.65272178274E+03  0.24791667634E+04  0.27544380171E+04  0.90687498860E+02 0.  0.
         13    1    3    3    0    0 -0.78782602078E+03  0.54329821752E+03  0.19183792597E+04  0.21438334301E+04  0.00000000000E+00 0.  1.
        -13    1    3    3    0    0 -0.21536439053E+03  0.10942356523E+03  0.56078750374E+03  0.61060458702E+03  0.00000000000E+00 0. -1.
         22    1    1    2    0    0  0.10031904113E+04 -0.65272178274E+03 -0.68332534465E+03  0.13781764233E+04  0.00000000000E+00 0.  1.
<mgrwt>
<rscale>  0 0.37220231E+04</rscale>
<asrwt>0</asrwt>
<pdfrwt beam="1">  1        2 0.45603506E+00 0.37220231E+04</pdfrwt>
<pdfrwt beam="2">  1       -2 0.17975177E+00 0.37220231E+04</pdfrwt>
<totfact> 0.26913198E-01</totfact>
</mgrwt>
</event>
<event>
 6    1  0.1831439E-005  0.2408665E+04  0.7818608E-02  0.8436266E-01
          1   -1    0    0  501    0  0.00000000000E+00  0.00000000000E+00  0.35651875900E+04  0.35651875900E+04  0.00000000000E+00 0. -1.
         -1   -1    0    0    0  501 -0.00000000000E+00 -0.00000000000E+00 -0.40682777268E+03  0.40682777268E+03  0.00000000000E+00 0.  1.
         23    2    1    2    0    0  0.14924572619E+03  0.68322913391E+03  0.31948512870E+04  0.32717240207E+04  0.89593446278E+02 0.  0.
         13    1    3    3    0    0  0.11428413420E+03  0.48807670830E+03  0.24630308105E+04  0.25135235248E+04  0.00000000000E+00 0.  1.
        -13    1    3    3    0    0  0.34961591989E+02  0.19515242561E+03  0.73182047653E+03  0.75820049592E+03  0.00000000000E+00 0. -1.
         22    1    1    2    0    0 -0.14924572619E+03 -0.68322913391E+03 -0.36491469692E+02  0.70029134192E+03  0.00000000000E+00 0.  1.
<mgrwt>
<rscale>  0 0.24086655E+04</rscale>
<asrwt>0</asrwt>
<pdfrwt beam="1">  1        1 0.54849038E+00 0.24086655E+04</pdfrwt>
<pdfrwt beam="2">  1       -1 0.62588890E-01 0.24086655E+04</pdfrwt>
<totfact> 0.51513522E-01</totfact>
</mgrwt>
</event>
<event>
 6    1  0.1831439E-005  0.1801093E+04  0.7818608E-02  0.8705718E-01
          1   -1    0    0  501    0  0.00000000000E+00  0.00000000000E+00  0.15225512169E+04  0.15225512169E+04  0.00000000000E+00 0. -1.
         -1   -1    0    0    0  501 -0.00000000000E+00 -0.00000000000E+00 -0.53264826041E+03  0.53264826041E+03  0.00000000000E+00 0.  1.
         23    2    1    2    0    0  0.88845500868E+03  0.71387560721E+02  0.62372471890E+03  0.10915942739E+04  0.89983596428E+02 0.  0.
         11    1    3    3    0    0  0.23151552714E+03  0.13584574396E+02  0.11597231908E+03  0.25929434772E+03  0.00000000000E+00 0.  1.
        -11    1    3    3    0    0  0.65693948154E+03  0.57802986325E+02  0.50775239982E+03  0.83229992620E+03  0.00000000000E+00 0. -1.
         22    1    1    2    0    0 -0.88845500868E+03 -0.71387560721E+02  0.36617823757E+03  0.96360520336E+03  0.00000000000E+00 0.  1.
<mgrwt>
<rscale>  0 0.18010933E+04</rscale>
<asrwt>0</asrwt>
<pdfrwt beam="1">  1        1 0.23423865E+00 0.18010933E+04</pdfrwt>
<pdfrwt beam="2">  1       -1 0.81945887E-01 0.18010933E+04</pdfrwt>
<totfact> 0.88215200E+00</totfact>
</mgrwt>
</event>
<event>
 6    1  0.1831439E-005  0.1891418E+04  0.7818608E-02  0.8659140E-01
         -2   -1    0    0    0  501 -0.00000000000E+00  0.00000000000E+00  0.74418663456E+03  0.74418663456E+03  0.00000000000E+00 0.  1.
          2   -1    0    0  501    0  0.00000000000E+00 -0.00000000000E+00 -0.12018023410E+04  0.12018023410E+04  0.00000000000E+00 0. -1.
         23    2    1    2    0    0  0.76145167671E+03 -0.55476429849E+03 -0.28170620949E+03  0.98759644955E+03  0.91740262927E+02 0.  0.
         11    1    3    3    0    0  0.18430583826E+03 -0.16880861426E+03 -0.44305890053E+02  0.25382671680E+03  0.00000000000E+00 0. -1.
        -11    1    3    3    0    0  0.57714583845E+03 -0.38595568423E+03 -0.23740031944E+03  0.73376973275E+03  0.00000000000E+00 0.  1.
         22    1    1    2    0    0 -0.76145167671E+03  0.55476429849E+03 -0.17590949697E+03  0.95839252604E+03  0.00000000000E+00 0.  1.
<mgrwt>
<rscale>  0 0.18914177E+04</rscale>
<asrwt>0</asrwt>
<pdfrwt beam="1">  1        2 0.18489266E+00 0.18914177E+04</pdfrwt>
<pdfrwt beam="2">  1       -2 0.11449025E+00 0.18914177E+04</pdfrwt>
<totfact> 0.10556904E+01</totfact>
</mgrwt>
</event>
<event>
 6    1  0.1831439E-005  0.1805057E+04  0.7818608E-02  0.8703615E-01
         -2   -1    0    0    0  501 -0.00000000000E+00  0.00000000000E+00  0.11598293624E+04  0.11598293624E+04  0.00000000000E+00 0.  1.
          2   -1    0    0  501    0  0.00000000000E+00 -0.00000000000E+00 -0.70230847131E+03  0.70230847131E+03  0.00000000000E+00 0. -1.
         23    2    1    2    0    0 -0.41029653791E+03  0.66739421575E+03 -0.22816146747E+03  0.82102372609E+03  0.90906629714E+02 0.  0.
         13    1    3    3    0    0 -0.15605337737E+03  0.33564662281E+03 -0.12270325083E+03  0.38995820258E+03  0.00000000000E+00 0. -1.
        -13    1    3    3    0    0 -0.25424316055E+03  0.33174759293E+03 -0.10545821663E+03  0.43106552351E+03  0.00000000000E+00 0.  1.
         22    1    1    2    0    0  0.41029653791E+03 -0.66739421575E+03  0.68568235856E+03  0.10411141076E+04  0.00000000000E+00 0.  1.
<mgrwt>
<rscale>  0 0.18050573E+04</rscale>
<asrwt>0</asrwt>
<pdfrwt beam="1">  1        2 0.10804746E+00 0.18050573E+04</pdfrwt>
<pdfrwt beam="2">  1       -2 0.17843529E+00 0.18050573E+04</pdfrwt>
<totfact> 0.71534189E+00</totfact>
</mgrwt>
</event>
<event>
 6    1  0.1831439E-005  0.2684141E+04  0.7818608E-02  0.8340169E-01
          1   -1    0    0  501    0  0.00000000000E+00  0.00000000000E+00  0.16227356836E+04  0.16227356836E+04  0.00000000000E+00 0. -1.
         -1   -1    0    0    0  501 -0.00000000000E+00 -0.00000000000E+00 -0.11099485441E+04  0.11099485441E+04  0.00000000000E+00 0.  1.
         23    2    1    2    0    0  0.88954772723E+03  0.59656177399E+03  0.10774068605E+04  0.15219090469E+04  0.90666943930E+02 0.  0.
         13    1    3    3    0    0  0.73904704988E+03  0.46805802648E+03  0.91506150269E+03  0.12659409196E+04  0.00000000000E+00 0.  1.
        -13    1    3    3    0    0  0.15050067735E+03  0.12850374751E+03  0.16234535782E+03  0.25596812734E+03  0.00000000000E+00 0. -1.
         22    1    1    2    0    0 -0.88954772723E+03 -0.59656177399E+03 -0.56461972104E+03  0.12107751809E+04  0.00000000000E+00 0.  1.
<mgrwt>
<rscale>  0 0.26841409E+04</rscale>
<asrwt>0</asrwt>
<pdfrwt beam="1">  1        1 0.24965165E+00 0.26841409E+04</pdfrwt>
<pdfrwt beam="2">  1       -1 0.17076131E+00 0.26841409E+04</pdfrwt>
<totfact> 0.11433469E+00</totfact>
</mgrwt>
</event>
<event>
 6    1  0.1831439E-005  0.2092835E+04  0.7818608E-02  0.8564406E-01
          1   -1    0    0  501    0  0.00000000000E+00  0.00000000000E+00  0.15719339767E+04  0.15719339767E+04  0.00000000000E+00 0. -1.
         -1   -1    0    0    0  501 -0.00000000000E+00 -0.00000000000E+00 -0.69658777416E+03  0.69658777416E+03  0.00000000000E+00 0.  1.
         23    2    1    2    0    0 -0.57152510952E+03 -0.57405934979E+03 -0.27624306512E+03  0.86056474538E+03  0.89868582204E+02 0.  0.
         11    1    3    3    0    0 -0.44851581816E+03 -0.49780579353E+03 -0.21917488185E+03  0.70499267801E+03  0.00000000000E+00 0. -1.
        -11    1    3    3    0    0 -0.12300929137E+03 -0.76253556254E+02 -0.57068183269E+02  0.15557206737E+03  0.00000000000E+00 0.  1.
         22    1    1    2    0    0  0.57152510952E+03  0.57405934979E+03  0.11515892676E+04  0.14079570055E+04  0.00000000000E+00 0. -1.
<mgrwt>
<rscale>  0 0.20928354E+04</rscale>
<asrwt>0</asrwt>
<pdfrwt beam="1">  1        1 0.24183600E+00 0.20928354E+04</pdfrwt>
<pdfrwt beam="2">  1       -1 0.10716735E+00 0.20928354E+04</pdfrwt>
<totfact> 0.43569626E+00</totfact>
</mgrwt>
</event>
<event>
 6    1  0.1831439E-005  0.2087727E+04  0.7818608E-02  0.8566669E-01
          1   -1    0    0  501    0  0.00000000000E+00  0.00000000000E+00  0.17530025689E+04  0.17530025689E+04  0.00000000000E+00 0. -1.
         -1   -1    0    0    0  501 -0.00000000000E+00 -0.00000000000E+00 -0.62159115737E+03  0.62159115737E+03  0.00000000000E+00 0.  1.
         23    2    1    2    0    0 -0.57034969713E+03  0.65198855109E+03 -0.89437809938E+02  0.87764326973E+03  0.10895292231E+03 0.  0.
         11    1    3    3    0    0 -0.94148519918E+02  0.82104098404E+02  0.21473760435E+02  0.12675231424E+03  0.00000000000E+00 0.  1.
        -11    1    3    3    0    0 -0.47620117722E+03  0.56988445269E+03 -0.11091157037E+03  0.75089095549E+03  0.00000000000E+00 0. -1.
         22    1    1    2    0    0  0.57034969713E+03 -0.65198855109E+03  0.12208492214E+04  0.14969504565E+04  0.00000000000E+00 0. -1.
<mgrwt>
<rscale>  0 0.20877269E+04</rscale>
<asrwt>0</asrwt>
<pdfrwt beam="1">  1        1 0.26969270E+00 0.20877269E+04</pdfrwt>
<pdfrwt beam="2">  1       -1 0.95629410E-01 0.20877269E+04</pdfrwt>
<totfact> 0.42588342E+00</totfact>
</mgrwt>
</event>
<event>
 6    1  0.1831439E-005  0.3048710E+04  0.7818608E-02  0.8229957E-01
         -2   -1    0    0    0  501 -0.00000000000E+00  0.00000000000E+00  0.51070327055E+03  0.51070327055E+03  0.00000000000E+00 0.  1.
          2   -1    0    0  501    0  0.00000000000E+00 -0.00000000000E+00 -0.45499175379E+04  0.45499175379E+04  0.00000000000E+00 0. -1.
         23    2    1    2    0    0 -0.13691948015E+04 -0.26422623161E+03 -0.10048906024E+04  0.17212151713E+04  0.90921048812E+02 0.  0.
         11    1    3    3    0    0 -0.84624117768E+03 -0.11818537007E+03 -0.61343196109E+03  0.10518510747E+04  0.00000000000E+00 0. -1.
        -11    1    3    3    0    0 -0.52295362382E+03 -0.14604086154E+03 -0.39145864132E+03  0.66936409657E+03  0.00000000000E+00 0.  1.
         22    1    1    2    0    0  0.13691948015E+04  0.26422623161E+03 -0.30343236650E+04  0.33394056372E+04  0.00000000000E+00 0. -1.
<mgrwt>
<rscale>  0 0.30487097E+04</rscale>
<asrwt>0</asrwt>
<pdfrwt beam="1">  1        2 0.69998733E+00 0.30487097E+04</pdfrwt>
<pdfrwt beam="2">  1       -2 0.78569732E-01 0.30487097E+04</pdfrwt>
<totfact> 0.13462186E-01</totfact>
</mgrwt>
</event>
<event>
 6    1  0.1831439E-005  0.6265423E+04  0.7818608E-02  0.7658336E-01
         -1   -1    0    0    0  501 -0.00000000000E+00  0.00000000000E+00  0.23891365849E+04  0.23891365849E+04  0.00000000000E+00 0.  1.
          1   -1    0    0  501    0  0.00000000000E+00 -0.00000000000E+00 -0.41077106450E+04  0.41077106450E+04  0.00000000000E+00 0. -1.
         23    2    1    2    0    0  0.78540783140E+03  0.50927904871E+03 -0.39586528283E+04  0.40690532726E+04  0.10015842188E+03 0.  0.
         11    1    3    3    0    0  0.67278857114E+03  0.41949218961E+03 -0.31924705507E+04  0.32894507711E+04  0.00000000000E+00 0. -1.
        -11    1    3    3    0    0  0.11261926026E+03  0.89786859099E+02 -0.76618227759E+03  0.77960250150E+03  0.00000000000E+00 0.  1.
         22    1    1    2    0    0 -0.78540783140E+03 -0.50927904871E+03  0.22400787682E+04  0.24277939572E+04  0.00000000000E+00 0.  1.
<mgrwt>
<rscale>  0 0.62654231E+04</rscale>
<asrwt>0</asrwt>
<pdfrwt beam="1">  1        1 0.63195548E+00 0.62654231E+04</pdfrwt>
<pdfrwt beam="2">  1       -1 0.36755948E+00 0.62654231E+04</pdfrwt>
<totfact> 0.59461926E-04</totfact>
</mgrwt>
</event>
<event>
 6    1  0.1831439E-005  0.1634994E+04  0.7818608E-02  0.8799334E-01
         -1   -1    0    0    0  501 -0.00000000000E+00  0.00000000000E+00  0.43117890167E+03  0.43117890167E+03  0.00000000000E+00 0.  1.
          1   -1    0    0  501    0  0.00000000000E+00 -0.00000000000E+00 -0.15499391845E+04  0.15499391845E+04  0.00000000000E+00 0. -1.
         23    2    1    2    0    0  0.13652704473E+03 -0.60476344822E+03  0.79346870690E+02  0.63210392257E+03  0.94238955798E+02 0.  0.
         13    1    3    3    0    0  0.89875143137E+01 -0.24888638734E+03  0.33626942070E+02  0.25130853637E+03  0.00000000000E+00 0. -1.
        -13    1    3    3    0    0  0.12753953042E+03 -0.35587706088E+03  0.45719928621E+02  0.38079538621E+03  0.00000000000E+00 0.  1.
         22    1    1    2    0    0 -0.13652704473E+03  0.60476344822E+03 -0.11981071535E+04  0.13490141636E+04  0.00000000000E+00 0. -1.
<mgrwt>
<rscale>  0 0.16349937E+04</rscale>
<asrwt>0</asrwt>
<pdfrwt beam="1">  1        1 0.23845218E+00 0.16349937E+04</pdfrwt>
<pdfrwt beam="2">  1       -1 0.66335215E-01 0.16349937E+04</pdfrwt>
<totfact> 0.13310279E+01</totfact>
</mgrwt>
</event>
<event>
 6    1  0.1831439E-005  0.3750910E+04  0.7818608E-02  0.8056772E-01
         -1   -1    0    0    0  501 -0.00000000000E+00  0.00000000000E+00  0.12164114195E+04  0.12164114195E+04  0.00000000000E+00 0.  1.
          1   -1    0    0  501    0  0.00000000000E+00 -0.00000000000E+00 -0.28915639490E+04  0.28915639490E+04  0.00000000000E+00 0. -1.
         23    2    1    2    0    0 -0.85710059452E+03  0.44483965961E+03  0.92123857378E+03  0.13378218506E+04  0.92644708972E+02 0.  0.
         13    1    3    3    0    0 -0.47060343255E+03  0.24638117322E+03  0.44282777824E+03  0.69156902362E+03  0.00000000000E+00 0.  1.
        -13    1    3    3    0    0 -0.38649716198E+03  0.19845848639E+03  0.47841079554E+03  0.64625282694E+03  0.00000000000E+00 0. -1.
         22    1    1    2    0    0  0.85710059452E+03 -0.44483965961E+03 -0.25963911033E+04  0.27701535180E+04  0.00000000000E+00 0. -1.
<mgrwt>
<rscale>  0 0.37509100E+04</rscale>
<asrwt>0</asrwt>
<pdfrwt beam="1">  1        1 0.44485599E+00 0.37509100E+04</pdfrwt>
<pdfrwt beam="2">  1       -1 0.18714022E+00 0.37509100E+04</pdfrwt>
<totfact> 0.10589506E-01</totfact>
</mgrwt>
</event>
<event>
 6    1  0.1831439E-005  0.1187120E+04  0.7818608E-02  0.9124205E-01
         -2   -1    0    0    0  501 -0.00000000000E+00  0.00000000000E+00  0.94161489639E+02  0.94161489639E+02  0.00000000000E+00 0.  1.
          2   -1    0    0  501    0  0.00000000000E+00 -0.00000000000E+00 -0.37415897895E+04  0.37415897895E+04  0.00000000000E+00 0. -1.
         23    2    1    2    0    0  0.57371115906E+03 -0.50936715642E+02 -0.14264947352E+04  0.15413483194E+04  0.95542499108E+02 0.  0.
         13    1    3    3    0    0  0.17282676033E+03  0.27020394022E+02 -0.39852595172E+03  0.43522652146E+03  0.00000000000E+00 0.  1.
        -13    1    3    3    0    0  0.40088439872E+03 -0.77957109663E+02 -0.10279687835E+04  0.11061217979E+04  0.00000000000E+00 0. -1.
         22    1    1    2    0    0 -0.57371115906E+03  0.50936715642E+02 -0.22209335647E+04  0.22944029598E+04  0.00000000000E+00 0. -1.
<mgrwt>
<rscale>  0 0.11871203E+04</rscale>
<asrwt>0</asrwt>
<pdfrwt beam="1">  1        2 0.57562917E+00 0.11871203E+04</pdfrwt>
<pdfrwt beam="2">  1       -2 0.14486384E-01 0.11871203E+04</pdfrwt>
<totfact> 0.20668320E+01</totfact>
</mgrwt>
</event>
<event>
 6    1  0.1831439E-005  0.1543050E+04  0.7818608E-02  0.8856319E-01
         -2   -1    0    0    0  501 -0.00000000000E+00  0.00000000000E+00  0.29101458762E+03  0.29101458762E+03  0.00000000000E+00 0.  1.
          2   -1    0    0  501    0  0.00000000000E+00 -0.00000000000E+00 -0.20454328113E+04  0.20454328113E+04  0.00000000000E+00 0. -1.
         23    2    1    2    0    0 -0.36463521369E+03  0.20250301250E+03  0.97665117474E+02  0.43797985595E+03  0.91222639265E+02 0.  0.
         11    1    3    3    0    0 -0.91674273681E+02  0.13765407279E+02  0.24559481026E+01  0.92734516625E+02  0.00000000000E+00 0. -1.
        -11    1    3    3    0    0 -0.27296094000E+03  0.18873760522E+03  0.95209169372E+02  0.34524533932E+03  0.00000000000E+00 0.  1.
         22    1    1    2    0    0  0.36463521369E+03 -0.20250301250E+03 -0.18520833411E+04  0.18984675430E+04  0.00000000000E+00 0. -1.
<mgrwt>
<rscale>  0 0.15430499E+04</rscale>
<asrwt>0</asrwt>
<pdfrwt beam="1">  1        2 0.31468197E+00 0.15430499E+04</pdfrwt>
<pdfrwt beam="2">  1       -2 0.44771475E-01 0.15430499E+04</pdfrwt>
<totfact> 0.28731205E+01</totfact>
</mgrwt>
</event>
<event>
 6    1  0.1831439E-005  0.2430234E+04  0.7818608E-02  0.8428271E-01
          2   -1    0    0  501    0  0.00000000000E+00  0.00000000000E+00  0.46405692197E+04  0.46405692197E+04  0.00000000000E+00 0. -1.
         -2   -1    0    0    0  501 -0.00000000000E+00 -0.00000000000E+00 -0.31817408420E+03  0.31817408420E+03  0.00000000000E+00 0.  1.
         23    2    1    2    0    0  0.28249339453E+03 -0.10452160178E+04  0.10461034915E+04  0.15081830627E+04  0.89468395342E+02 0.  0.
         11    1    3    3    0    0  0.16653084373E+03 -0.46026299160E+03  0.44651429061E+03  0.66253268226E+03  0.00000000000E+00 0. -1.
        -11    1    3    3    0    0  0.11596255080E+03 -0.58495302621E+03  0.59958920092E+03  0.84565038043E+03  0.00000000000E+00 0.  1.
         22    1    1    2    0    0 -0.28249339453E+03  0.10452160178E+04  0.32762916440E+04  0.34505602412E+04  0.00000000000E+00 0.  1.
<mgrwt>
<rscale>  0 0.24302336E+04</rscale>
<asrwt>0</asrwt>
<pdfrwt beam="1">  1        2 0.71393368E+00 0.24302336E+04</pdfrwt>
<pdfrwt beam="2">  1       -2 0.48949863E-01 0.24302336E+04</pdfrwt>
<totfact> 0.31706201E-01</totfact>
</mgrwt>
</event>
<event>
 6    1  0.1831439E-005  0.1565950E+04  0.7818608E-02  0.8841744E-01
         -2   -1    0    0    0  501 -0.00000000000E+00  0.00000000000E+00  0.44168897806E+03  0.44168897806E+03  0.00000000000E+00 0.  1.
          2   -1    0    0  501    0  0.00000000000E+00 -0.00000000000E+00 -0.13879670837E+04  0.13879670837E+04  0.00000000000E+00 0. -1.
         23    2    1    2    0    0  0.65324925092E+03  0.41957661258E+03 -0.38392693257E+03  0.87100181779E+03  0.92006300767E+02 0.  0.
         13    1    3    3    0    0  0.34514971462E+03  0.18511939143E+03 -0.23116328979E+03  0.45479004071E+03  0.00000000000E+00 0. -1.
        -13    1    3    3    0    0  0.30809953631E+03  0.23445722115E+03 -0.15276364278E+03  0.41621177708E+03  0.00000000000E+00 0.  1.
         22    1    1    2    0    0 -0.65324925092E+03 -0.41957661258E+03 -0.56235117310E+03  0.95865424400E+03  0.00000000000E+00 0.  1.
<mgrwt>
<rscale>  0 0.15659499E+04</rscale>
<asrwt>0</asrwt>
<pdfrwt beam="1">  1        2 0.21353340E+00 0.15659499E+04</pdfrwt>
<pdfrwt beam="2">  1       -2 0.67952151E-01 0.15659499E+04</pdfrwt>
<totfact> 0.28031908E+01</totfact>
</mgrwt>
</event>
<event>
 6    1  0.1831439E-005  0.1747815E+04  0.7818608E-02  0.8734554E-01
         -1   -1    0    0    0  501 -0.00000000000E+00  0.00000000000E+00  0.16731843692E+04  0.16731843692E+04  0.00000000000E+00 0.  1.
          1   -1    0    0  501    0  0.00000000000E+00 -0.00000000000E+00 -0.45644347403E+03  0.45644347403E+03  0.00000000000E+00 0. -1.
         23    2    1    2    0    0 -0.59854747483E+03 -0.16668812194E+03 -0.13468253113E+03  0.64221758147E+03  0.90884696967E+02 0.  0.
         13    1    3    3    0    0 -0.30967746885E+03 -0.12322727979E+03 -0.43056416699E+02  0.33606391091E+03  0.00000000000E+00 0. -1.
        -13    1    3    3    0    0 -0.28887000598E+03 -0.43460842159E+02 -0.91626114427E+02  0.30615367057E+03  0.00000000000E+00 0.  1.
         22    1    1    2    0    0  0.59854747483E+03  0.16668812194E+03  0.13514234263E+04  0.14874102618E+04  0.00000000000E+00 0.  1.
<mgrwt>
<rscale>  0 0.17478147E+04</rscale>
<asrwt>0</asrwt>
<pdfrwt beam="1">  1        1 0.70222074E-01 0.17478147E+04</pdfrwt>
<pdfrwt beam="2">  1       -1 0.25741298E+00 0.17478147E+04</pdfrwt>
<totfact> 0.29699617E+00</totfact>
</mgrwt>
</event>
<event>
 6    1  0.1831439E-005  0.1829873E+04  0.7818608E-02  0.8690573E-01
         -2   -1    0    0    0  501 -0.00000000000E+00  0.00000000000E+00  0.77691566378E+03  0.77691566378E+03  0.00000000000E+00 0. -1.
          2   -1    0    0  501    0  0.00000000000E+00 -0.00000000000E+00 -0.10774773064E+04  0.10774773064E+04  0.00000000000E+00 0.  1.
         23    2    1    2    0    0  0.30130140293E+03 -0.65279229425E+03  0.41731731355E+03  0.83838582916E+03  0.10870484582E+03 0.  0.
         11    1    3    3    0    0  0.24843702051E+03 -0.52491616655E+03  0.38350813580E+03  0.69594283192E+03  0.00000000000E+00 0. -1.
        -11    1    3    3    0    0  0.52864382422E+02 -0.12787612770E+03  0.33809177748E+02  0.14244299725E+03  0.00000000000E+00 0.  1.
         22    1    1    2    0    0 -0.30130140293E+03  0.65279229425E+03 -0.71787895613E+03  0.10160071410E+04  0.00000000000E+00 0.  1.
<mgrwt>
<rscale>  0 0.18298732E+04</rscale>
<asrwt>0</asrwt>
<pdfrwt beam="1">  1        2 0.16576574E+00 0.18298732E+04</pdfrwt>
<pdfrwt beam="2">  1       -2 0.11952549E+00 0.18298732E+04</pdfrwt>
<totfact> 0.11364457E+01</totfact>
</mgrwt>
</event>
<event>
 6    1  0.1831439E-005  0.1267195E+04  0.7818608E-02  0.9055992E-01
         -2   -1    0    0    0  501 -0.00000000000E+00  0.00000000000E+00  0.16049370855E+03  0.16049370855E+03  0.00000000000E+00 0.  1.
          2   -1    0    0  501    0  0.00000000000E+00 -0.00000000000E+00 -0.25013175830E+04  0.25013175830E+04  0.00000000000E+00 0. -1.
         23    2    1    2    0    0  0.62759307572E+03 -0.18962415799E+02 -0.12873547777E+04  0.14354223730E+04  0.94458578821E+02 0.  0.
         11    1    3    3    0    0  0.14731680420E+03  0.13321066209E+02 -0.22724530367E+03  0.27114593791E+03  0.00000000000E+00 0.  1.
        -11    1    3    3    0    0  0.48027627152E+03 -0.32283482008E+02 -0.10601094741E+04  0.11642764350E+04  0.00000000000E+00 0. -1.
         22    1    1    2    0    0 -0.62759307572E+03  0.18962415799E+02 -0.10534690967E+04  0.12263889186E+04  0.00000000000E+00 0. -1.
<mgrwt>
<rscale>  0 0.12671949E+04</rscale>
<asrwt>0</asrwt>
<pdfrwt beam="1">  1        2 0.38481808E+00 0.12671949E+04</pdfrwt>
<pdfrwt beam="2">  1       -2 0.24691340E-01 0.12671949E+04</pdfrwt>
<totfact> 0.50352681E+01</totfact>
</mgrwt>
</event>
<event>
 6    1  0.1831439E-005  0.3162728E+04  0.7818608E-02  0.8198731E-01
         -2   -1    0    0    0  501 -0.00000000000E+00  0.00000000000E+00  0.16781423977E+04  0.16781423977E+04  0.00000000000E+00 0.  1.
          2   -1    0    0  501    0  0.00000000000E+00 -0.00000000000E+00 -0.14901666724E+04  0.14901666724E+04  0.00000000000E+00 0. -1.
         23    2    1    2    0    0  0.91646561567E+03 -0.12771370383E+04 -0.66805848432E+02  0.15758575356E+04  0.88745206296E+02 0.  0.
         13    1    3    3    0    0  0.27257458775E+03 -0.40763338803E+03  0.16958570492E+02  0.49066228512E+03  0.00000000000E+00 0.  1.
        -13    1    3    3    0    0  0.64389102792E+03 -0.86950365029E+03 -0.83764418924E+02  0.10851952504E+04  0.00000000000E+00 0. -1.
         22    1    1    2    0    0 -0.91646561567E+03  0.12771370383E+04  0.25478157378E+03  0.15924515345E+04  0.00000000000E+00 0.  1.
<mgrwt>
<rscale>  0 0.31627279E+04</rscale>
<asrwt>0</asrwt>
<pdfrwt beam="1">  1        2 0.22925641E+00 0.31627279E+04</pdfrwt>
<pdfrwt beam="2">  1       -2 0.25817576E+00 0.31627279E+04</pdfrwt>
<totfact> 0.62170413E-01</totfact>
</mgrwt>
</event>
<event>
 6    1  0.1831439E-005  0.3654012E+04  0.7818608E-02  0.8078230E-01
         -1   -1    0    0    0  501 -0.00000000000E+00  0.00000000000E+00  0.16225655232E+04  0.16225655232E+04  0.00000000000E+00 0.  1.
          1   -1    0    0  501    0  0.00000000000E+00 -0.00000000000E+00 -0.20572057008E+04  0.20572057008E+04  0.00000000000E+00 0. -1.
         23    2    1    2    0    0 -0.17036384745E+04  0.59407831458E+03 -0.49962685454E+03  0.18743526121E+04  0.90871475261E+02 0.  0.
         11    1    3    3    0    0 -0.10916678893E+04  0.39873503950E+03 -0.28008196524E+03  0.11954807901E+04  0.00000000000E+00 0.  1.
        -11    1    3    3    0    0 -0.61197058524E+03  0.19534327508E+03 -0.21954488930E+03  0.67887182203E+03  0.00000000000E+00 0. -1.
         22    1    1    2    0    0  0.17036384745E+04 -0.59407831458E+03  0.64986676940E+02  0.18054186118E+04  0.00000000000E+00 0.  1.
<mgrwt>
<rscale>  0 0.36540121E+04</rscale>
<asrwt>0</asrwt>
<pdfrwt beam="1">  1        1 0.31649318E+00 0.36540121E+04</pdfrwt>
<pdfrwt beam="2">  1       -1 0.24962547E+00 0.36540121E+04</pdfrwt>
<totfact> 0.15389269E-01</totfact>
</mgrwt>
</event>
<event>
 6    1  0.1831439E-005  0.2381777E+04  0.7818608E-02  0.8446358E-01
         -2   -1    0    0    0  501 -0.00000000000E+00  0.00000000000E+00  0.20716691430E+04  0.20716691430E+04  0.00000000000E+00 0.  1.
          2   -1    0    0  501    0  0.00000000000E+00 -0.00000000000E+00 -0.68457618928E+03  0.68457618928E+03  0.00000000000E+00 0. -1.
         23    2    1    2    0    0  0.65616178214E+03 -0.51011725471E+03  0.16789997296E+04  0.18753495021E+04  0.84426092469E+02 0.  0.
         11    1    3    3    0    0  0.30146930732E+03 -0.25654339884E+03  0.71320415845E+03  0.81569505967E+03  0.00000000000E+00 0.  1.
        -11    1    3    3    0    0  0.35469247482E+03 -0.25357385586E+03  0.96579557117E+03  0.10596544424E+04  0.00000000000E+00 0. -1.
         22    1    1    2    0    0 -0.65616178214E+03  0.51011725471E+03 -0.29190677586E+03  0.88089583021E+03  0.00000000000E+00 0. -1.
<mgrwt>
<rscale>  0 0.23817770E+04</rscale>
<asrwt>0</asrwt>
<pdfrwt beam="1">  1        2 0.10531941E+00 0.23817770E+04</pdfrwt>
<pdfrwt beam="2">  1       -2 0.31871833E+00 0.23817770E+04</pdfrwt>
<totfact> 0.92594994E-01</totfact>
</mgrwt>
</event>
<event>
 6    1  0.1831439E-005  0.1994219E+04  0.7818608E-02  0.8609328E-01
          1   -1    0    0  501    0  0.00000000000E+00  0.00000000000E+00  0.21993477535E+04  0.21993477535E+04  0.00000000000E+00 0. -1.
         -1   -1    0    0    0  501 -0.00000000000E+00 -0.00000000000E+00 -0.45205562217E+03  0.45205562217E+03  0.00000000000E+00 0.  1.
         23    2    1    2    0    0  0.95682697027E+02 -0.56052109728E+03  0.19610794626E+04  0.20439133741E+04  0.91706833522E+02 0.  0.
         13    1    3    3    0    0  0.42606216397E+01 -0.29269278991E+03  0.10272577268E+04  0.10681505790E+04  0.00000000000E+00 0. -1.
        -13    1    3    3    0    0  0.91422075387E+02 -0.26782830737E+03  0.93382173582E+03  0.97576279514E+03  0.00000000000E+00 0.  1.
         22    1    1    2    0    0 -0.95682697027E+02  0.56052109728E+03 -0.21378733125E+03  0.60749000157E+03  0.00000000000E+00 0.  1.
<mgrwt>
<rscale>  0 0.19942192E+04</rscale>
<asrwt>0</asrwt>
<pdfrwt beam="1">  1        1 0.33836119E+00 0.19942192E+04</pdfrwt>
<pdfrwt beam="2">  1       -1 0.69547020E-01 0.19942192E+04</pdfrwt>
<totfact> 0.42323818E+00</totfact>
</mgrwt>
</event>
<event>
 6    1  0.3596001E-005  0.1973342E+04  0.7818608E-02  0.8619186E-01
          2   -1    0    0  501    0  0.00000000000E+00  0.00000000000E+00  0.20666550127E+04  0.20666550127E+04  0.00000000000E+00 0. -1.
         -2   -1    0    0    0  501 -0.00000000000E+00 -0.00000000000E+00 -0.47106061230E+03  0.47106061230E+03  0.00000000000E+00 0.  1.
         23    2    1    2    0    0  0.52821290063E+03 -0.78743725612E+03  0.11428750022E+04  0.14869915155E+04  0.76903809346E+02 0.  0.
         11    1    3    3    0    0  0.22168859566E+03 -0.38772984699E+03  0.50379988179E+03  0.67327155634E+03  0.00000000000E+00 0.  1.
        -11    1    3    3    0    0  0.30652430497E+03 -0.39970740913E+03  0.63907512041E+03  0.81371995919E+03  0.00000000000E+00 0. -1.
         22    1    1    2    0    0 -0.52821290063E+03  0.78743725612E+03  0.45271939822E+03  0.10507241095E+04  0.00000000000E+00 0.  1.
<mgrwt>
<rscale>  0 0.19733421E+04</rscale>
<asrwt>0</asrwt>
<pdfrwt beam="1">  1        2 0.31794692E+00 0.19733421E+04</pdfrwt>
<pdfrwt beam="2">  1       -2 0.72470865E-01 0.19733421E+04</pdfrwt>
<totfact> 0.98367894E+00</totfact>
</mgrwt>
</event>
<event>
 6    1  0.1831439E-005  0.1338697E+04  0.7818608E-02  0.8999428E-01
          2   -1    0    0  501    0  0.00000000000E+00  0.00000000000E+00  0.66543395659E+03  0.66543395659E+03  0.00000000000E+00 0. -1.
         -2   -1    0    0    0  501 -0.00000000000E+00 -0.00000000000E+00 -0.67328642843E+03  0.67328642843E+03  0.00000000000E+00 0.  1.
         23    2    1    2    0    0 -0.40574919987E+03 -0.41676942815E+03  0.32106876289E+03  0.67050010091E+03  0.90310937216E+02 0.  0.
         11    1    3    3    0    0 -0.16170175163E+03 -0.22828680348E+03  0.16677962846E+03  0.32569581759E+03  0.00000000000E+00 0.  1.
        -11    1    3    3    0    0 -0.24404744824E+03 -0.18848262466E+03  0.15428913443E+03  0.34480428332E+03  0.00000000000E+00 0. -1.
         22    1    1    2    0    0  0.40574919987E+03  0.41676942815E+03 -0.32892123473E+03  0.66822028410E+03  0.00000000000E+00 0.  1.
<mgrwt>
<rscale>  0 0.13386974E+04</rscale>
<asrwt>0</asrwt>
<pdfrwt beam="1">  1        2 0.10237445E+00 0.13386974E+04</pdfrwt>
<pdfrwt beam="2">  1       -2 0.10358253E+00 0.13386974E+04</pdfrwt>
<totfact> 0.32425605E+01</totfact>
</mgrwt>
</event>
<event>
 6    1  0.1831439E-005  0.3116357E+04  0.7818608E-02  0.8211263E-01
          1   -1    0    0  501    0  0.00000000000E+00  0.00000000000E+00  0.24391737808E+04  0.24391737808E+04  0.00000000000E+00 0. -1.
         -1   -1    0    0    0  501 -0.00000000000E+00 -0.00000000000E+00 -0.99538603846E+03  0.99538603846E+03  0.00000000000E+00 0.  1.
         23    2    1    2    0    0 -0.52481488064E+03 -0.13819853996E+04  0.18439786297E+03  0.14925564279E+04  0.91694138802E+02 0.  0.
         13    1    3    3    0    0 -0.29791351909E+03 -0.65929853031E+03  0.10137126734E+03  0.73054989615E+03  0.00000000000E+00 0.  1.
        -13    1    3    3    0    0 -0.22690136155E+03 -0.72268686927E+03  0.83026595629E+02  0.76200653178E+03  0.00000000000E+00 0. -1.
         22    1    1    2    0    0  0.52481488064E+03  0.13819853996E+04  0.12593898793E+04  0.19420033913E+04  0.00000000000E+00 0. -1.
<mgrwt>
<rscale>  0 0.31163565E+04</rscale>
<asrwt>0</asrwt>
<pdfrwt beam="1">  1        1 0.37525750E+00 0.31163565E+04</pdfrwt>
<pdfrwt beam="2">  1       -1 0.15313631E+00 0.31163565E+04</pdfrwt>
<totfact> 0.41479512E-01</totfact>
</mgrwt>
</event>
<event>
 6    1  0.1831439E-005  0.2203158E+04  0.7818608E-02  0.8517115E-01
          1   -1    0    0  501    0  0.00000000000E+00  0.00000000000E+00  0.13176857578E+04  0.13176857578E+04  0.00000000000E+00 0. -1.
         -1   -1    0    0    0  501 -0.00000000000E+00 -0.00000000000E+00 -0.92091445196E+03  0.92091445196E+03  0.00000000000E+00 0.  1.
         23    2    1    2    0    0  0.10923990516E+04 -0.47735351315E+02  0.31784951147E+03  0.11423142064E+04  0.90769391778E+02 0.  0.
         13    1    3    3    0    0  0.10197344041E+03  0.14933542281E+01  0.35372286159E+01  0.10204569879E+03  0.00000000000E+00 0.  1.
        -13    1    3    3    0    0  0.99042561116E+03 -0.49228705543E+02  0.31431228286E+03  0.10402685076E+04  0.00000000000E+00 0. -1.
         22    1    1    2    0    0 -0.10923990516E+04  0.47735351315E+02  0.78921794381E+02  0.10962860034E+04  0.00000000000E+00 0.  1.
<mgrwt>
<rscale>  0 0.22031576E+04</rscale>
<asrwt>0</asrwt>
<pdfrwt beam="1">  1        1 0.20272089E+00 0.22031576E+04</pdfrwt>
<pdfrwt beam="2">  1       -1 0.14167915E+00 0.22031576E+04</pdfrwt>
<totfact> 0.32535608E+00</totfact>
</mgrwt>
</event>
<event>
 6    1  0.1831439E-005  0.1464881E+04  0.7818608E-02  0.8908149E-01
         -2   -1    0    0    0  501 -0.00000000000E+00  0.00000000000E+00  0.13870323250E+03  0.13870323250E+03  0.00000000000E+00 0.  1.
          2   -1    0    0  501    0  0.00000000000E+00 -0.00000000000E+00 -0.38677451464E+04  0.38677451464E+04  0.00000000000E+00 0. -1.
         23    2    1    2    0    0 -0.54220261345E+03  0.39842960642E+03 -0.10995762576E+04  0.12922598330E+04  0.90209224897E+02 0.  0.
         11    1    3    3    0    0 -0.30631157353E+03  0.25240526391E+03 -0.71929373222E+03  0.82153433923E+03  0.00000000000E+00 0. -1.
        -11    1    3    3    0    0 -0.23589103992E+03  0.14602434251E+03 -0.38028252539E+03  0.47072549372E+03  0.00000000000E+00 0.  1.
         22    1    1    2    0    0  0.54220261345E+03 -0.39842960642E+03 -0.26294656562E+04  0.27141885459E+04  0.00000000000E+00 0. -1.
<mgrwt>
<rscale>  0 0.14648805E+04</rscale>
<asrwt>0</asrwt>
<pdfrwt beam="1">  1        2 0.59503769E+00 0.14648805E+04</pdfrwt>
<pdfrwt beam="2">  1       -2 0.21338960E-01 0.14648805E+04</pdfrwt>
<totfact> 0.82255176E+00</totfact>
</mgrwt>
</event>
<event>
 6    1  0.1831439E-005  0.1811385E+04  0.7818608E-02  0.8700268E-01
         -2   -1    0    0    0  501 -0.00000000000E+00  0.00000000000E+00  0.79644096458E+03  0.79644096458E+03  0.00000000000E+00 0. -1.
          2   -1    0    0  501    0  0.00000000000E+00 -0.00000000000E+00 -0.10299305344E+04  0.10299305344E+04  0.00000000000E+00 0.  1.
         23    2    1    2    0    0  0.15056295684E+03  0.60725553754E+03 -0.77397376962E+03  0.99959966706E+03  0.93464466420E+02 0.  0.
         11    1    3    3    0    0  0.25473970986E+02  0.27869821556E+03 -0.31312568953E+03  0.41996346984E+03  0.00000000000E+00 0. -1.
        -11    1    3    3    0    0  0.12508898586E+03  0.32855732197E+03 -0.46084808009E+03  0.57963619722E+03  0.00000000000E+00 0.  1.
         22    1    1    2    0    0 -0.15056295684E+03 -0.60725553754E+03  0.54048419979E+03  0.82677183193E+03  0.00000000000E+00 0. -1.
<mgrwt>
<rscale>  0 0.18113850E+04</rscale>
<asrwt>0</asrwt>
<pdfrwt beam="1">  1        2 0.15845085E+00 0.18113850E+04</pdfrwt>
<pdfrwt beam="2">  1       -2 0.12252938E+00 0.18113850E+04</pdfrwt>
<totfact> 0.11460578E+01</totfact>
</mgrwt>
</event>
<event>
 6    1  0.1831439E-005  0.2217687E+04  0.7818608E-02  0.8511102E-01
         -2   -1    0    0    0  501 -0.00000000000E+00  0.00000000000E+00  0.52883025381E+03  0.52883025381E+03  0.00000000000E+00 0.  1.
          2   -1    0    0  501    0  0.00000000000E+00 -0.00000000000E+00 -0.23250077573E+04  0.23250077573E+04  0.00000000000E+00 0. -1.
         23    2    1    2    0    0  0.43430805362E+03  0.84368145297E+03 -0.16327336385E+04  0.18909591108E+04  0.97392735869E+02 0.  0.
         13    1    3    3    0    0  0.27843791964E+03  0.49319454673E+03 -0.10564294350E+04  0.11986708002E+04  0.00000000000E+00 0. -1.
        -13    1    3    3    0    0  0.15587013398E+03  0.35048690624E+03 -0.57630420347E+03  0.69228831064E+03  0.00000000000E+00 0.  1.
         22    1    1    2    0    0 -0.43430805362E+03 -0.84368145297E+03 -0.16344386494E+03  0.96287890024E+03  0.00000000000E+00 0. -1.
<mgrwt>
<rscale>  0 0.22176875E+04</rscale>
<asrwt>0</asrwt>
<pdfrwt beam="1">  1        2 0.35769350E+00 0.22176875E+04</pdfrwt>
<pdfrwt beam="2">  1       -2 0.81358501E-01 0.22176875E+04</pdfrwt>
<totfact> 0.53288818E+00</totfact>
</mgrwt>
</event>
<event>
 6    1  0.1831439E-005  0.3466792E+04  0.7818608E-02  0.8121705E-01
         -1   -1    0    0    0  501 -0.00000000000E+00  0.00000000000E+00  0.17829947864E+04  0.17829947864E+04  0.00000000000E+00 0.  1.
          1   -1    0    0  501    0  0.00000000000E+00 -0.00000000000E+00 -0.16851768470E+04  0.16851768470E+04  0.00000000000E+00 0. -1.
         23    2    1    2    0    0  0.32354207858E+03 -0.46389854482E+03  0.16868550803E+04  0.17814824589E+04  0.91205005326E+02 0.  0.
         11    1    3    3    0    0  0.16032601633E+03 -0.26606453333E+03  0.79672778106E+03  0.85514321871E+03  0.00000000000E+00 0. -1.
        -11    1    3    3    0    0  0.16321606224E+03 -0.19783401149E+03  0.89012729923E+03  0.92633924019E+03  0.00000000000E+00 0.  1.
         22    1    1    2    0    0 -0.32354207858E+03  0.46389854482E+03 -0.15890371409E+04  0.16866891746E+04  0.00000000000E+00 0. -1.
<mgrwt>
<rscale>  0 0.34667919E+04</rscale>
<asrwt>0</asrwt>
<pdfrwt beam="1">  1        1 0.25925798E+00 0.34667919E+04</pdfrwt>
<pdfrwt beam="2">  1       -1 0.27430689E+00 0.34667919E+04</pdfrwt>
<totfact> 0.19336788E-01</totfact>
</mgrwt>
</event>
<event>
 6    1  0.1831439E-005  0.9850520E+03  0.7818608E-02  0.9325093E-01
         -2   -1    0    0    0  501 -0.00000000000E+00  0.00000000000E+00  0.60848220056E+03  0.60848220056E+03  0.00000000000E+00 0.  1.
          2   -1    0    0  501    0  0.00000000000E+00 -0.00000000000E+00 -0.39866711837E+03  0.39866711837E+03  0.00000000000E+00 0. -1.
         23    2    1    2    0    0 -0.99821715203E+02 -0.47712547641E+03  0.77762609514E+02  0.50212362592E+03  0.92021830077E+02 0.  0.
         13    1    3    3    0    0 -0.15981333797E+02 -0.25222669007E+03  0.68838216400E+02  0.26193969964E+03  0.00000000000E+00 0.  1.
        -13    1    3    3    0    0 -0.83840381406E+02 -0.22489878634E+03  0.89243931141E+01  0.24018392628E+03  0.00000000000E+00 0. -1.
         22    1    1    2    0    0  0.99821715203E+02  0.47712547641E+03  0.13205247267E+03  0.50502569301E+03  0.00000000000E+00 0. -1.
<mgrwt>
<rscale>  0 0.98505197E+03</rscale>
<asrwt>0</asrwt>
<pdfrwt beam="1">  1        2 0.61333403E-01 0.98505197E+03</pdfrwt>
<pdfrwt beam="2">  1       -2 0.93612646E-01 0.98505197E+03</pdfrwt>
<totfact> 0.76961977E+01</totfact>
</mgrwt>
</event>
<event>
 6    1  0.1831439E-005  0.2555559E+04  0.7818608E-02  0.8383455E-01
          2   -1    0    0  501    0  0.00000000000E+00  0.00000000000E+00  0.15748296945E+04  0.15748296945E+04  0.00000000000E+00 0. -1.
         -2   -1    0    0    0  501 -0.00000000000E+00 -0.00000000000E+00 -0.10367602050E+04  0.10367602050E+04  0.00000000000E+00 0.  1.
         23    2    1    2    0    0 -0.98441377592E+03 -0.34148810448E+03  0.10221938929E+04  0.14626508039E+04  0.93714522600E+02 0.  0.
         13    1    3    3    0    0 -0.63614774868E+02 -0.45313633565E+02  0.92156888831E+02  0.12080172651E+03  0.00000000000E+00 0. -1.
        -13    1    3    3    0    0 -0.92079900105E+03 -0.29617447092E+03  0.93003700402E+03  0.13418490774E+04  0.00000000000E+00 0.  1.
         22    1    1    2    0    0  0.98441377592E+03  0.34148810448E+03 -0.48412440333E+03  0.11489390957E+04  0.00000000000E+00 0.  1.
<mgrwt>
<rscale>  0 0.25555592E+04</rscale>
<asrwt>0</asrwt>
<pdfrwt beam="1">  1        2 0.24228149E+00 0.25555592E+04</pdfrwt>
<pdfrwt beam="2">  1       -2 0.15950157E+00 0.25555592E+04</pdfrwt>
<totfact> 0.25986956E+00</totfact>
</mgrwt>
</event>
<event>
 6    1  0.1831439E-005  0.1373105E+04  0.7818608E-02  0.8973520E-01
         -2   -1    0    0    0  501 -0.00000000000E+00  0.00000000000E+00  0.20405112318E+03  0.20405112318E+03  0.00000000000E+00 0.  1.
          2   -1    0    0  501    0  0.00000000000E+00 -0.00000000000E+00 -0.23099817860E+04  0.23099817860E+04  0.00000000000E+00 0. -1.
         23    2    1    2    0    0 -0.57720666361E+03  0.48879338990E+02 -0.39307742184E+03  0.70587833962E+03  0.90540866412E+02 0.  0.
         11    1    3    3    0    0 -0.16828462954E+03  0.47691659809E+02 -0.88752154712E+02  0.19614065341E+03  0.00000000000E+00 0.  1.
        -11    1    3    3    0    0 -0.40892203407E+03  0.11876791805E+01 -0.30432526713E+03  0.50973768621E+03  0.00000000000E+00 0. -1.
         22    1    1    2    0    0  0.57720666361E+03 -0.48879338990E+02 -0.17128532410E+04  0.18081545696E+04  0.00000000000E+00 0. -1.
<mgrwt>
<rscale>  0 0.13731051E+04</rscale>
<asrwt>0</asrwt>
<pdfrwt beam="1">  1        2 0.35538182E+00 0.13731051E+04</pdfrwt>
<pdfrwt beam="2">  1       -2 0.31392480E-01 0.13731051E+04</pdfrwt>
<totfact> 0.41197667E+01</totfact>
</mgrwt>
</event>
<event>
 6    1  0.1831439E-005  0.6716967E+03  0.7818608E-02  0.9766898E-01
         -2   -1    0    0    0  501 -0.00000000000E+00  0.00000000000E+00  0.80367103462E+02  0.80367103462E+02  0.00000000000E+00 0.  1.
          2   -1    0    0  501    0  0.00000000000E+00 -0.00000000000E+00 -0.14034861189E+04  0.14034861189E+04  0.00000000000E+00 0. -1.
         23    2    1    2    0    0 -0.41719546753E+02  0.26395601425E+03 -0.11001025958E+04  0.11357876805E+04  0.91513035810E+02 0.  0.
         11    1    3    3    0    0 -0.65365642245E+02  0.16974174074E+03 -0.79735947470E+03  0.81784292969E+03  0.00000000000E+00 0.  1.
        -11    1    3    3    0    0  0.23646095491E+02  0.94214273506E+02 -0.30274312114E+03  0.31794475080E+03  0.00000000000E+00 0. -1.
         22    1    1    2    0    0  0.41719546753E+02 -0.26395601425E+03 -0.22301641961E+03  0.34806554189E+03  0.00000000000E+00 0.  1.
<mgrwt>
<rscale>  0 0.67169670E+03</rscale>
<asrwt>0</asrwt>
<pdfrwt beam="1">  1        2 0.21592093E+00 0.67169670E+03</pdfrwt>
<pdfrwt beam="2">  1       -2 0.12364170E-01 0.67169670E+03</pdfrwt>
<totfact> 0.70751448E+02</totfact>
</mgrwt>
</event>
<event>
 6    1  0.1831439E-005  0.2155937E+04  0.7818608E-02  0.8536995E-01
          1   -1    0    0  501    0  0.00000000000E+00  0.00000000000E+00  0.25734020005E+04  0.25734020005E+04  0.00000000000E+00 0. -1.
         -1   -1    0    0    0  501 -0.00000000000E+00 -0.00000000000E+00 -0.45154865370E+03  0.45154865370E+03  0.00000000000E+00 0.  1.
         23    2    1    2    0    0 -0.54530514452E+03 -0.92565764049E+03  0.97282598273E+03  0.14519078540E+04  0.86291689466E+02 0.  0.
         11    1    3    3    0    0 -0.25961712349E+03 -0.39726707945E+03  0.47913300390E+03  0.67438165652E+03  0.00000000000E+00 0.  1.
        -11    1    3    3    0    0 -0.28568802103E+03 -0.52839056103E+03  0.49369297882E+03  0.77752619743E+03  0.00000000000E+00 0. -1.
         22    1    1    2    0    0  0.54530514452E+03  0.92565764049E+03  0.11490273641E+04  0.15730428003E+04  0.00000000000E+00 0.  1.
<mgrwt>
<rscale>  0 0.21559371E+04</rscale>
<asrwt>0</asrwt>
<pdfrwt beam="1">  1        1 0.39590799E+00 0.21559371E+04</pdfrwt>
<pdfrwt beam="2">  1       -1 0.69469025E-01 0.21559371E+04</pdfrwt>
<totfact> 0.23105282E+00</totfact>
</mgrwt>
</event>
<event>
 6    1  0.1831439E-005  0.3737812E+04  0.7818608E-02  0.8059633E-01
          2   -1    0    0  501    0  0.00000000000E+00  0.00000000000E+00  0.25893519802E+04  0.25893519802E+04  0.00000000000E+00 0.  1.
         -2   -1    0    0    0  501 -0.00000000000E+00 -0.00000000000E+00 -0.13489128887E+04  0.13489128887E+04  0.00000000000E+00 0. -1.
         23    2    1    2    0    0 -0.23600984710E+03 -0.32027135694E+03  0.25433696284E+04  0.25759497900E+04  0.92270602115E+02 0.  0.
         11    1    3    3    0    0 -0.60243118895E+02 -0.56691982602E+02  0.33990216395E+03  0.34982380611E+03  0.00000000000E+00 0.  1.
        -11    1    3    3    0    0 -0.17576672820E+03 -0.26357937434E+03  0.22034674645E+04  0.22261259839E+04  0.00000000000E+00 0. -1.
         22    1    1    2    0    0  0.23600984710E+03  0.32027135694E+03 -0.13029305370E+04  0.13623150789E+04  0.00000000000E+00 0. -1.
<mgrwt>
<rscale>  0 0.37378123E+04</rscale>
<asrwt>0</asrwt>
<pdfrwt beam="1">  1        2 0.39836184E+00 0.37378123E+04</pdfrwt>
<pdfrwt beam="2">  1       -2 0.20752506E+00 0.37378123E+04</pdfrwt>
<totfact> 0.29554551E-01</totfact>
</mgrwt>
</event>
<event>
 6    1  0.1831439E-005  0.7819644E+03  0.7818608E-02  0.9586496E-01
          1   -1    0    0  501    0  0.00000000000E+00  0.00000000000E+00  0.41503239988E+03  0.41503239988E+03  0.00000000000E+00 0. -1.
         -1   -1    0    0    0  501 -0.00000000000E+00 -0.00000000000E+00 -0.36832567968E+03  0.36832567968E+03  0.00000000000E+00 0.  1.
         23    2    1    2    0    0  0.35987164919E+03  0.11622705181E+03  0.90571690606E+02  0.40264760283E+03  0.10442954304E+03 0.  0.
         13    1    3    3    0    0  0.16104500692E+03  0.66052865826E+02 -0.98013170455E+01  0.17434030272E+03  0.00000000000E+00 0. -1.
        -13    1    3    3    0    0  0.19882664227E+03  0.50174185984E+02  0.10037300765E+03  0.22830730011E+03  0.00000000000E+00 0.  1.
         22    1    1    2    0    0 -0.35987164919E+03 -0.11622705181E+03 -0.43864970402E+02  0.38071047673E+03  0.00000000000E+00 0.  1.
<mgrwt>
<rscale>  0 0.78196443E+03</rscale>
<asrwt>0</asrwt>
<pdfrwt beam="1">  1        1 0.63851139E-01 0.78196443E+03</pdfrwt>
<pdfrwt beam="2">  1       -1 0.56665489E-01 0.78196443E+03</pdfrwt>
<totfact> 0.18226603E+02</totfact>
</mgrwt>
</event>
<event>
 6    1  0.1831439E-005  0.3450633E+03  0.7818608E-02  0.1064660E+00
         -2   -1    0    0    0  501 -0.00000000000E+00  0.00000000000E+00  0.92430736260E+03  0.92430736260E+03  0.00000000000E+00 0.  1.
          2   -1    0    0  501    0  0.00000000000E+00 -0.00000000000E+00 -0.32204838656E+02  0.32204838656E+02  0.00000000000E+00 0. -1.
         23    2    1    2    0    0  0.64171275974E+02  0.13839426322E+02  0.88324614061E+03  0.89027084026E+03  0.90271489059E+02 0.  0.
         11    1    3    3    0    0  0.36472796189E+01 -0.32167740377E+02  0.37156361594E+03  0.37297129495E+03  0.00000000000E+00 0.  1.
        -11    1    3    3    0    0  0.60523996355E+02  0.46007166699E+02  0.51168252467E+03  0.51729954531E+03  0.00000000000E+00 0. -1.
         22    1    1    2    0    0 -0.64171275974E+02 -0.13839426322E+02  0.88563833376E+01  0.66241360998E+02  0.00000000000E+00 0. -1.
<mgrwt>
<rscale>  0 0.34506330E+03</rscale>
<asrwt>0</asrwt>
<pdfrwt beam="1">  1        2 0.49545913E-02 0.34506330E+03</pdfrwt>
<pdfrwt beam="2">  1       -2 0.14220111E+00 0.34506330E+03</pdfrwt>
<totfact> 0.58144381E+02</totfact>
</mgrwt>
</event>
<event>
 6    1  0.1831439E-005  0.6705393E+03  0.7818608E-02  0.9768984E-01
          3   -1    0    0  501    0  0.00000000000E+00  0.00000000000E+00  0.11271793339E+03  0.11271793339E+03  0.00000000000E+00 0. -1.
         -3   -1    0    0    0  501 -0.00000000000E+00 -0.00000000000E+00 -0.99723031296E+03  0.99723031296E+03  0.00000000000E+00 0.  1.
         23    2    1    2    0    0 -0.74358717481E+02  0.30680272312E+03 -0.29449229649E+03  0.44078397039E+03  0.88925058796E+02 0.  0.
         11    1    3    3    0    0  0.12639152856E+02  0.84322200473E+02 -0.10871704703E+03  0.13816431519E+03  0.00000000000E+00 0.  1.
        -11    1    3    3    0    0 -0.86997870338E+02  0.22248052265E+03 -0.18577524946E+03  0.30261965520E+03  0.00000000000E+00 0. -1.
         22    1    1    2    0    0  0.74358717481E+02 -0.30680272312E+03 -0.59002008308E+03  0.66916427595E+03  0.00000000000E+00 0. -1.
<mgrwt>
<rscale>  0 0.67053931E+03</rscale>
<asrwt>0</asrwt>
<pdfrwt beam="1">  1        3 0.17341220E-01 0.67053931E+03</pdfrwt>
<pdfrwt beam="2">  1       -3 0.15342005E+00 0.67053931E+03</pdfrwt>
<totfact> 0.23831635E+01</totfact>
</mgrwt>
</event>
<event>
 6    1  0.1831439E-005  0.8424586E+03  0.7818608E-02  0.9500515E-01
          2   -1    0    0  501    0  0.00000000000E+00  0.00000000000E+00  0.58961480936E+03  0.58961480936E+03  0.00000000000E+00 0.  1.
         -2   -1    0    0    0  501 -0.00000000000E+00 -0.00000000000E+00 -0.30093226057E+03  0.30093226057E+03  0.00000000000E+00 0. -1.
         23    2    1    2    0    0  0.39653121044E+03 -0.10315663433E+03  0.66081327164E+02  0.42425360447E+03  0.88011857427E+02 0.  0.
         11    1    3    3    0    0  0.13983883169E+03 -0.58534174204E+02 -0.12525110365E+02  0.15211188905E+03  0.00000000000E+00 0. -1.
        -11    1    3    3    0    0  0.25669237875E+03 -0.44622460125E+02  0.78606437529E+02  0.27214171543E+03  0.00000000000E+00 0.  1.
         22    1    1    2    0    0 -0.39653121044E+03  0.10315663433E+03  0.22260122162E+03  0.46629346546E+03  0.00000000000E+00 0.  1.
<mgrwt>
<rscale>  0 0.84245859E+03</rscale>
<asrwt>0</asrwt>
<pdfrwt beam="1">  1        2 0.90709970E-01 0.84245859E+03</pdfrwt>
<pdfrwt beam="2">  1       -2 0.46297271E-01 0.84245859E+03</pdfrwt>
<totfact> 0.22525472E+02</totfact>
</mgrwt>
</event>
<event>
 6    1  0.1831439E-005  0.1094981E+04  0.7818608E-02  0.9210098E-01
          1   -1    0    0  501    0  0.00000000000E+00  0.00000000000E+00  0.29073990693E+04  0.29073990693E+04  0.00000000000E+00 0. -1.
         -1   -1    0    0    0  501 -0.00000000000E+00 -0.00000000000E+00 -0.10309753767E+03  0.10309753767E+03  0.00000000000E+00 0.  1.
         23    2    1    2    0    0  0.31466016972E+03  0.24102384736E+03  0.24349213838E+04  0.24686984794E+04  0.92339154729E+02 0.  0.
         11    1    3    3    0    0  0.37846700649E+02  0.33062669557E+02  0.16373693725E+03  0.17127550172E+03  0.00000000000E+00 0. -1.
        -11    1    3    3    0    0  0.27681346907E+03  0.20796117781E+03  0.22711844466E+04  0.22974229777E+04  0.00000000000E+00 0.  1.
         22    1    1    2    0    0 -0.31466016972E+03 -0.24102384736E+03  0.36938014777E+03  0.54179812751E+03  0.00000000000E+00 0.  1.
<mgrwt>
<rscale>  0 0.10949807E+04</rscale>
<asrwt>0</asrwt>
<pdfrwt beam="1">  1        1 0.44729210E+00 0.10949807E+04</pdfrwt>
<pdfrwt beam="2">  1       -1 0.15861162E-01 0.10949807E+04</pdfrwt>
<totfact> 0.21225808E+01</totfact>
</mgrwt>
</event>
<event>
 6    1  0.1831439E-005  0.1576423E+04  0.7818608E-02  0.8835165E-01
          2   -1    0    0  501    0  0.00000000000E+00  0.00000000000E+00  0.23022640665E+04  0.23022640665E+04  0.00000000000E+00 0.  1.
         -2   -1    0    0    0  501 -0.00000000000E+00 -0.00000000000E+00 -0.26985490989E+03  0.26985490989E+03  0.00000000000E+00 0. -1.
         23    2    1    2    0    0  0.17542349971E+03 -0.58786833581E+03  0.21901474635E+03  0.65776219887E+03  0.91219880781E+02 0.  0.
         13    1    3    3    0    0  0.16292244597E+03 -0.40083752439E+03  0.14743655442E+03  0.45711265782E+03  0.00000000000E+00 0. -1.
        -13    1    3    3    0    0  0.12501053738E+02 -0.18703081142E+03  0.71578191931E+02  0.20064954105E+03  0.00000000000E+00 0.  1.
         22    1    1    2    0    0 -0.17542349971E+03  0.58786833581E+03  0.18133944102E+04  0.19143567775E+04  0.00000000000E+00 0.  1.
<mgrwt>
<rscale>  0 0.15764229E+04</rscale>
<asrwt>0</asrwt>
<pdfrwt beam="1">  1        2 0.35419446E+00 0.15764229E+04</pdfrwt>
<pdfrwt beam="2">  1       -2 0.41516141E-01 0.15764229E+04</pdfrwt>
<totfact> 0.23899381E+01</totfact>
</mgrwt>
</event>
<event>
 6    1  0.1831439E-005  0.1040033E+04  0.7818608E-02  0.9265695E-01
          2   -1    0    0  501    0  0.00000000000E+00  0.00000000000E+00  0.36682989313E+03  0.36682989313E+03  0.00000000000E+00 0. -1.
         -2   -1    0    0    0  501 -0.00000000000E+00 -0.00000000000E+00 -0.73717295322E+03  0.73717295322E+03  0.00000000000E+00 0.  1.
         23    2    1    2    0    0 -0.12388981193E+03  0.48835646825E+01  0.34474283453E+03  0.37824781097E+03  0.94081081207E+02 0.  0.
         11    1    3    3    0    0 -0.11617632199E+03 -0.29931468229E+02  0.26758718110E+03  0.29325028572E+03  0.00000000000E+00 0.  1.
        -11    1    3    3    0    0 -0.77134899345E+01  0.34815032911E+02  0.77155653424E+02  0.84997525251E+02  0.00000000000E+00 0. -1.
         22    1    1    2    0    0  0.12388981193E+03 -0.48835646825E+01 -0.71508589462E+03  0.72575503538E+03  0.00000000000E+00 0.  1.
<mgrwt>
<rscale>  0 0.10400328E+04</rscale>
<asrwt>0</asrwt>
<pdfrwt beam="1">  1        2 0.56435368E-01 0.10400328E+04</pdfrwt>
<pdfrwt beam="2">  1       -2 0.11341122E+00 0.10400328E+04</pdfrwt>
<totfact> 0.53266439E+01</totfact>
</mgrwt>
</event>
<event>
 6    1  0.1831439E-005  0.1758038E+04  0.7818608E-02  0.8728938E-01
          1   -1    0    0  501    0  0.00000000000E+00  0.00000000000E+00  0.11574697213E+04  0.11574697213E+04  0.00000000000E+00 0.  1.
         -1   -1    0    0    0  501 -0.00000000000E+00 -0.00000000000E+00 -0.66755439870E+03  0.66755439870E+03  0.00000000000E+00 0. -1.
         23    2    1    2    0    0 -0.64012630306E+03 -0.25666678493E+03  0.80722675564E+03  0.10658626959E+04  0.93854829949E+02 0.  0.
         13    1    3    3    0    0 -0.58196097675E+03 -0.20315355751E+03  0.70107368517E+03  0.93351714415E+03  0.00000000000E+00 0.  1.
        -13    1    3    3    0    0 -0.58165326314E+02 -0.53513227419E+02  0.10615307047E+03  0.13234555174E+03  0.00000000000E+00 0. -1.
         22    1    1    2    0    0  0.64012630306E+03  0.25666678493E+03 -0.31731143302E+03  0.75916142413E+03  0.00000000000E+00 0. -1.
<mgrwt>
<rscale>  0 0.17580375E+04</rscale>
<asrwt>0</asrwt>
<pdfrwt beam="1">  1        1 0.17807227E+00 0.17580375E+04</pdfrwt>
<pdfrwt beam="2">  1       -1 0.10270068E+00 0.17580375E+04</pdfrwt>
<totfact> 0.97496179E+00</totfact>
</mgrwt>
</event>
<event>
 6    1  0.1831439E-005  0.2925260E+04  0.7818608E-02  0.8265401E-01
         -1   -1    0    0    0  501 -0.00000000000E+00  0.00000000000E+00  0.10661085185E+04  0.10661085185E+04  0.00000000000E+00 0.  1.
          1   -1    0    0  501    0  0.00000000000E+00 -0.00000000000E+00 -0.20066305419E+04  0.20066305419E+04  0.00000000000E+00 0. -1.
         23    2    1    2    0    0  0.69000532835E+02  0.14513708332E+04 -0.31069078800E+03  0.14890958701E+04  0.98180322586E+02 0.  0.
         13    1    3    3    0    0  0.48711961768E+00  0.97984253423E+03 -0.20826897433E+03  0.10017322970E+04  0.00000000000E+00 0. -1.
        -13    1    3    3    0    0  0.68513413217E+02  0.47152829894E+03 -0.10242181367E+03  0.48736357312E+03  0.00000000000E+00 0.  1.
         22    1    1    2    0    0 -0.69000532835E+02 -0.14513708332E+04 -0.62983123537E+03  0.15836431902E+04  0.00000000000E+00 0.  1.
<mgrwt>
<rscale>  0 0.29252596E+04</rscale>
<asrwt>0</asrwt>
<pdfrwt beam="1">  1        1 0.30871239E+00 0.29252596E+04</pdfrwt>
<pdfrwt beam="2">  1       -1 0.16401670E+00 0.29252596E+04</pdfrwt>
<totfact> 0.68847810E-01</totfact>
</mgrwt>
</event>
<event>
 6    1  0.1831439E-005  0.1547476E+04  0.7818608E-02  0.8853482E-01
          1   -1    0    0  501    0  0.00000000000E+00  0.00000000000E+00  0.60697004956E+03  0.60697004956E+03  0.00000000000E+00 0. -1.
         -1   -1    0    0    0  501 -0.00000000000E+00 -0.00000000000E+00 -0.98632614954E+03  0.98632614954E+03  0.00000000000E+00 0.  1.
         23    2    1    2    0    0 -0.29980858853E+03  0.20644047374E+02 -0.92151233121E+03  0.97342141697E+03  0.89738018643E+02 0.  0.
         11    1    3    3    0    0 -0.15483667504E+03 -0.28173037715E+02 -0.39695031947E+03  0.42701015459E+03  0.00000000000E+00 0.  1.
        -11    1    3    3    0    0 -0.14497191350E+03  0.48817085089E+02 -0.52456201174E+03  0.54641126238E+03  0.00000000000E+00 0. -1.
         22    1    1    2    0    0  0.29980858853E+03 -0.20644047374E+02  0.54215623124E+03  0.61987478213E+03  0.00000000000E+00 0. -1.
<mgrwt>
<rscale>  0 0.15474759E+04</rscale>
<asrwt>0</asrwt>
<pdfrwt beam="1">  1        1 0.93380009E-01 0.15474759E+04</pdfrwt>
<pdfrwt beam="2">  1       -1 0.15174248E+00 0.15474759E+04</pdfrwt>
<totfact> 0.10975598E+01</totfact>
</mgrwt>
</event>
<event>
 6    1  0.1831439E-005  0.2264771E+04  0.7818608E-02  0.8491942E-01
         -1   -1    0    0    0  501 -0.00000000000E+00  0.00000000000E+00  0.51897434104E+03  0.51897434104E+03  0.00000000000E+00 0.  1.
          1   -1    0    0  501    0  0.00000000000E+00 -0.00000000000E+00 -0.24708302002E+04  0.24708302002E+04  0.00000000000E+00 0. -1.
         23    2    1    2    0    0  0.22058045783E+03 -0.36653884678E+03 -0.23589635168E+04  0.23992597846E+04  0.93446111214E+02 0.  0.
         13    1    3    3    0    0  0.84605395480E+02 -0.19737356470E+03 -0.13728813852E+04  0.13895746453E+04  0.00000000000E+00 0. -1.
        -13    1    3    3    0    0  0.13597506235E+03 -0.16916528207E+03 -0.98608213165E+03  0.10096851393E+04  0.00000000000E+00 0.  1.
         22    1    1    2    0    0 -0.22058045783E+03  0.36653884678E+03  0.40710765771E+03  0.59054475660E+03  0.00000000000E+00 0.  1.
<mgrwt>
<rscale>  0 0.22647715E+04</rscale>
<asrwt>0</asrwt>
<pdfrwt beam="1">  1        1 0.38012771E+00 0.22647715E+04</pdfrwt>
<pdfrwt beam="2">  1       -1 0.79842208E-01 0.22647715E+04</pdfrwt>
<totfact> 0.20156025E+00</totfact>
</mgrwt>
</event>
<event>
 6    1  0.1831439E-005  0.4609154E+04  0.7818608E-02  0.7891801E-01
          2   -1    0    0  501    0  0.00000000000E+00  0.00000000000E+00  0.38904902401E+04  0.38904902401E+04  0.00000000000E+00 0.  1.
         -2   -1    0    0    0  501 -0.00000000000E+00 -0.00000000000E+00 -0.13651426555E+04  0.13651426555E+04  0.00000000000E+00 0. -1.
         23    2    1    2    0    0 -0.56613153919E+03 -0.20362472718E+03  0.37988558238E+04  0.38471616732E+04  0.85903553024E+02 0.  0.
         13    1    3    3    0    0 -0.17156861555E+03 -0.23814799243E+02  0.99108532905E+03  0.10061078789E+04  0.00000000000E+00 0. -1.
        -13    1    3    3    0    0 -0.39456292364E+03 -0.17980992794E+03  0.28077704947E+04  0.28410537943E+04  0.00000000000E+00 0.  1.
         22    1    1    2    0    0  0.56613153919E+03  0.20362472718E+03 -0.12735082392E+04  0.14084712224E+04  0.00000000000E+00 0. -1.
<mgrwt>
<rscale>  0 0.46091536E+04</rscale>
<asrwt>0</asrwt>
<pdfrwt beam="1">  1        2 0.59853696E+00 0.46091536E+04</pdfrwt>
<pdfrwt beam="2">  1       -2 0.21002195E+00 0.46091536E+04</pdfrwt>
<totfact> 0.35821315E-02</totfact>
</mgrwt>
</event>
<event>
 6    1  0.1831439E-005  0.8046996E+03  0.7818608E-02  0.9553239E-01
         -2   -1    0    0    0  501 -0.00000000000E+00  0.00000000000E+00  0.52185559830E+02  0.52185559830E+02  0.00000000000E+00 0. -1.
          2   -1    0    0  501    0  0.00000000000E+00 -0.00000000000E+00 -0.31021103817E+04  0.31021103817E+04  0.00000000000E+00 0.  1.
         23    2    1    2    0    0 -0.36048478256E+02 -0.17353108845E+03 -0.29377714220E+04  0.29445558248E+04  0.92171287898E+02 0.  0.
         11    1    3    3    0    0 -0.60079766795E+02 -0.11439749237E+03 -0.15755218198E+04  0.15808116173E+04  0.00000000000E+00 0. -1.
        -11    1    3    3    0    0  0.24031288539E+02 -0.59133596073E+02 -0.13622496022E+04  0.13637442076E+04  0.00000000000E+00 0.  1.
         22    1    1    2    0    0  0.36048478256E+02  0.17353108845E+03 -0.11215339987E+03  0.20974011668E+03  0.00000000000E+00 0. -1.
<mgrwt>
<rscale>  0 0.80469961E+03</rscale>
<asrwt>0</asrwt>
<pdfrwt beam="1">  1        2 0.47724778E+00 0.80469961E+03</pdfrwt>
<pdfrwt beam="2">  1       -2 0.80285471E-02 0.80469961E+03</pdfrwt>
<totfact> 0.15447961E+02</totfact>
</mgrwt>
</event>
<event>
 6    1  0.1831439E-005  0.2653551E+04  0.7818608E-02  0.8350235E-01
          1   -1    0    0  501    0  0.00000000000E+00  0.00000000000E+00  0.19297239378E+04  0.19297239378E+04  0.00000000000E+00 0. -1.
         -1   -1    0    0    0  501 -0.00000000000E+00 -0.00000000000E+00 -0.91222042425E+03  0.91222042425E+03  0.00000000000E+00 0.  1.
         23    2    1    2    0    0 -0.52150475107E+03 -0.67322447865E+03  0.15968136793E+04  0.18119935516E+04  0.91149880131E+02 0.  0.
         13    1    3    3    0    0 -0.21632666363E+02 -0.53506175591E+02  0.76682537371E+02  0.95974447734E+02  0.00000000000E+00 0.  1.
        -13    1    3    3    0    0 -0.49987208471E+03 -0.61971830306E+03  0.15201311419E+04  0.17160191038E+04  0.00000000000E+00 0. -1.
         22    1    1    2    0    0  0.52150475107E+03  0.67322447865E+03 -0.57931016567E+03  0.10299508105E+04  0.00000000000E+00 0.  1.
<mgrwt>
<rscale>  0 0.26535513E+04</rscale>
<asrwt>0</asrwt>
<pdfrwt beam="1">  1        1 0.29688060E+00 0.26535513E+04</pdfrwt>
<pdfrwt beam="2">  1       -1 0.14034160E+00 0.26535513E+04</pdfrwt>
<totfact> 0.12142524E+00</totfact>
</mgrwt>
</event>
<event>
 6    1  0.1831439E-005  0.1372384E+04  0.7818608E-02  0.8974054E-01
         -2   -1    0    0    0  501 -0.00000000000E+00  0.00000000000E+00  0.26368487439E+03  0.26368487439E+03  0.00000000000E+00 0.  1.
          2   -1    0    0  501    0  0.00000000000E+00 -0.00000000000E+00 -0.17856912030E+04  0.17856912030E+04  0.00000000000E+00 0. -1.
         23    2    1    2    0    0 -0.34967843621E+03  0.26606951425E+03  0.17369877079E+02  0.44851783950E+03  0.88309368477E+02 0.  0.
         13    1    3    3    0    0 -0.25236679669E+02  0.55762198818E+02  0.83241370997E+01  0.61770576137E+02  0.00000000000E+00 0. -1.
        -13    1    3    3    0    0 -0.32444175654E+03  0.21030731544E+03  0.90457399791E+01  0.38674726337E+03  0.00000000000E+00 0.  1.
         22    1    1    2    0    0  0.34967843621E+03 -0.26606951425E+03 -0.15393762056E+04  0.16008582378E+04  0.00000000000E+00 0. -1.
<mgrwt>
<rscale>  0 0.13723844E+04</rscale>
<asrwt>0</asrwt>
<pdfrwt beam="1">  1        2 0.27472173E+00 0.13723844E+04</pdfrwt>
<pdfrwt beam="2">  1       -2 0.40566903E-01 0.13723844E+04</pdfrwt>
<totfact> 0.49307642E+01</totfact>
</mgrwt>
</event>
<event>
 6    1  0.1831439E-005  0.1247439E+04  0.7818608E-02  0.9072317E-01
          2   -1    0    0  501    0  0.00000000000E+00  0.00000000000E+00  0.16902057370E+04  0.16902057370E+04  0.00000000000E+00 0. -1.
         -2   -1    0    0    0  501 -0.00000000000E+00 -0.00000000000E+00 -0.23016505298E+03  0.23016505298E+03  0.00000000000E+00 0.  1.
         23    2    1    2    0    0  0.12473066138E+03  0.28517021879E+03 -0.92548635154E+02  0.33688937689E+03  0.89718508785E+02 0.  0.
         13    1    3    3    0    0  0.98225643927E+02  0.19536119861E+03 -0.22238985235E+02  0.21979273762E+03  0.00000000000E+00 0. -1.
        -13    1    3    3    0    0  0.26505017452E+02  0.89809020187E+02 -0.70309649919E+02  0.11709663927E+03  0.00000000000E+00 0.  1.
         22    1    1    2    0    0 -0.12473066138E+03 -0.28517021879E+03  0.15525893192E+04  0.15834814131E+04  0.00000000000E+00 0. -1.
<mgrwt>
<rscale>  0 0.12474394E+04</rscale>
<asrwt>0</asrwt>
<pdfrwt beam="1">  1        2 0.26003164E+00 0.12474394E+04</pdfrwt>
<pdfrwt beam="2">  1       -2 0.35410009E-01 0.12474394E+04</pdfrwt>
<totfact> 0.73168874E+01</totfact>
</mgrwt>
</event>
<event>
 6    1  0.1831439E-005  0.1372901E+04  0.7818608E-02  0.8973671E-01
         -1   -1    0    0    0  501 -0.00000000000E+00  0.00000000000E+00  0.42103314569E+03  0.42103314569E+03  0.00000000000E+00 0.  1.
          1   -1    0    0  501    0  0.00000000000E+00 -0.00000000000E+00 -0.11191858463E+04  0.11191858463E+04  0.00000000000E+00 0. -1.
         23    2    1    2    0    0  0.66853844708E+03 -0.14110771136E+03 -0.36565389641E+03  0.78034367575E+03  0.91533812864E+02 0.  0.
         11    1    3    3    0    0  0.18475408553E+03  0.22327995168E+01 -0.94720809063E+02  0.20763210056E+03  0.00000000000E+00 0.  1.
        -11    1    3    3    0    0  0.48378436155E+03 -0.14334051088E+03 -0.27093308735E+03  0.57271157519E+03  0.00000000000E+00 0. -1.
         22    1    1    2    0    0 -0.66853844708E+03  0.14110771136E+03 -0.33249880421E+03  0.75987531624E+03  0.00000000000E+00 0.  1.
<mgrwt>
<rscale>  0 0.13729011E+04</rscale>
<asrwt>0</asrwt>
<pdfrwt beam="1">  1        1 0.17218244E+00 0.13729011E+04</pdfrwt>
<pdfrwt beam="2">  1       -1 0.64774331E-01 0.13729011E+04</pdfrwt>
<totfact> 0.28961368E+01</totfact>
</mgrwt>
</event>
<event>
 6    1  0.1831439E-005  0.1494056E+04  0.7818608E-02  0.8888415E-01
          2   -1    0    0  501    0  0.00000000000E+00  0.00000000000E+00  0.12846704689E+04  0.12846704689E+04  0.00000000000E+00 0. -1.
         -2   -1    0    0    0  501 -0.00000000000E+00 -0.00000000000E+00 -0.43439219147E+03  0.43439219147E+03  0.00000000000E+00 0.  1.
         23    2    1    2    0    0  0.55397713608E+03 -0.61954524736E+02  0.99394751864E+03  0.11434153019E+04  0.93476480126E+02 0.  0.
         13    1    3    3    0    0  0.22565194901E+03 -0.40016629427E+02  0.32204779989E+03  0.39526562984E+03  0.00000000000E+00 0.  1.
        -13    1    3    3    0    0  0.32832518707E+03 -0.21937895309E+02  0.67189971876E+03  0.74814967205E+03  0.00000000000E+00 0. -1.
         22    1    1    2    0    0 -0.55397713608E+03  0.61954524736E+02 -0.14366924123E+03  0.57564735847E+03  0.00000000000E+00 0.  1.
<mgrwt>
<rscale>  0 0.14940560E+04</rscale>
<asrwt>0</asrwt>
<pdfrwt beam="1">  1        2 0.19764161E+00 0.14940560E+04</pdfrwt>
<pdfrwt beam="2">  1       -2 0.66829569E-01 0.14940560E+04</pdfrwt>
<totfact> 0.33542526E+01</totfact>
</mgrwt>
</event>
<event>
 6    1  0.1831439E-005  0.1896223E+04  0.7818608E-02  0.8656739E-01
         -1   -1    0    0    0  501 -0.00000000000E+00  0.00000000000E+00  0.36786085157E+03  0.36786085157E+03  0.00000000000E+00 0.  1.
          1   -1    0    0  501    0  0.00000000000E+00 -0.00000000000E+00 -0.24436289280E+04  0.24436289280E+04  0.00000000000E+00 0. -1.
         23    2    1    2    0    0 -0.21703955035E+03 -0.30422188844E+03 -0.23286823604E+04  0.23602439941E+04  0.91285553040E+02 0.  0.
         11    1    3    3    0    0 -0.14279689071E+03 -0.12286452798E+03 -0.10910485232E+04  0.11071917287E+04  0.00000000000E+00 0. -1.
        -11    1    3    3    0    0 -0.74242659641E+02 -0.18135736047E+03 -0.12376338372E+04  0.12530522654E+04  0.00000000000E+00 0.  1.
         22    1    1    2    0    0  0.21703955035E+03  0.30422188844E+03  0.25291428400E+03  0.45124578544E+03  0.00000000000E+00 0.  1.
<mgrwt>
<rscale>  0 0.18962230E+04</rscale>
<asrwt>0</asrwt>
<pdfrwt beam="1">  1        1 0.37594290E+00 0.18962230E+04</pdfrwt>
<pdfrwt beam="2">  1       -1 0.56593978E-01 0.18962230E+04</pdfrwt>
<totfact> 0.43866180E+00</totfact>
</mgrwt>
</event>
<event>
 6    1  0.1831439E-005  0.2057520E+04  0.7818608E-02  0.8580190E-01
          2   -1    0    0  501    0  0.00000000000E+00  0.00000000000E+00  0.15090779200E+04  0.15090779200E+04  0.00000000000E+00 0. -1.
         -2   -1    0    0    0  501 -0.00000000000E+00 -0.00000000000E+00 -0.70132060092E+03  0.70132060092E+03  0.00000000000E+00 0.  1.
         23    2    1    2    0    0  0.22306993656E+03  0.92838718476E+03 -0.13143495171E+01  0.95889545407E+03  0.88407029721E+02 0.  0.
         13    1    3    3    0    0  0.47389363605E+02  0.14366754241E+03  0.29628826981E+02  0.15415570672E+03  0.00000000000E+00 0. -1.
        -13    1    3    3    0    0  0.17568057295E+03  0.78471964235E+03 -0.30943176498E+02  0.80473974735E+03  0.00000000000E+00 0.  1.
         22    1    1    2    0    0 -0.22306993656E+03 -0.92838718476E+03  0.80907166859E+03  0.12515030669E+04  0.00000000000E+00 0. -1.
<mgrwt>
<rscale>  0 0.20575203E+04</rscale>
<asrwt>0</asrwt>
<pdfrwt beam="1">  1        2 0.23216583E+00 0.20575203E+04</pdfrwt>
<pdfrwt beam="2">  1       -2 0.10789548E+00 0.20575203E+04</pdfrwt>
<totfact> 0.79876344E+00</totfact>
</mgrwt>
</event>
<event>
 6    1  0.1831439E-005  0.3198755E+04  0.7818608E-02  0.8189146E-01
         -2   -1    0    0    0  501 -0.00000000000E+00  0.00000000000E+00  0.43919976710E+04  0.43919976710E+04  0.00000000000E+00 0.  1.
          2   -1    0    0  501    0  0.00000000000E+00 -0.00000000000E+00 -0.58242480009E+03  0.58242480009E+03  0.00000000000E+00 0. -1.
         23    2    1    2    0    0 -0.31392176762E+03  0.15313015749E+04  0.24234330728E+04  0.28852085209E+04  0.89269039255E+02 0.  0.
         11    1    3    3    0    0 -0.13887100802E+03  0.88178499927E+03  0.13517323529E+04  0.16198797164E+04  0.00000000000E+00 0. -1.
        -11    1    3    3    0    0 -0.17505075959E+03  0.64951657567E+03  0.10717007199E+04  0.12653288045E+04  0.00000000000E+00 0.  1.
         22    1    1    2    0    0  0.31392176762E+03 -0.15313015749E+04  0.13861397982E+04  0.20892139502E+04  0.00000000000E+00 0.  1.
<mgrwt>
<rscale>  0 0.31987550E+04</rscale>
<asrwt>0</asrwt>
<pdfrwt beam="1">  1        2 0.89603818E-01 0.31987550E+04</pdfrwt>
<pdfrwt beam="2">  1       -2 0.67569193E+00 0.31987550E+04</pdfrwt>
<totfact> 0.11842300E-02</totfact>
</mgrwt>
</event>
<event>
 6    1  0.1831439E-005  0.1090985E+04  0.7818608E-02  0.9214023E-01
         -1   -1    0    0    0  501 -0.00000000000E+00  0.00000000000E+00  0.50147203950E+03  0.50147203950E+03  0.00000000000E+00 0.  1.
          1   -1    0    0  501    0  0.00000000000E+00 -0.00000000000E+00 -0.59337740408E+03  0.59337740408E+03  0.00000000000E+00 0. -1.
         23    2    1    2    0    0 -0.15067430335E+03 -0.47356939956E+03  0.17129491188E+03  0.53249269967E+03  0.85063543793E+02 0.  0.
         13    1    3    3    0    0 -0.11256096106E+03 -0.39245368809E+03  0.17158894367E+03  0.44286864062E+03  0.00000000000E+00 0.  1.
        -13    1    3    3    0    0 -0.38113342292E+02 -0.81115711465E+02 -0.29403179079E+00  0.89624059057E+02  0.00000000000E+00 0. -1.
         22    1    1    2    0    0  0.15067430335E+03  0.47356939956E+03 -0.26320027647E+03  0.56235674391E+03  0.00000000000E+00 0.  1.
<mgrwt>
<rscale>  0 0.10909852E+04</rscale>
<asrwt>0</asrwt>
<pdfrwt beam="1">  1        1 0.91288832E-01 0.10909852E+04</pdfrwt>
<pdfrwt beam="2">  1       -1 0.77149544E-01 0.10909852E+04</pdfrwt>
<totfact> 0.58492012E+01</totfact>
</mgrwt>
</event>
<event>
 6    1  0.1838113E-005  0.2221881E+04  0.7818608E-02  0.8509376E-01
         -1   -1    0    0    0  501 -0.00000000000E+00  0.00000000000E+00  0.10097224246E+04  0.10097224246E+04  0.00000000000E+00 0.  1.
          1   -1    0    0  501    0  0.00000000000E+00 -0.00000000000E+00 -0.12223049217E+04  0.12223049217E+04  0.00000000000E+00 0. -1.
         23    2    1    2    0    0  0.56508437001E+03  0.94045917258E+03 -0.26927027192E+03  0.11333930558E+04  0.91046906180E+02 0.  0.
         11    1    3    3    0    0  0.17776608375E+03  0.29993954422E+03 -0.42292113792E+02  0.35121664768E+03  0.00000000000E+00 0. -1.
        -11    1    3    3    0    0  0.38731828626E+03  0.64051962836E+03 -0.22697815813E+03  0.78217640814E+03  0.00000000000E+00 0.  1.
         22    1    1    2    0    0 -0.56508437001E+03 -0.94045917258E+03  0.56687774851E+02  0.10986342905E+04  0.00000000000E+00 0. -1.
<mgrwt>
<rscale>  0 0.22218809E+04</rscale>
<asrwt>0</asrwt>
<pdfrwt beam="1">  1        1 0.18804691E+00 0.22218809E+04</pdfrwt>
<pdfrwt beam="2">  1       -1 0.15534191E+00 0.22218809E+04</pdfrwt>
<totfact> 0.29710800E+00</totfact>
</mgrwt>
</event>
<event>
 6    1  0.1831439E-005  0.2796851E+04  0.7818608E-02  0.8304247E-01
         -2   -1    0    0    0  501 -0.00000000000E+00  0.00000000000E+00  0.10058004212E+04  0.10058004212E+04  0.00000000000E+00 0.  1.
          2   -1    0    0  501    0  0.00000000000E+00 -0.00000000000E+00 -0.19443159469E+04  0.19443159469E+04  0.00000000000E+00 0. -1.
         23    2    1    2    0    0  0.48820016673E+03  0.97545796033E+03 -0.13902935854E+04  0.17694550914E+04  0.90539669302E+02 0.  0.
         13    1    3    3    0    0  0.21136651342E+03  0.52123957010E+03 -0.72969258859E+03  0.92131306638E+03  0.00000000000E+00 0.  1.
        -13    1    3    3    0    0  0.27683365330E+03  0.45421839024E+03 -0.66060099681E+03  0.84814202503E+03  0.00000000000E+00 0. -1.
         22    1    1    2    0    0 -0.48820016673E+03 -0.97545796033E+03  0.45177805969E+03  0.11806612767E+04  0.00000000000E+00 0.  1.
<mgrwt>
<rscale>  0 0.27968509E+04</rscale>
<asrwt>0</asrwt>
<pdfrwt beam="1">  1        2 0.29912553E+00 0.27968509E+04</pdfrwt>
<pdfrwt beam="2">  1       -2 0.15473853E+00 0.27968509E+04</pdfrwt>
<totfact> 0.17223525E+00</totfact>
</mgrwt>
</event>
<event>
 6    1  0.1831439E-005  0.1460329E+04  0.7818608E-02  0.8911271E-01
          1   -1    0    0  501    0  0.00000000000E+00  0.00000000000E+00  0.72224692035E+03  0.72224692035E+03  0.00000000000E+00 0. -1.
         -1   -1    0    0    0  501 -0.00000000000E+00 -0.00000000000E+00 -0.73816879379E+03  0.73816879379E+03  0.00000000000E+00 0.  1.
         23    2    1    2    0    0 -0.45629616058E+03  0.54175924296E+03 -0.17360117748E+03  0.73476288638E+03  0.89609524547E+02 0.  0.
         13    1    3    3    0    0 -0.34088056410E+03  0.42298379780E+03 -0.16958449010E+03  0.56909906999E+03  0.00000000000E+00 0.  1.
        -13    1    3    3    0    0 -0.11541559648E+03  0.11877544516E+03 -0.40166873813E+01  0.16566381639E+03  0.00000000000E+00 0. -1.
         22    1    1    2    0    0  0.45629616058E+03 -0.54175924296E+03  0.15767930404E+03  0.72565282775E+03  0.00000000000E+00 0.  1.
<mgrwt>
<rscale>  0 0.14603289E+04</rscale>
<asrwt>0</asrwt>
<pdfrwt beam="1">  1        1 0.11111491E+00 0.14603289E+04</pdfrwt>
<pdfrwt beam="2">  1       -1 0.11356443E+00 0.14603289E+04</pdfrwt>
<totfact> 0.17833659E+01</totfact>
</mgrwt>
</event>
<event>
 6    1  0.1831439E-005  0.1333122E+04  0.7818608E-02  0.9003704E-01
         -2   -1    0    0    0  501 -0.00000000000E+00  0.00000000000E+00  0.17184917938E+03  0.17184917938E+03  0.00000000000E+00 0.  1.
          2   -1    0    0  501    0  0.00000000000E+00 -0.00000000000E+00 -0.25854267431E+04  0.25854267431E+04  0.00000000000E+00 0. -1.
         23    2    1    2    0    0  0.36254844173E+02  0.34390229025E+02 -0.25807104087E+04  0.25828325521E+04  0.91981937091E+02 0.  0.
         11    1    3    3    0    0 -0.28614515235E+02 -0.28484205783E+01 -0.89851623903E+03  0.89897627098E+03  0.00000000000E+00 0. -1.
        -11    1    3    3    0    0  0.64869359408E+02  0.37238649603E+02 -0.16821941697E+04  0.16838562811E+04  0.00000000000E+00 0.  1.
         22    1    1    2    0    0 -0.36254844173E+02 -0.34390229025E+02  0.16713284503E+03  0.17444337037E+03  0.00000000000E+00 0.  1.
<mgrwt>
<rscale>  0 0.13331218E+04</rscale>
<asrwt>0</asrwt>
<pdfrwt beam="1">  1        2 0.39775795E+00 0.13331218E+04</pdfrwt>
<pdfrwt beam="2">  1       -2 0.26438336E-01 0.13331218E+04</pdfrwt>
<totfact> 0.39529481E+01</totfact>
</mgrwt>
</event>
<event>
 6    1  0.1831439E-005  0.2438274E+04  0.7818608E-02  0.8425312E-01
          1   -1    0    0  501    0  0.00000000000E+00  0.00000000000E+00  0.26568452122E+04  0.26568452122E+04  0.00000000000E+00 0. -1.
         -1   -1    0    0    0  501 -0.00000000000E+00 -0.00000000000E+00 -0.55942095880E+03  0.55942095880E+03  0.00000000000E+00 0.  1.
         23    2    1    2    0    0  0.45579693876E+03 -0.10202455230E+04  0.41310254798E+03  0.11949815834E+04  0.93142326246E+02 0.  0.
         13    1    3    3    0    0  0.90712483497E+02 -0.28935480044E+03  0.13515574067E+03  0.33199703228E+03  0.00000000000E+00 0.  1.
        -13    1    3    3    0    0  0.36508445526E+03 -0.73089072257E+03  0.27794680731E+03  0.86298455114E+03  0.00000000000E+00 0. -1.
         22    1    1    2    0    0 -0.45579693876E+03  0.10202455230E+04  0.16843217054E+04  0.20212845876E+04  0.00000000000E+00 0.  1.
<mgrwt>
<rscale>  0 0.24382739E+04</rscale>
<asrwt>0</asrwt>
<pdfrwt beam="1">  1        1 0.40874541E+00 0.24382739E+04</pdfrwt>
<pdfrwt beam="2">  1       -1 0.86064765E-01 0.24382739E+04</pdfrwt>
<totfact> 0.12524815E+00</totfact>
</mgrwt>
</event>
<event>
 6    1  0.1831439E-005  0.1819522E+04  0.7818608E-02  0.8695987E-01
          3   -1    0    0  501    0  0.00000000000E+00  0.00000000000E+00  0.27893193763E+03  0.27893193763E+03  0.00000000000E+00 0. -1.
         -3   -1    0    0    0  501 -0.00000000000E+00 -0.00000000000E+00 -0.29672637961E+04  0.29672637961E+04  0.00000000000E+00 0.  1.
         23    2    1    2    0    0 -0.49237338879E+03  0.75646393013E+03 -0.15176016459E+04  0.17679269956E+04  0.88214933564E+02 0.  0.
         11    1    3    3    0    0 -0.21310818131E+03  0.25858366112E+03 -0.60088587067E+03  0.68800031708E+03  0.00000000000E+00 0. -1.
        -11    1    3    3    0    0 -0.27926520748E+03  0.49788026901E+03 -0.91671577523E+03  0.10799266785E+04  0.00000000000E+00 0.  1.
         22    1    1    2    0    0  0.49237338879E+03 -0.75646393013E+03 -0.11707302126E+04  0.14782687382E+04  0.00000000000E+00 0. -1.
<mgrwt>
<rscale>  0 0.18195215E+04</rscale>
<asrwt>0</asrwt>
<pdfrwt beam="1">  1        3 0.42912607E-01 0.18195215E+04</pdfrwt>
<pdfrwt beam="2">  1       -3 0.45650211E+00 0.18195215E+04</pdfrwt>
<totfact> 0.69639766E-02</totfact>
</mgrwt>
</event>
<event>
 6    1  0.1831439E-005  0.1826023E+04  0.7818608E-02  0.8692582E-01
         -2   -1    0    0    0  501 -0.00000000000E+00  0.00000000000E+00  0.26458569889E+03  0.26458569889E+03  0.00000000000E+00 0.  1.
          2   -1    0    0  501    0  0.00000000000E+00 -0.00000000000E+00 -0.31505482194E+04  0.31505482194E+04  0.00000000000E+00 0. -1.
         23    2    1    2    0    0 -0.31786950669E+03  0.71479058859E+03 -0.57709999225E+03  0.97734541574E+03  0.10096064473E+03 0.  0.
         13    1    3    3    0    0 -0.31365541002E+03  0.68312269425E+03 -0.52735862001E+03  0.91822842786E+03  0.00000000000E+00 0. -1.
        -13    1    3    3    0    0 -0.42140966676E+01  0.31667894335E+02 -0.49741372244E+02  0.59116987872E+02  0.00000000000E+00 0.  1.
         22    1    1    2    0    0  0.31786950669E+03 -0.71479058859E+03 -0.23088625283E+04  0.24377885026E+04  0.00000000000E+00 0. -1.
<mgrwt>
<rscale>  0 0.18260230E+04</rscale>
<asrwt>0</asrwt>
<pdfrwt beam="1">  1        2 0.48469974E+00 0.18260230E+04</pdfrwt>
<pdfrwt beam="2">  1       -2 0.40705491E-01 0.18260230E+04</pdfrwt>
<totfact> 0.75531319E+00</totfact>
</mgrwt>
</event>
<event>
 6    1  0.1831439E-005  0.5095805E+04  0.7818608E-02  0.7813896E-01
         -2   -1    0    0    0  501 -0.00000000000E+00  0.00000000000E+00  0.22858992125E+04  0.22858992125E+04  0.00000000000E+00 0.  1.
          2   -1    0    0  501    0  0.00000000000E+00 -0.00000000000E+00 -0.28399354171E+04  0.28399354171E+04  0.00000000000E+00 0. -1.
         23    2    1    2    0    0  0.90899813799E+03  0.18329456362E+04 -0.18031679986E+04  0.27286910047E+04  0.91501080489E+02 0.  0.
         13    1    3    3    0    0  0.37588137024E+03  0.66945443738E+03 -0.70340033247E+03  0.10412627315E+04  0.00000000000E+00 0.  1.
        -13    1    3    3    0    0  0.53311676775E+03  0.11634911988E+04 -0.10997676661E+04  0.16874282732E+04  0.00000000000E+00 0. -1.
         22    1    1    2    0    0 -0.90899813799E+03 -0.18329456362E+04  0.12491317940E+04  0.23971436250E+04  0.00000000000E+00 0. -1.
<mgrwt>
<rscale>  0 0.50958046E+04</rscale>
<asrwt>0</asrwt>
<pdfrwt beam="1">  1        2 0.43691314E+00 0.50958046E+04</pdfrwt>
<pdfrwt beam="2">  1       -2 0.35167680E+00 0.50958046E+04</pdfrwt>
<totfact> 0.23986909E-02</totfact>
</mgrwt>
</event>
<event>
 6    1  0.1831439E-005  0.6310869E+03  0.7818608E-02  0.9842930E-01
         -1   -1    0    0    0  501 -0.00000000000E+00  0.00000000000E+00  0.17346316211E+03  0.17346316211E+03  0.00000000000E+00 0.  1.
          1   -1    0    0  501    0  0.00000000000E+00 -0.00000000000E+00 -0.57399887371E+03  0.57399887371E+03  0.00000000000E+00 0. -1.
         23    2    1    2    0    0  0.17070572036E+03  0.16296133055E+03 -0.44450580088E+03  0.50739911289E+03  0.64588037046E+02 0.  0.
         11    1    3    3    0    0  0.10167960708E+03  0.95908318180E+02 -0.32627959950E+03  0.35495848355E+03  0.00000000000E+00 0. -1.
        -11    1    3    3    0    0  0.69026113279E+02  0.67053012365E+02 -0.11822620137E+03  0.15244062934E+03  0.00000000000E+00 0.  1.
         22    1    1    2    0    0 -0.17070572036E+03 -0.16296133055E+03  0.43970089275E+02  0.24006292293E+03  0.00000000000E+00 0.  1.
<mgrwt>
<rscale>  0 0.63108687E+03</rscale>
<asrwt>0</asrwt>
<pdfrwt beam="1">  1        1 0.88307519E-01 0.63108687E+03</pdfrwt>
<pdfrwt beam="2">  1       -1 0.26686640E-01 0.63108687E+03</pdfrwt>
<totfact> 0.46172378E+02</totfact>
</mgrwt>
</event>
<event>
 6    1  0.1831439E-005  0.3100573E+04  0.7818608E-02  0.8215581E-01
          2   -1    0    0  501    0  0.00000000000E+00  0.00000000000E+00  0.24672817673E+04  0.24672817673E+04  0.00000000000E+00 0. -1.
         -2   -1    0    0    0  501 -0.00000000000E+00 -0.00000000000E+00 -0.97410362782E+03  0.97410362782E+03  0.00000000000E+00 0.  1.
         23    2    1    2    0    0 -0.10776031664E+04  0.10638714770E+04  0.38411573815E+03  0.15644009748E+04  0.82185191587E+02 0.  0.
         13    1    3    3    0    0 -0.14227453055E+03  0.16675410178E+03  0.78545152374E+02  0.23284826275E+03  0.00000000000E+00 0.  1.
        -13    1    3    3    0    0 -0.93532863589E+03  0.89711737526E+03  0.30557058578E+03  0.13315527121E+04  0.00000000000E+00 0. -1.
         22    1    1    2    0    0  0.10776031664E+04 -0.10638714770E+04  0.11090624013E+04  0.18769844203E+04  0.00000000000E+00 0. -1.
<mgrwt>
<rscale>  0 0.31005729E+04</rscale>
<asrwt>0</asrwt>
<pdfrwt beam="1">  1        2 0.37958181E+00 0.31005729E+04</pdfrwt>
<pdfrwt beam="2">  1       -2 0.14986210E+00 0.31005729E+04</pdfrwt>
<totfact> 0.92705952E-01</totfact>
</mgrwt>
</event>
<event>
 6    1  0.1831439E-005  0.3114507E+04  0.7818608E-02  0.8211768E-01
         -2   -1    0    0    0  501 -0.00000000000E+00  0.00000000000E+00  0.75880519098E+03  0.75880519098E+03  0.00000000000E+00 0. -1.
          2   -1    0    0  501    0  0.00000000000E+00 -0.00000000000E+00 -0.31958651954E+04  0.31958651954E+04  0.00000000000E+00 0.  1.
         23    2    1    2    0    0  0.47242609417E+03  0.81464229898E+03  0.35308638823E+03  0.10098876470E+04  0.91512689109E+02 0.  0.
         13    1    3    3    0    0  0.19598040710E+03  0.31219492986E+03  0.92839336350E+02  0.38012252837E+03  0.00000000000E+00 0. -1.
        -13    1    3    3    0    0  0.27644568708E+03  0.50244736911E+03  0.26024705188E+03  0.62976511863E+03  0.00000000000E+00 0.  1.
         22    1    1    2    0    0 -0.47242609417E+03 -0.81464229898E+03 -0.27901463926E+04  0.29447827394E+04  0.00000000000E+00 0.  1.
<mgrwt>
<rscale>  0 0.31145074E+04</rscale>
<asrwt>0</asrwt>
<pdfrwt beam="1">  1        2 0.49167158E+00 0.31145074E+04</pdfrwt>
<pdfrwt beam="2">  1       -2 0.11673926E+00 0.31145074E+04</pdfrwt>
<totfact> 0.62838670E-01</totfact>
</mgrwt>
</event>
<event>
 6    1  0.1831439E-005  0.9254074E+03  0.7818608E-02  0.9394367E-01
          2   -1    0    0  501    0  0.00000000000E+00  0.00000000000E+00  0.28373868549E+04  0.28373868549E+04  0.00000000000E+00 0. -1.
         -2   -1    0    0    0  501 -0.00000000000E+00 -0.00000000000E+00 -0.75454896043E+02  0.75454896043E+02  0.00000000000E+00 0.  1.
         23    2    1    2    0    0  0.41090229931E+03  0.88836453390E+02  0.19681984005E+04  0.20146515836E+04  0.91013430816E+02 0.  0.
         13    1    3    3    0    0  0.40185343749E+03  0.69576260039E+02  0.18359314661E+04  0.18806837558E+04  0.00000000000E+00 0. -1.
        -13    1    3    3    0    0  0.90488618233E+01  0.19260193351E+02  0.13226693439E+03  0.13396782779E+03  0.00000000000E+00 0.  1.
         22    1    1    2    0    0 -0.41090229931E+03 -0.88836453390E+02  0.79373355839E+03  0.89819016736E+03  0.00000000000E+00 0.  1.
<mgrwt>
<rscale>  0 0.92540743E+03</rscale>
<asrwt>0</asrwt>
<pdfrwt beam="1">  1        2 0.43652097E+00 0.92540743E+03</pdfrwt>
<pdfrwt beam="2">  1       -2 0.11608448E-01 0.92540743E+03</pdfrwt>
<totfact> 0.12145866E+02</totfact>
</mgrwt>
</event>
<event>
 6    1  0.1831439E-005  0.5902346E+04  0.7818608E-02  0.7702629E-01
         -1   -1    0    0    0  501 -0.00000000000E+00  0.00000000000E+00  0.40167351819E+04  0.40167351819E+04  0.00000000000E+00 0.  1.
          1   -1    0    0  501    0  0.00000000000E+00 -0.00000000000E+00 -0.21682838121E+04  0.21682838121E+04  0.00000000000E+00 0. -1.
         23    2    1    2    0    0 -0.20032880901E+04 -0.37239915629E+03  0.31604451407E+04  0.37615561908E+04  0.95116693090E+02 0.  0.
         11    1    3    3    0    0 -0.10071848561E+04 -0.13925241917E+03  0.15865687081E+04  0.18844131278E+04  0.00000000000E+00 0.  1.
        -11    1    3    3    0    0 -0.99610323409E+03 -0.23314673712E+03  0.15738764326E+04  0.18771430631E+04  0.00000000000E+00 0. -1.
         22    1    1    2    0    0  0.20032880901E+04  0.37239915629E+03 -0.13119937709E+04  0.24234628032E+04  0.00000000000E+00 0. -1.
<mgrwt>
<rscale>  0 0.59023459E+04</rscale>
<asrwt>0</asrwt>
<pdfrwt beam="1">  1        1 0.33358213E+00 0.59023459E+04</pdfrwt>
<pdfrwt beam="2">  1       -1 0.61795926E+00 0.59023459E+04</pdfrwt>
<totfact> 0.59282040E-04</totfact>
</mgrwt>
</event>
<event>
 6    1  0.1831439E-005  0.1571682E+04  0.7818608E-02  0.8838136E-01
          1   -1    0    0  501    0  0.00000000000E+00  0.00000000000E+00  0.76076283924E+03  0.76076283924E+03  0.00000000000E+00 0. -1.
         -1   -1    0    0    0  501 -0.00000000000E+00 -0.00000000000E+00 -0.81174570873E+03  0.81174570873E+03  0.00000000000E+00 0.  1.
         23    2    1    2    0    0  0.55845778229E+03 -0.46733087291E+03 -0.31422126193E+03  0.79819098351E+03  0.90003362931E+02 0.  0.
         13    1    3    3    0    0  0.32094202882E+03 -0.29234352434E+03 -0.23049380895E+03  0.49152407677E+03  0.00000000000E+00 0.  1.
        -13    1    3    3    0    0  0.23751575347E+03 -0.17498734857E+03 -0.83727452983E+02  0.30666690674E+03  0.00000000000E+00 0. -1.
         22    1    1    2    0    0 -0.55845778229E+03  0.46733087291E+03  0.26323839244E+03  0.77431756445E+03  0.00000000000E+00 0. -1.
<mgrwt>
<rscale>  0 0.15716819E+04</rscale>
<asrwt>0</asrwt>
<pdfrwt beam="1">  1        1 0.11704044E+00 0.15716819E+04</pdfrwt>
<pdfrwt beam="2">  1       -1 0.12488395E+00 0.15716819E+04</pdfrwt>
<totfact> 0.12924393E+01</totfact>
</mgrwt>
</event>
<event>
 6    1  0.1831439E-005  0.1161840E+04  0.7818608E-02  0.9146929E-01
         -1   -1    0    0    0  501 -0.00000000000E+00  0.00000000000E+00  0.27231541047E+03  0.27231541047E+03  0.00000000000E+00 0.  1.
          1   -1    0    0  501    0  0.00000000000E+00 -0.00000000000E+00 -0.12392547700E+04  0.12392547700E+04  0.00000000000E+00 0. -1.
         23    2    1    2    0    0 -0.21141869870E+03 -0.49663259244E+03 -0.21955718589E+03  0.58965808514E+03  0.90274589225E+02 0.  0.
         11    1    3    3    0    0 -0.83243293235E+02 -0.26655426641E+03 -0.74659802554E+02  0.28905831406E+03  0.00000000000E+00 0.  1.
        -11    1    3    3    0    0 -0.12817540547E+03 -0.23007832604E+03 -0.14489738334E+03  0.30059977108E+03  0.00000000000E+00 0. -1.
         22    1    1    2    0    0  0.21141869870E+03  0.49663259244E+03 -0.74738217365E+03  0.92191209533E+03  0.00000000000E+00 0. -1.
<mgrwt>
<rscale>  0 0.11618402E+04</rscale>
<asrwt>0</asrwt>
<pdfrwt beam="1">  1        1 0.19065459E+00 0.11618402E+04</pdfrwt>
<pdfrwt beam="2">  1       -1 0.41894677E-01 0.11618402E+04</pdfrwt>
<totfact> 0.55505199E+01</totfact>
</mgrwt>
</event>
<event>
 6    1  0.1831439E-005  0.5105405E+04  0.7818608E-02  0.7812450E-01
         -1   -1    0    0    0  501 -0.00000000000E+00  0.00000000000E+00  0.34895255095E+04  0.34895255095E+04  0.00000000000E+00 0.  1.
          1   -1    0    0  501    0  0.00000000000E+00 -0.00000000000E+00 -0.18673857553E+04  0.18673857553E+04  0.00000000000E+00 0. -1.
         23    2    1    2    0    0 -0.17051172947E+04  0.18642724335E+04  0.11882760519E+04  0.27934810615E+04  0.92734948345E+02 0.  0.
         11    1    3    3    0    0 -0.13051673629E+04  0.14827997394E+04  0.93625098370E+03  0.21860290064E+04  0.00000000000E+00 0.  1.
        -11    1    3    3    0    0 -0.39994993178E+03  0.38147269415E+03  0.25202506817E+03  0.60745205515E+03  0.00000000000E+00 0. -1.
         22    1    1    2    0    0  0.17051172947E+04 -0.18642724335E+04  0.43386370235E+03  0.25634302033E+04  0.00000000000E+00 0.  1.
<mgrwt>
<rscale>  0 0.51054051E+04</rscale>
<asrwt>0</asrwt>
<pdfrwt beam="1">  1        1 0.28729012E+00 0.51054051E+04</pdfrwt>
<pdfrwt beam="2">  1       -1 0.53685008E+00 0.51054051E+04</pdfrwt>
<totfact> 0.23518899E-03</totfact>
</mgrwt>
</event>
<event>
 6    1  0.1831439E-005  0.5613574E+03  0.7818608E-02  0.9988988E-01
          1   -1    0    0  501    0  0.00000000000E+00  0.00000000000E+00  0.14167599756E+03  0.14167599756E+03  0.00000000000E+00 0. -1.
         -1   -1    0    0    0  501 -0.00000000000E+00 -0.00000000000E+00 -0.55606132359E+03  0.55606132359E+03  0.00000000000E+00 0.  1.
         23    2    1    2    0    0  0.26217766359E+03  0.68661823204E+02 -0.16844482013E+03  0.33176149449E+03  0.90776971458E+02 0.  0.
         13    1    3    3    0    0  0.67776736312E+02  0.28006385358E+02 -0.32075368247E+01  0.73405257975E+02  0.00000000000E+00 0.  1.
        -13    1    3    3    0    0  0.19440092728E+03  0.40655437846E+02 -0.16523728330E+03  0.25835623652E+03  0.00000000000E+00 0. -1.
         22    1    1    2    0    0 -0.26217766359E+03 -0.68661823204E+02 -0.24594050590E+03  0.36597582666E+03  0.00000000000E+00 0.  1.
<mgrwt>
<rscale>  0 0.56135744E+03</rscale>
<asrwt>0</asrwt>
<pdfrwt beam="1">  1        1 0.21796307E-01 0.56135744E+03</pdfrwt>
<pdfrwt beam="2">  1       -1 0.85547897E-01 0.56135744E+03</pdfrwt>
<totfact> 0.32098280E+02</totfact>
</mgrwt>
</event>
<event>
 6    1  0.1831439E-005  0.1869915E+04  0.7818608E-02  0.8669978E-01
          2   -1    0    0  501    0  0.00000000000E+00  0.00000000000E+00  0.10240549489E+04  0.10240549489E+04  0.00000000000E+00 0. -1.
         -2   -1    0    0    0  501 -0.00000000000E+00 -0.00000000000E+00 -0.85361152404E+03  0.85361152404E+03  0.00000000000E+00 0.  1.
         23    2    1    2    0    0  0.92682083814E+03 -0.88520577733E+02  0.14061948644E+03  0.94615038287E+03  0.92703550851E+02 0.  0.
         11    1    3    3    0    0  0.38711521405E+03 -0.49953123094E+02  0.10340802807E+03  0.40379044531E+03  0.00000000000E+00 0.  1.
        -11    1    3    3    0    0  0.53970562409E+03 -0.38567454639E+02  0.37211458376E+02  0.54235993756E+03  0.00000000000E+00 0. -1.
         22    1    1    2    0    0 -0.92682083814E+03  0.88520577733E+02  0.29823938381E+02  0.93151609003E+03  0.00000000000E+00 0.  1.
<mgrwt>
<rscale>  0 0.18699145E+04</rscale>
<asrwt>0</asrwt>
<pdfrwt beam="1">  1        2 0.15754692E+00 0.18699145E+04</pdfrwt>
<pdfrwt beam="2">  1       -2 0.13132485E+00 0.18699145E+04</pdfrwt>
<totfact> 0.96607051E+00</totfact>
</mgrwt>
</event>
<event>
 6    1  0.1831439E-005  0.4778555E+04  0.7818608E-02  0.7863606E-01
          1   -1    0    0  501    0  0.00000000000E+00  0.00000000000E+00  0.23920352566E+04  0.23920352566E+04  0.00000000000E+00 0. -1.
         -1   -1    0    0    0  501 -0.00000000000E+00 -0.00000000000E+00 -0.23865225698E+04  0.23865225698E+04  0.00000000000E+00 0.  1.
         23    2    1    2    0    0  0.38212483938E+03 -0.93687632758E+03  0.21662818535E+04  0.23926240390E+04  0.90089273117E+02 0.  0.
         11    1    3    3    0    0  0.24798699211E+03 -0.64227240190E+03  0.13765072489E+04  0.15390853104E+04  0.00000000000E+00 0. -1.
        -11    1    3    3    0    0  0.13413784727E+03 -0.29460392568E+03  0.78977460460E+03  0.85353872857E+03  0.00000000000E+00 0.  1.
         22    1    1    2    0    0 -0.38212483938E+03  0.93687632758E+03 -0.21607691667E+04  0.23859337874E+04  0.00000000000E+00 0.  1.
<mgrwt>
<rscale>  0 0.47785546E+04</rscale>
<asrwt>0</asrwt>
<pdfrwt beam="1">  1        1 0.36800543E+00 0.47785546E+04</pdfrwt>
<pdfrwt beam="2">  1       -1 0.36715732E+00 0.47785546E+04</pdfrwt>
<totfact> 0.14114366E-02</totfact>
</mgrwt>
</event>
<event>
 6    1  0.1831439E-005  0.1708409E+04  0.7818608E-02  0.8756583E-01
         -1   -1    0    0    0  501 -0.00000000000E+00  0.00000000000E+00  0.50481200579E+03  0.50481200579E+03  0.00000000000E+00 0.  1.
          1   -1    0    0  501    0  0.00000000000E+00 -0.00000000000E+00 -0.14454206559E+04  0.14454206559E+04  0.00000000000E+00 0. -1.
         23    2    1    2    0    0  0.32851794889E+03 -0.72533492446E+03 -0.81730214305E+03  0.11444787973E+04  0.88397562299E+02 0.  0.
         11    1    3    3    0    0  0.48973239075E+02 -0.77297445838E+02 -0.13300673283E+03  0.16144368757E+03  0.00000000000E+00 0. -1.
        -11    1    3    3    0    0  0.27954470982E+03 -0.64803747862E+03 -0.68429541022E+03  0.98303510971E+03  0.00000000000E+00 0.  1.
         22    1    1    2    0    0 -0.32851794889E+03  0.72533492446E+03 -0.12330650711E+03  0.80575386445E+03  0.00000000000E+00 0.  1.
<mgrwt>
<rscale>  0 0.17084094E+04</rscale>
<asrwt>0</asrwt>
<pdfrwt beam="1">  1        1 0.22237241E+00 0.17084094E+04</pdfrwt>
<pdfrwt beam="2">  1       -1 0.77663386E-01 0.17084094E+04</pdfrwt>
<totfact> 0.11279062E+01</totfact>
</mgrwt>
</event>
<event>
 6    1  0.1831439E-005  0.2479127E+04  0.7818608E-02  0.8410460E-01
          2   -1    0    0  501    0  0.00000000000E+00  0.00000000000E+00  0.22680926639E+04  0.22680926639E+04  0.00000000000E+00 0. -1.
         -2   -1    0    0    0  501 -0.00000000000E+00 -0.00000000000E+00 -0.67744934476E+03  0.67744934476E+03  0.00000000000E+00 0.  1.
         23    2    1    2    0    0 -0.11204397325E+04  0.26062902245E+03  0.25432677857E+03  0.11822908700E+04  0.99080318563E+02 0.  0.
         11    1    3    3    0    0 -0.80075141198E+03  0.15050078346E+03  0.15024664150E+03  0.82850912058E+03  0.00000000000E+00 0. -1.
        -11    1    3    3    0    0 -0.31968832049E+03  0.11012823899E+03  0.10408013707E+03  0.35378174941E+03  0.00000000000E+00 0.  1.
         22    1    1    2    0    0  0.11204397325E+04 -0.26062902245E+03  0.13363165406E+04  0.17632511387E+04  0.00000000000E+00 0. -1.
<mgrwt>
<rscale>  0 0.24791272E+04</rscale>
<asrwt>0</asrwt>
<pdfrwt beam="1">  1        2 0.34893733E+00 0.24791272E+04</pdfrwt>
<pdfrwt beam="2">  1       -2 0.10422298E+00 0.24791272E+04</pdfrwt>
<totfact> 0.31593810E+00</totfact>
</mgrwt>
</event>
<event>
 6    1  0.1831439E-005  0.4113807E+03  0.7818608E-02  0.1039909E+00
          2   -1    0    0  501    0  0.00000000000E+00  0.00000000000E+00  0.13612899794E+04  0.13612899794E+04  0.00000000000E+00 0. -1.
         -2   -1    0    0    0  501 -0.00000000000E+00 -0.00000000000E+00 -0.31079719423E+02  0.31079719423E+02  0.00000000000E+00 0.  1.
         23    2    1    2    0    0  0.19390760041E+03 -0.74651226123E+01  0.77691551007E+03  0.80603279411E+03  0.91843725117E+02 0.  0.
         11    1    3    3    0    0  0.48384828126E+02 -0.24315277469E+02  0.10287636709E+03  0.11625777916E+03  0.00000000000E+00 0.  1.
        -11    1    3    3    0    0  0.14552277228E+03  0.16850154857E+02  0.67403914299E+03  0.68977501495E+03  0.00000000000E+00 0. -1.
         22    1    1    2    0    0 -0.19390760041E+03  0.74651226123E+01  0.55329474988E+03  0.58633690468E+03  0.00000000000E+00 0. -1.
<mgrwt>
<rscale>  0 0.41138065E+03</rscale>
<asrwt>0</asrwt>
<pdfrwt beam="1">  1        2 0.20942918E+00 0.41138065E+03</pdfrwt>
<pdfrwt beam="2">  1       -2 0.47814963E-02 0.41138065E+03</pdfrwt>
<totfact> 0.34075114E+03</totfact>
</mgrwt>
</event>
<event>
 6    1  0.1831439E-005  0.5123560E+04  0.7818608E-02  0.7809724E-01
          2   -1    0    0  501    0  0.00000000000E+00  0.00000000000E+00  0.22274993223E+04  0.22274993223E+04  0.00000000000E+00 0.  1.
         -2   -1    0    0    0  501 -0.00000000000E+00 -0.00000000000E+00 -0.29462266441E+04  0.29462266441E+04  0.00000000000E+00 0. -1.
         23    2    1    2    0    0 -0.19469468005E+04  0.13082729086E+04  0.67846668007E+03  0.24434639046E+04  0.89548700225E+02 0.  0.
         13    1    3    3    0    0 -0.10867351880E+04  0.68527746085E+03  0.39676455551E+03  0.13446265949E+04  0.00000000000E+00 0.  1.
        -13    1    3    3    0    0 -0.86021161251E+03  0.62299544777E+03  0.28170212456E+03  0.10988373097E+04  0.00000000000E+00 0. -1.
         22    1    1    2    0    0  0.19469468005E+04 -0.13082729086E+04 -0.13971940019E+04  0.27302620618E+04  0.00000000000E+00 0. -1.
<mgrwt>
<rscale>  0 0.51235604E+04</rscale>
<asrwt>0</asrwt>
<pdfrwt beam="1">  1        2 0.34269220E+00 0.51235604E+04</pdfrwt>
<pdfrwt beam="2">  1       -2 0.45326564E+00 0.51235604E+04</pdfrwt>
<totfact> 0.11902996E-02</totfact>
</mgrwt>
</event>
<event>
 6    1  0.1831439E-005  0.3525302E+04  0.7818608E-02  0.8107820E-01
         -2   -1    0    0    0  501 -0.00000000000E+00  0.00000000000E+00  0.24321349195E+04  0.24321349195E+04  0.00000000000E+00 0.  1.
          2   -1    0    0  501    0  0.00000000000E+00 -0.00000000000E+00 -0.12774529946E+04  0.12774529946E+04  0.00000000000E+00 0. -1.
         23    2    1    2    0    0 -0.10719785676E+04  0.73161257959E+02  0.20464701332E+04  0.23132438207E+04  0.92554571767E+02 0.  0.
         11    1    3    3    0    0 -0.48658988284E+03 -0.11538360718E+02  0.89957825412E+03  0.10228117535E+04  0.00000000000E+00 0. -1.
        -11    1    3    3    0    0 -0.58538868480E+03  0.84699618677E+02  0.11468918790E+04  0.12904320671E+04  0.00000000000E+00 0.  1.
         22    1    1    2    0    0  0.10719785676E+04 -0.73161257959E+02 -0.89178820821E+03  0.13963440935E+04  0.00000000000E+00 0. -1.
<mgrwt>
<rscale>  0 0.35253017E+04</rscale>
<asrwt>0</asrwt>
<pdfrwt beam="1">  1        2 0.19653123E+00 0.35253017E+04</pdfrwt>
<pdfrwt beam="2">  1       -2 0.37417460E+00 0.35253017E+04</pdfrwt>
<totfact> 0.15244272E-01</totfact>
</mgrwt>
</event>
<event>
 6    1  0.1831439E-005  0.8580775E+03  0.7818608E-02  0.9479559E-01
         -2   -1    0    0    0  501 -0.00000000000E+00  0.00000000000E+00  0.22273846315E+03  0.22273846315E+03  0.00000000000E+00 0. -1.
          2   -1    0    0  501    0  0.00000000000E+00 -0.00000000000E+00 -0.82641433731E+03  0.82641433731E+03  0.00000000000E+00 0.  1.
         23    2    1    2    0    0 -0.45071154572E+02 -0.29976637950E+03  0.57785657069E+02  0.32153844619E+03  0.90313337649E+02 0.  0.
         13    1    3    3    0    0 -0.51341230624E+02 -0.99063931257E+02  0.45067778518E+02  0.12033573492E+03  0.00000000000E+00 0. -1.
        -13    1    3    3    0    0  0.62700760517E+01 -0.20070244825E+03  0.12717878551E+02  0.20120271127E+03  0.00000000000E+00 0.  1.
         22    1    1    2    0    0  0.45071154572E+02  0.29976637950E+03 -0.66146153122E+03  0.72761435427E+03  0.00000000000E+00 0.  1.
<mgrwt>
<rscale>  0 0.85807752E+03</rscale>
<asrwt>0</asrwt>
<pdfrwt beam="1">  1        2 0.12714067E+00 0.85807752E+03</pdfrwt>
<pdfrwt beam="2">  1       -2 0.34267456E-01 0.85807752E+03</pdfrwt>
<totfact> 0.26388311E+02</totfact>
</mgrwt>
</event>
<event>
 6    1  0.1831439E-005  0.4290119E+04  0.7818608E-02  0.7948448E-01
          2   -1    0    0  501    0  0.00000000000E+00  0.00000000000E+00  0.20685584595E+04  0.20685584595E+04  0.00000000000E+00 0. -1.
         -2   -1    0    0    0  501 -0.00000000000E+00 -0.00000000000E+00 -0.22243893403E+04  0.22243893403E+04  0.00000000000E+00 0.  1.
         23    2    1    2    0    0 -0.15570632988E+04  0.51009439727E+03 -0.14617881217E+04  0.21976753292E+04  0.91158815096E+02 0.  0.
         13    1    3    3    0    0 -0.60470012732E+03  0.15159903513E+03 -0.55816173774E+03  0.83677299007E+03  0.00000000000E+00 0. -1.
        -13    1    3    3    0    0 -0.95236317146E+03  0.35849536215E+03 -0.90362638394E+03  0.13609023392E+04  0.00000000000E+00 0.  1.
         22    1    1    2    0    0  0.15570632988E+04 -0.51009439727E+03  0.13059572409E+04  0.20952724705E+04  0.00000000000E+00 0. -1.
<mgrwt>
<rscale>  0 0.42901186E+04</rscale>
<asrwt>0</asrwt>
<pdfrwt beam="1">  1        2 0.31823976E+00 0.42901186E+04</pdfrwt>
<pdfrwt beam="2">  1       -2 0.34221374E+00 0.42901186E+04</pdfrwt>
<totfact> 0.82109780E-02</totfact>
</mgrwt>
</event>
<event>
 6    1  0.1831439E-005  0.1160338E+04  0.7818608E-02  0.9148299E-01
          1   -1    0    0  501    0  0.00000000000E+00  0.00000000000E+00  0.41020527964E+03  0.41020527964E+03  0.00000000000E+00 0. -1.
         -1   -1    0    0    0  501 -0.00000000000E+00 -0.00000000000E+00 -0.82055481708E+03  0.82055481708E+03  0.00000000000E+00 0.  1.
         23    2    1    2    0    0  0.20472121604E+02  0.23519429911E+03 -0.76435604700E+03  0.80525325199E+03  0.91962857472E+02 0.  0.
         11    1    3    3    0    0  0.49912338232E+02  0.20058723844E+03 -0.59378467823E+03  0.62873422511E+03  0.00000000000E+00 0. -1.
        -11    1    3    3    0    0 -0.29440216628E+02  0.34607060673E+02 -0.17057136877E+03  0.17651902687E+03  0.00000000000E+00 0.  1.
         22    1    1    2    0    0 -0.20472121604E+02 -0.23519429911E+03  0.35400650956E+03  0.42550684473E+03  0.00000000000E+00 0. -1.
<mgrwt>
<rscale>  0 0.11603377E+04</rscale>
<asrwt>0</asrwt>
<pdfrwt beam="1">  1        1 0.63108504E-01 0.11603377E+04</pdfrwt>
<pdfrwt beam="2">  1       -1 0.12623920E+00 0.11603377E+04</pdfrwt>
<totfact> 0.31445205E+01</totfact>
</mgrwt>
</event>
<event>
 6    1  0.1831439E-005  0.4803898E+04  0.7818608E-02  0.7859491E-01
          2   -1    0    0  501    0  0.00000000000E+00  0.00000000000E+00  0.33313502718E+04  0.33313502718E+04  0.00000000000E+00 0.  1.
         -2   -1    0    0    0  501 -0.00000000000E+00 -0.00000000000E+00 -0.17318382173E+04  0.17318382173E+04  0.00000000000E+00 0. -1.
         23    2    1    2    0    0 -0.66445854063E+03  0.22440142393E+04  0.13658271970E+04  0.27112289504E+04  0.90407030092E+02 0.  0.
         13    1    3    3    0    0 -0.14479750838E+03  0.41229545001E+03  0.28740241918E+03  0.52302390680E+03  0.00000000000E+00 0.  1.
        -13    1    3    3    0    0 -0.51966103225E+03  0.18317187893E+04  0.10784247778E+04  0.21882050436E+04  0.00000000000E+00 0. -1.
         22    1    1    2    0    0  0.66445854063E+03 -0.22440142393E+04  0.23368485750E+03  0.23519595386E+04  0.00000000000E+00 0. -1.
<mgrwt>
<rscale>  0 0.48038983E+04</rscale>
<asrwt>0</asrwt>
<pdfrwt beam="1">  1        2 0.51251543E+00 0.48038983E+04</pdfrwt>
<pdfrwt beam="2">  1       -2 0.26643665E+00 0.48038983E+04</pdfrwt>
<totfact> 0.39934945E-02</totfact>
</mgrwt>
</event>
<event>
 6    1  0.1831439E-005  0.4886362E+04  0.7818608E-02  0.7846280E-01
          1   -1    0    0  501    0  0.00000000000E+00  0.00000000000E+00  0.23510538361E+04  0.23510538361E+04  0.00000000000E+00 0. -1.
         -1   -1    0    0    0  501 -0.00000000000E+00 -0.00000000000E+00 -0.25389182799E+04  0.25389182799E+04  0.00000000000E+00 0.  1.
         23    2    1    2    0    0 -0.77929065346E+03  0.30761007588E+03  0.22018759746E+04  0.23576259413E+04  0.90688425151E+02 0.  0.
         11    1    3    3    0    0 -0.24741536988E+03  0.14156487983E+03  0.70892581742E+03  0.76408821157E+03  0.00000000000E+00 0. -1.
        -11    1    3    3    0    0 -0.53187528358E+03  0.16604519605E+03  0.14929501572E+04  0.15935377298E+04  0.00000000000E+00 0.  1.
         22    1    1    2    0    0  0.77929065346E+03 -0.30761007588E+03 -0.23897404184E+04  0.25323461747E+04  0.00000000000E+00 0.  1.
<mgrwt>
<rscale>  0 0.48863621E+04</rscale>
<asrwt>0</asrwt>
<pdfrwt beam="1">  1        1 0.36170059E+00 0.48863621E+04</pdfrwt>
<pdfrwt beam="2">  1       -1 0.39060281E+00 0.48863621E+04</pdfrwt>
<totfact> 0.10372439E-02</totfact>
</mgrwt>
</event>
<event>
 6    1  0.1831439E-005  0.1119694E+04  0.7818608E-02  0.9186207E-01
          1   -1    0    0  501    0  0.00000000000E+00  0.00000000000E+00  0.31041063005E+03  0.31041063005E+03  0.00000000000E+00 0. -1.
         -1   -1    0    0    0  501 -0.00000000000E+00 -0.00000000000E+00 -0.10097227481E+04  0.10097227481E+04  0.00000000000E+00 0.  1.
         23    2    1    2    0    0 -0.34766719977E+03  0.37392205086E+03 -0.93534096523E+02  0.52788518894E+03  0.96041468015E+02 0.  0.
         11    1    3    3    0    0 -0.24672747084E+03  0.19860722535E+03 -0.45727861821E+02  0.32001611237E+03  0.00000000000E+00 0. -1.
        -11    1    3    3    0    0 -0.10093972893E+03  0.17531482551E+03 -0.47806234703E+02  0.20786907657E+03  0.00000000000E+00 0.  1.
         22    1    1    2    0    0  0.34766719977E+03 -0.37392205086E+03 -0.60577802149E+03  0.79224818917E+03  0.00000000000E+00 0.  1.
<mgrwt>
<rscale>  0 0.11196940E+04</rscale>
<asrwt>0</asrwt>
<pdfrwt beam="1">  1        1 0.47755481E-01 0.11196940E+04</pdfrwt>
<pdfrwt beam="2">  1       -1 0.15534196E+00 0.11196940E+04</pdfrwt>
<totfact> 0.26470937E+01</totfact>
</mgrwt>
</event>
<event>
 6    1  0.1831439E-005  0.3155010E+04  0.7818608E-02  0.8200801E-01
         -2   -1    0    0    0  501 -0.00000000000E+00  0.00000000000E+00  0.61524790118E+03  0.61524790118E+03  0.00000000000E+00 0.  1.
          2   -1    0    0  501    0  0.00000000000E+00 -0.00000000000E+00 -0.40447465073E+04  0.40447465073E+04  0.00000000000E+00 0. -1.
         23    2    1    2    0    0 -0.14593422865E+04 -0.18183407872E+03 -0.25539446575E+04  0.29484634394E+04  0.89776377940E+02 0.  0.
         13    1    3    3    0    0 -0.46770017392E+03 -0.97627561826E+02 -0.85967546760E+03  0.98352249751E+03  0.00000000000E+00 0. -1.
        -13    1    3    3    0    0 -0.99164211260E+03 -0.84206516894E+02 -0.16942691899E+04  0.19649409419E+04  0.00000000000E+00 0.  1.
         22    1    1    2    0    0  0.14593422865E+04  0.18183407872E+03 -0.87555394860E+03  0.17115309691E+04  0.00000000000E+00 0.  1.
<mgrwt>
<rscale>  0 0.31550099E+04</rscale>
<asrwt>0</asrwt>
<pdfrwt beam="1">  1        2 0.62226868E+00 0.31550099E+04</pdfrwt>
<pdfrwt beam="2">  1       -2 0.94653526E-01 0.31550099E+04</pdfrwt>
<totfact> 0.24950978E-01</totfact>
</mgrwt>
</event>
<event>
 6    1  0.1831439E-005  0.1472184E+04  0.7818608E-02  0.8903164E-01
         -2   -1    0    0    0  501 -0.00000000000E+00  0.00000000000E+00  0.26356441556E+03  0.26356441556E+03  0.00000000000E+00 0.  1.
          2   -1    0    0  501    0  0.00000000000E+00 -0.00000000000E+00 -0.20557837714E+04  0.20557837714E+04  0.00000000000E+00 0. -1.
         23    2    1    2    0    0 -0.48854262552E+02 -0.45380005162E+03 -0.18035913368E+04  0.18627843385E+04  0.93287489652E+02 0.  0.
         13    1    3    3    0    0 -0.18487509950E+02 -0.29244291346E+03 -0.97496789005E+03  0.10180506040E+04  0.00000000000E+00 0.  1.
        -13    1    3    3    0    0 -0.30366752601E+02 -0.16135713816E+03 -0.82862344674E+03  0.84473373449E+03  0.00000000000E+00 0. -1.
         22    1    1    2    0    0  0.48854262552E+02  0.45380005162E+03  0.11371980910E+02  0.45656384851E+03  0.00000000000E+00 0.  1.
<mgrwt>
<rscale>  0 0.14721840E+04</rscale>
<asrwt>0</asrwt>
<pdfrwt beam="1">  1        2 0.31627444E+00 0.14721840E+04</pdfrwt>
<pdfrwt beam="2">  1       -2 0.40548370E-01 0.14721840E+04</pdfrwt>
<totfact> 0.34697164E+01</totfact>
</mgrwt>
</event>
<event>
 6    1  0.1831439E-005  0.1110627E+04  0.7818608E-02  0.9194895E-01
         -2   -1    0    0    0  501 -0.00000000000E+00  0.00000000000E+00  0.19144075609E+03  0.19144075609E+03  0.00000000000E+00 0.  1.
          2   -1    0    0  501    0  0.00000000000E+00 -0.00000000000E+00 -0.16108024630E+04  0.16108024630E+04  0.00000000000E+00 0. -1.
         23    2    1    2    0    0 -0.26791200678E+03 -0.34730832231E+03 -0.12572989276E+04  0.13346277162E+04  0.89613801457E+02 0.  0.
         13    1    3    3    0    0 -0.11016434314E+03 -0.76326027171E+02 -0.39074349542E+03  0.41308876060E+03  0.00000000000E+00 0. -1.
        -13    1    3    3    0    0 -0.15774766364E+03 -0.27098229514E+03 -0.86655543217E+03  0.92153895560E+03  0.00000000000E+00 0.  1.
         22    1    1    2    0    0  0.26791200678E+03  0.34730832231E+03 -0.16206277934E+03  0.46761550292E+03  0.00000000000E+00 0.  1.
<mgrwt>
<rscale>  0 0.11106273E+04</rscale>
<asrwt>0</asrwt>
<pdfrwt beam="1">  1        2 0.24781575E+00 0.11106273E+04</pdfrwt>
<pdfrwt beam="2">  1       -2 0.29452426E-01 0.11106273E+04</pdfrwt>
<totfact> 0.11576305E+02</totfact>
</mgrwt>
</event>
<event>
 6    1  0.1831439E-005  0.6377268E+03  0.7818608E-02  0.9830086E-01
          2   -1    0    0  501    0  0.00000000000E+00  0.00000000000E+00  0.63708285448E+03  0.63708285448E+03  0.00000000000E+00 0. -1.
         -2   -1    0    0    0  501 -0.00000000000E+00 -0.00000000000E+00 -0.15959283228E+03  0.15959283228E+03  0.00000000000E+00 0.  1.
         23    2    1    2    0    0  0.92212760217E+02 -0.13877048873E+03  0.57360330368E+03  0.60432651320E+03  0.91811452872E+02 0.  0.
         13    1    3    3    0    0  0.13489707768E+02 -0.10140814199E+03  0.28205062831E+03  0.30003023249E+03  0.00000000000E+00 0.  1.
        -13    1    3    3    0    0  0.78723052449E+02 -0.37362346742E+02  0.29155267536E+03  0.30429628071E+03  0.00000000000E+00 0. -1.
         22    1    1    2    0    0 -0.92212760217E+02  0.13877048873E+03 -0.96113281475E+02  0.19234917355E+03  0.00000000000E+00 0.  1.
<mgrwt>
<rscale>  0 0.63772677E+03</rscale>
<asrwt>0</asrwt>
<pdfrwt beam="1">  1        2 0.98012746E-01 0.63772677E+03</pdfrwt>
<pdfrwt beam="2">  1       -2 0.24552744E-01 0.63772677E+03</pdfrwt>
<totfact> 0.68637575E+02</totfact>
</mgrwt>
</event>
<event>
 6    1  0.1831439E-005  0.4975670E+04  0.7818608E-02  0.7832271E-01
         -2   -1    0    0    0  501 -0.00000000000E+00  0.00000000000E+00  0.16920991785E+04  0.16920991785E+04  0.00000000000E+00 0.  1.
          2   -1    0    0  501    0  0.00000000000E+00 -0.00000000000E+00 -0.36577776189E+04  0.36577776189E+04  0.00000000000E+00 0. -1.
         23    2    1    2    0    0 -0.11968411536E+04  0.35663031723E+03  0.13293291713E+04  0.18261445301E+04  0.89854708824E+02 0.  0.
         11    1    3    3    0    0 -0.37157794818E+03  0.77822266371E+02  0.36512919251E+03  0.52673124450E+03  0.00000000000E+00 0. -1.
        -11    1    3    3    0    0 -0.82526320546E+03  0.27880805085E+03  0.96419997883E+03  0.12994132856E+04  0.00000000000E+00 0.  1.
         22    1    1    2    0    0  0.11968411536E+04 -0.35663031723E+03 -0.32950076117E+04  0.35237322673E+04  0.00000000000E+00 0. -1.
<mgrwt>
<rscale>  0 0.49756698E+04</rscale>
<asrwt>0</asrwt>
<pdfrwt beam="1">  1        2 0.56273501E+00 0.49756698E+04</pdfrwt>
<pdfrwt beam="2">  1       -2 0.26032296E+00 0.49756698E+04</pdfrwt>
<totfact> 0.25330412E-02</totfact>
</mgrwt>
</event>
<event>
 6    1  0.1831439E-005  0.1919634E+04  0.7818608E-02  0.8645145E-01
          1   -1    0    0  501    0  0.00000000000E+00  0.00000000000E+00  0.10844118291E+04  0.10844118291E+04  0.00000000000E+00 0. -1.
         -1   -1    0    0    0  501 -0.00000000000E+00 -0.00000000000E+00 -0.84953745880E+03  0.84953745880E+03  0.00000000000E+00 0.  1.
         23    2    1    2    0    0 -0.52269006732E+03  0.24670252459E+03 -0.65158322496E+03  0.87570824245E+03  0.90758937435E+02 0.  0.
         13    1    3    3    0    0 -0.37693234595E+03  0.22135368322E+03 -0.48727114109E+03  0.65460569157E+03  0.00000000000E+00 0. -1.
        -13    1    3    3    0    0 -0.14575772137E+03  0.25348841373E+02 -0.16431208387E+03  0.22110255088E+03  0.00000000000E+00 0.  1.
         22    1    1    2    0    0  0.52269006732E+03 -0.24670252459E+03  0.88645759527E+03  0.10582410455E+04  0.00000000000E+00 0. -1.
<mgrwt>
<rscale>  0 0.19196338E+04</rscale>
<asrwt>0</asrwt>
<pdfrwt beam="1">  1        1 0.16683259E+00 0.19196338E+04</pdfrwt>
<pdfrwt beam="2">  1       -1 0.13069807E+00 0.19196338E+04</pdfrwt>
<totfact> 0.60887551E+00</totfact>
</mgrwt>
</event>
<event>
 6    1  0.1831439E-005  0.2669482E+04  0.7818608E-02  0.8344976E-01
          2   -1    0    0  501    0  0.00000000000E+00  0.00000000000E+00  0.12092361123E+04  0.12092361123E+04  0.00000000000E+00 0. -1.
         -2   -1    0    0    0  501 -0.00000000000E+00 -0.00000000000E+00 -0.14732715036E+04  0.14732715036E+04  0.00000000000E+00 0.  1.
         23    2    1    2    0    0 -0.21666167330E+03  0.12541834396E+04  0.26671398151E+03  0.13035176675E+04  0.90019890407E+02 0.  0.
         11    1    3    3    0    0 -0.57331858457E+02  0.16956901112E+03  0.52394842345E+02  0.18650954676E+03  0.00000000000E+00 0. -1.
        -11    1    3    3    0    0 -0.15932981485E+03  0.10846144285E+04  0.21431913917E+03  0.11170081208E+04  0.00000000000E+00 0.  1.
         22    1    1    2    0    0  0.21666167330E+03 -0.12541834396E+04 -0.53074937289E+03  0.13789899484E+04  0.00000000000E+00 0.  1.
<mgrwt>
<rscale>  0 0.26694817E+04</rscale>
<asrwt>0</asrwt>
<pdfrwt beam="1">  1        2 0.18603632E+00 0.26694817E+04</pdfrwt>
<pdfrwt beam="2">  1       -2 0.22665716E+00 0.26694817E+04</pdfrwt>
<totfact> 0.14757808E+00</totfact>
</mgrwt>
</event>
<event>
 6    1  0.1831439E-005  0.1743817E+04  0.7818608E-02  0.8736761E-01
          2   -1    0    0  501    0  0.00000000000E+00  0.00000000000E+00  0.28345780546E+04  0.28345780546E+04  0.00000000000E+00 0. -1.
         -2   -1    0    0    0  501 -0.00000000000E+00 -0.00000000000E+00 -0.26819665786E+03  0.26819665786E+03  0.00000000000E+00 0.  1.
         23    2    1    2    0    0  0.74964154532E+03  0.30736780704E+03  0.18480480850E+04  0.20199819520E+04  0.92779020960E+02 0.  0.
         13    1    3    3    0    0  0.14859041803E+03  0.44851020614E+02  0.44261893779E+03  0.46904397499E+03  0.00000000000E+00 0.  1.
        -13    1    3    3    0    0  0.60105112728E+03  0.26251678643E+03  0.14054291472E+04  0.15509379770E+04  0.00000000000E+00 0. -1.
         22    1    1    2    0    0 -0.74964154532E+03 -0.30736780704E+03  0.71833331170E+03  0.10827927604E+04  0.00000000000E+00 0.  1.
<mgrwt>
<rscale>  0 0.17438169E+04</rscale>
<asrwt>0</asrwt>
<pdfrwt beam="1">  1        2 0.43608891E+00 0.17438169E+04</pdfrwt>
<pdfrwt beam="2">  1       -2 0.41261026E-01 0.17438169E+04</pdfrwt>
<totfact> 0.11662849E+01</totfact>
</mgrwt>
</event>
<event>
 6    1  0.1831439E-005  0.1214301E+04  0.7818608E-02  0.9100431E-01
          2   -1    0    0  501    0  0.00000000000E+00  0.00000000000E+00  0.38122137798E+03  0.38122137798E+03  0.00000000000E+00 0. -1.
         -2   -1    0    0    0  501 -0.00000000000E+00 -0.00000000000E+00 -0.96697474295E+03  0.96697474295E+03  0.00000000000E+00 0.  1.
         23    2    1    2    0    0  0.74393036726E+02 -0.48359828942E+03 -0.68743913416E+03  0.84845456263E+03  0.88887300805E+02 0.  0.
         13    1    3    3    0    0 -0.35591779556E+01 -0.26800598701E+03 -0.37362672257E+03  0.45982257952E+03  0.00000000000E+00 0.  1.
        -13    1    3    3    0    0  0.77952214682E+02 -0.21559230240E+03 -0.31381241159E+03  0.38863198311E+03  0.00000000000E+00 0. -1.
         22    1    1    2    0    0 -0.74393036726E+02  0.48359828942E+03  0.10168576918E+03  0.49974155830E+03  0.00000000000E+00 0. -1.
<mgrwt>
<rscale>  0 0.12143005E+04</rscale>
<asrwt>0</asrwt>
<pdfrwt beam="1">  1        2 0.58649443E-01 0.12143005E+04</pdfrwt>
<pdfrwt beam="2">  1       -2 0.14876534E+00 0.12143005E+04</pdfrwt>
<totfact> 0.25319435E+01</totfact>
</mgrwt>
</event>
<event>
 6    1  0.1831439E-005  0.6417995E+03  0.7818608E-02  0.9822290E-01
         -1   -1    0    0    0  501 -0.00000000000E+00  0.00000000000E+00  0.90816919719E+02  0.90816919719E+02  0.00000000000E+00 0. -1.
          1   -1    0    0  501    0  0.00000000000E+00 -0.00000000000E+00 -0.11338926330E+04  0.11338926330E+04  0.00000000000E+00 0.  1.
         23    2    1    2    0    0  0.26859083295E+03  0.14503681433E+03 -0.67753351248E+03  0.74847661221E+03  0.89380453290E+02 0.  0.
         13    1    3    3    0    0  0.14143917552E+03  0.12482736072E+03 -0.42632004302E+03  0.46619275996E+03  0.00000000000E+00 0. -1.
        -13    1    3    3    0    0  0.12715165742E+03  0.20209453607E+02 -0.25121346946E+03  0.28228385225E+03  0.00000000000E+00 0.  1.
         22    1    1    2    0    0 -0.26859083295E+03 -0.14503681433E+03 -0.36554220076E+03  0.47623294047E+03  0.00000000000E+00 0. -1.
<mgrwt>
<rscale>  0 0.64179946E+03</rscale>
<asrwt>0</asrwt>
<pdfrwt beam="1">  1        1 0.17444503E+00 0.64179946E+03</pdfrwt>
<pdfrwt beam="2">  1       -1 0.13971833E-01 0.64179946E+03</pdfrwt>
<totfact> 0.44871991E+02</totfact>
</mgrwt>
</event>
<event>
 6    1  0.1831439E-005  0.2689356E+04  0.7818608E-02  0.8338467E-01
         -2   -1    0    0    0  501 -0.00000000000E+00  0.00000000000E+00  0.14910471033E+04  0.14910471033E+04  0.00000000000E+00 0.  1.
          2   -1    0    0  501    0  0.00000000000E+00 -0.00000000000E+00 -0.12126768417E+04  0.12126768417E+04  0.00000000000E+00 0. -1.
         23    2    1    2    0    0  0.41564722963E+03 -0.64013847336E+03  0.12504967396E+04  0.14677750084E+04  0.89897136314E+02 0.  0.
         13    1    3    3    0    0  0.19569838224E+03 -0.34799693149E+03  0.58167515754E+03  0.70551095671E+03  0.00000000000E+00 0.  1.
        -13    1    3    3    0    0  0.21994884739E+03 -0.29214154187E+03  0.66882158204E+03  0.76226405173E+03  0.00000000000E+00 0. -1.
         22    1    1    2    0    0 -0.41564722963E+03  0.64013847336E+03 -0.97212647797E+03  0.12359489365E+04  0.00000000000E+00 0. -1.
<mgrwt>
<rscale>  0 0.26893555E+04</rscale>
<asrwt>0</asrwt>
<pdfrwt beam="1">  1        2 0.18656567E+00 0.26893555E+04</pdfrwt>
<pdfrwt beam="2">  1       -2 0.22939186E+00 0.26893555E+04</pdfrwt>
<totfact> 0.14096496E+00</totfact>
</mgrwt>
</event>
<event>
 6    1  0.1831439E-005  0.1224336E+04  0.7818608E-02  0.9091818E-01
          1   -1    0    0  501    0  0.00000000000E+00  0.00000000000E+00  0.18446481134E+04  0.18446481134E+04  0.00000000000E+00 0. -1.
         -1   -1    0    0    0  501 -0.00000000000E+00 -0.00000000000E+00 -0.20315507687E+03  0.20315507687E+03  0.00000000000E+00 0.  1.
         23    2    1    2    0    0  0.37380527780E+03  0.24194143816E+03  0.15199562359E+04  0.15862436176E+04  0.87383122443E+02 0.  0.
         11    1    3    3    0    0  0.19591417370E+03  0.11320502351E+03  0.91838687729E+03  0.94584998662E+03  0.00000000000E+00 0.  1.
        -11    1    3    3    0    0  0.17789110410E+03  0.12873641465E+03  0.60156935862E+03  0.64039363098E+03  0.00000000000E+00 0. -1.
         22    1    1    2    0    0 -0.37380527780E+03 -0.24194143816E+03  0.12153680062E+03  0.46155957266E+03  0.00000000000E+00 0.  1.
<mgrwt>
<rscale>  0 0.12243359E+04</rscale>
<asrwt>0</asrwt>
<pdfrwt beam="1">  1        1 0.28379201E+00 0.12243359E+04</pdfrwt>
<pdfrwt beam="2">  1       -1 0.31254628E-01 0.12243359E+04</pdfrwt>
<totfact> 0.35662851E+01</totfact>
</mgrwt>
</event>
<event>
 6    1  0.1831439E-005  0.4994601E+04  0.7818608E-02  0.7829341E-01
         -1   -1    0    0    0  501 -0.00000000000E+00  0.00000000000E+00  0.27852176561E+04  0.27852176561E+04  0.00000000000E+00 0.  1.
          1   -1    0    0  501    0  0.00000000000E+00 -0.00000000000E+00 -0.22391459265E+04  0.22391459265E+04  0.00000000000E+00 0. -1.
         23    2    1    2    0    0  0.46184336920E+03 -0.70760524100E+03 -0.20900306972E+04  0.22561438515E+04  0.89175605643E+02 0.  0.
         11    1    3    3    0    0  0.33395203687E+03 -0.46296721709E+03 -0.14919967956E+04  0.15974720796E+04  0.00000000000E+00 0.  1.
        -11    1    3    3    0    0  0.12789133234E+03 -0.24463802391E+03 -0.59803390164E+03  0.65867177193E+03  0.00000000000E+00 0. -1.
         22    1    1    2    0    0 -0.46184336920E+03  0.70760524100E+03  0.26361024269E+04  0.27682197311E+04  0.00000000000E+00 0.  1.
<mgrwt>
<rscale>  0 0.49946006E+04</rscale>
<asrwt>0</asrwt>
<pdfrwt beam="1">  1        1 0.34448399E+00 0.49946006E+04</pdfrwt>
<pdfrwt beam="2">  1       -1 0.42849503E+00 0.49946006E+04</pdfrwt>
<totfact> 0.67481951E-03</totfact>
</mgrwt>
</event>
<event>
 6    1  0.1831439E-005  0.2899422E+04  0.7818608E-02  0.8273049E-01
          2   -1    0    0  501    0  0.00000000000E+00  0.00000000000E+00  0.28169051567E+04  0.28169051567E+04  0.00000000000E+00 0. -1.
         -2   -1    0    0    0  501 -0.00000000000E+00 -0.00000000000E+00 -0.74608925418E+03  0.74608925418E+03  0.00000000000E+00 0.  1.
         23    2    1    2    0    0  0.47201900964E+02  0.10836455128E+04  0.22157706935E+04  0.24686784106E+04  0.90651596953E+02 0.  0.
         13    1    3    3    0    0  0.48349033673E+02  0.88841651584E+03  0.17364548843E+04  0.19511271358E+04  0.00000000000E+00 0. -1.
        -13    1    3    3    0    0 -0.11471327083E+01  0.19522899697E+03  0.47931580918E+03  0.51755127486E+03  0.00000000000E+00 0.  1.
         22    1    1    2    0    0 -0.47201900964E+02 -0.10836455128E+04 -0.14495479102E+03  0.10943160002E+04  0.00000000000E+00 0.  1.
<mgrwt>
<rscale>  0 0.28994225E+04</rscale>
<asrwt>0</asrwt>
<pdfrwt beam="1">  1        2 0.43337002E+00 0.28994225E+04</pdfrwt>
<pdfrwt beam="2">  1       -2 0.11478296E+00 0.28994225E+04</pdfrwt>
<totfact> 0.11542193E+00</totfact>
</mgrwt>
</event>
<event>
 6    1  0.1831439E-005  0.4488274E+04  0.7818608E-02  0.7912693E-01
          1   -1    0    0  501    0  0.00000000000E+00  0.00000000000E+00  0.23117122630E+04  0.23117122630E+04  0.00000000000E+00 0. -1.
         -1   -1    0    0    0  501 -0.00000000000E+00 -0.00000000000E+00 -0.21785370768E+04  0.21785370768E+04  0.00000000000E+00 0.  1.
         23    2    1    2    0    0  0.10588115667E+04  0.18331424333E+04  0.80885718342E+03  0.22680793922E+04  0.91875304805E+02 0.  0.
         13    1    3    3    0    0  0.77508115873E+03  0.12575349087E+04  0.56313424829E+03  0.15809063954E+04  0.00000000000E+00 0. -1.
        -13    1    3    3    0    0  0.28373040801E+03  0.57560752454E+03  0.24572293513E+03  0.68717299684E+03  0.00000000000E+00 0.  1.
         22    1    1    2    0    0 -0.10588115667E+04 -0.18331424333E+04 -0.67568199723E+03  0.22221699476E+04  0.00000000000E+00 0.  1.
<mgrwt>
<rscale>  0 0.44882740E+04</rscale>
<asrwt>0</asrwt>
<pdfrwt beam="1">  1        1 0.35564804E+00 0.44882740E+04</pdfrwt>
<pdfrwt beam="2">  1       -1 0.33515955E+00 0.44882740E+04</pdfrwt>
<totfact> 0.26757872E-02</totfact>
</mgrwt>
</event>
<event>
 6    1  0.1831439E-005  0.4723118E+04  0.7818608E-02  0.7872699E-01
          2   -1    0    0  501    0  0.00000000000E+00  0.00000000000E+00  0.39155214422E+04  0.39155214422E+04  0.00000000000E+00 0. -1.
         -2   -1    0    0    0  501 -0.00000000000E+00 -0.00000000000E+00 -0.14243214766E+04  0.14243214766E+04  0.00000000000E+00 0.  1.
         23    2    1    2    0    0 -0.99397966334E+03 -0.13265032568E+04  0.31463439295E+04  0.35574792985E+04  0.92587119375E+02 0.  0.
         11    1    3    3    0    0 -0.55203189978E+03 -0.67456131099E+03  0.17113918231E+04  0.19205817225E+04  0.00000000000E+00 0. -1.
        -11    1    3    3    0    0 -0.44194776356E+03 -0.65194194579E+03  0.14349521064E+04  0.16368975759E+04  0.00000000000E+00 0.  1.
         22    1    1    2    0    0  0.99397966334E+03  0.13265032568E+04 -0.65514396391E+03  0.17823636203E+04  0.00000000000E+00 0.  1.
<mgrwt>
<rscale>  0 0.47231182E+04</rscale>
<asrwt>0</asrwt>
<pdfrwt beam="1">  1        2 0.60238791E+00 0.47231182E+04</pdfrwt>
<pdfrwt beam="2">  1       -2 0.21912638E+00 0.47231182E+04</pdfrwt>
<totfact> 0.29658023E-02</totfact>
</mgrwt>
</event>
<event>
 6    1  0.1831439E-005  0.2222767E+04  0.7818608E-02  0.8509011E-01
          1   -1    0    0  501    0  0.00000000000E+00  0.00000000000E+00  0.10366576142E+04  0.10366576142E+04  0.00000000000E+00 0. -1.
         -1   -1    0    0    0  501 -0.00000000000E+00 -0.00000000000E+00 -0.11914957699E+04  0.11914957699E+04  0.00000000000E+00 0.  1.
         23    2    1    2    0    0 -0.85644267103E+02 -0.34051419483E+03 -0.11327697495E+04  0.11890984965E+04  0.86620272704E+02 0.  0.
         11    1    3    3    0    0 -0.40523213177E+02 -0.26679888882E+03 -0.76152072759E+03  0.80792177619E+03  0.00000000000E+00 0. -1.
        -11    1    3    3    0    0 -0.45121053926E+02 -0.73715306012E+02 -0.37124902190E+03  0.38117672032E+03  0.00000000000E+00 0.  1.
         22    1    1    2    0    0  0.85644267103E+02  0.34051419483E+03  0.97793159378E+03  0.10390548876E+04  0.00000000000E+00 0. -1.
<mgrwt>
<rscale>  0 0.22227669E+04</rscale>
<asrwt>0</asrwt>
<pdfrwt beam="1">  1        1 0.15948579E+00 0.22227669E+04</pdfrwt>
<pdfrwt beam="2">  1       -1 0.18330704E+00 0.22227669E+04</pdfrwt>
<totfact> 0.25409580E+00</totfact>
</mgrwt>
</event>
<event>
 6    1  0.1831439E-005  0.2613009E+04  0.7818608E-02  0.8363796E-01
         -2   -1    0    0    0  501 -0.00000000000E+00  0.00000000000E+00  0.91288100999E+03  0.91288100999E+03  0.00000000000E+00 0.  1.
          2   -1    0    0  501    0  0.00000000000E+00 -0.00000000000E+00 -0.18698531442E+04  0.18698531442E+04  0.00000000000E+00 0. -1.
         23    2    1    2    0    0 -0.49306290545E+03 -0.12077640819E+04 -0.45806929143E+03  0.13860562554E+04  0.97567213835E+02 0.  0.
         11    1    3    3    0    0 -0.31695198206E+03 -0.87491431281E+03 -0.30077868772E+03  0.97795778676E+03  0.00000000000E+00 0. -1.
        -11    1    3    3    0    0 -0.17611092339E+03 -0.33284976909E+03 -0.15729060371E+03  0.40809846867E+03  0.00000000000E+00 0.  1.
         22    1    1    2    0    0  0.49306290545E+03  0.12077640819E+04 -0.49890284273E+03  0.13966778987E+04  0.00000000000E+00 0. -1.
<mgrwt>
<rscale>  0 0.26130086E+04</rscale>
<asrwt>0</asrwt>
<pdfrwt beam="1">  1        2 0.28766971E+00 0.26130086E+04</pdfrwt>
<pdfrwt beam="2">  1       -2 0.14044323E+00 0.26130086E+04</pdfrwt>
<totfact> 0.24842728E+00</totfact>
</mgrwt>
</event>
<event>
 6    1  0.1831439E-005  0.2623908E+04  0.7818608E-02  0.8360125E-01
         -2   -1    0    0    0  501 -0.00000000000E+00  0.00000000000E+00  0.63073883715E+03  0.63073883715E+03  0.00000000000E+00 0.  1.
          2   -1    0    0  501    0  0.00000000000E+00 -0.00000000000E+00 -0.27289004333E+04  0.27289004333E+04  0.00000000000E+00 0. -1.
         23    2    1    2    0    0 -0.18215425541E+03  0.10085317193E+04 -0.48768751955E+01  0.10289403786E+04  0.91532055486E+02 0.  0.
         13    1    3    3    0    0 -0.14076015043E+03  0.55044930298E+03 -0.23092774625E+02  0.56863092717E+03  0.00000000000E+00 0. -1.
        -13    1    3    3    0    0 -0.41394104976E+02  0.45808241632E+03  0.18215899430E+02  0.46030945141E+03  0.00000000000E+00 0.  1.
         22    1    1    2    0    0  0.18215425541E+03 -0.10085317193E+04 -0.20932847209E+04  0.23306988918E+04  0.00000000000E+00 0. -1.
<mgrwt>
<rscale>  0 0.26239081E+04</rscale>
<asrwt>0</asrwt>
<pdfrwt beam="1">  1        2 0.41983083E+00 0.26239081E+04</pdfrwt>
<pdfrwt beam="2">  1       -2 0.97036746E-01 0.26239081E+04</pdfrwt>
<totfact> 0.19973797E+00</totfact>
</mgrwt>
</event>
<event>
 6    1  0.1831439E-005  0.2727546E+04  0.7818608E-02  0.8326122E-01
         -2   -1    0    0    0  501 -0.00000000000E+00  0.00000000000E+00  0.60892582958E+03  0.60892582958E+03  0.00000000000E+00 0.  1.
          2   -1    0    0  501    0  0.00000000000E+00 -0.00000000000E+00 -0.30543575338E+04  0.30543575338E+04  0.00000000000E+00 0. -1.
         23    2    1    2    0    0 -0.52667762124E+03 -0.94252432510E+03 -0.23400984301E+04  0.25784624018E+04  0.81647257005E+02 0.  0.
         13    1    3    3    0    0 -0.23568988594E+03 -0.50162347559E+03 -0.11690554945E+04  0.12937799592E+04  0.00000000000E+00 0.  1.
        -13    1    3    3    0    0 -0.29098773530E+03 -0.44090084951E+03 -0.11710429357E+04  0.12846824426E+04  0.00000000000E+00 0. -1.
         22    1    1    2    0    0  0.52667762124E+03  0.94252432510E+03 -0.10533327410E+03  0.10848209616E+04  0.00000000000E+00 0.  1.
<mgrwt>
<rscale>  0 0.27275463E+04</rscale>
<asrwt>0</asrwt>
<pdfrwt beam="1">  1        2 0.46990117E+00 0.27275463E+04</pdfrwt>
<pdfrwt beam="2">  1       -2 0.93680894E-01 0.27275463E+04</pdfrwt>
<totfact> 0.13558013E+00</totfact>
</mgrwt>
</event>
<event>
 6    1  0.1831439E-005  0.2822007E+04  0.7818608E-02  0.8296468E-01
         -2   -1    0    0    0  501 -0.00000000000E+00  0.00000000000E+00  0.16619587375E+04  0.16619587375E+04  0.00000000000E+00 0. -1.
          2   -1    0    0  501    0  0.00000000000E+00 -0.00000000000E+00 -0.11979425859E+04  0.11979425859E+04  0.00000000000E+00 0.  1.
         23    2    1    2    0    0 -0.20678714942E+03 -0.47209186561E+03 -0.10973037984E+04  0.12157140954E+04  0.90848671398E+02 0.  0.
         11    1    3    3    0    0 -0.26254222808E+02 -0.62085990770E+02 -0.22811544670E+03  0.23786679358E+03  0.00000000000E+00 0.  1.
        -11    1    3    3    0    0 -0.18053292661E+03 -0.41000587484E+03 -0.86918835165E+03  0.97784730180E+03  0.00000000000E+00 0. -1.
         22    1    1    2    0    0  0.20678714942E+03  0.47209186561E+03  0.15613199500E+04  0.16441872281E+04  0.00000000000E+00 0. -1.
<mgrwt>
<rscale>  0 0.28220072E+04</rscale>
<asrwt>0</asrwt>
<pdfrwt beam="1">  1        2 0.18429886E+00 0.28220072E+04</pdfrwt>
<pdfrwt beam="2">  1       -2 0.25568596E+00 0.28220072E+04</pdfrwt>
<totfact> 0.97825253E-01</totfact>
</mgrwt>
</event>
<event>
 6    1  0.1831439E-005  0.1833364E+04  0.7818608E-02  0.8688755E-01
          2   -1    0    0  501    0  0.00000000000E+00  0.00000000000E+00  0.15019398062E+04  0.15019398062E+04  0.00000000000E+00 0.  1.
         -2   -1    0    0    0  501 -0.00000000000E+00 -0.00000000000E+00 -0.55948045567E+03  0.55948045567E+03  0.00000000000E+00 0. -1.
         23    2    1    2    0    0  0.43478201908E+03  0.13343489178E+03 -0.41956314432E+03  0.62547264760E+03  0.91337431320E+02 0.  0.
         13    1    3    3    0    0  0.17903011360E+03  0.10095629441E+03 -0.17119768216E+03  0.26749317998E+03  0.00000000000E+00 0. -1.
        -13    1    3    3    0    0  0.25575190547E+03  0.32478597366E+02 -0.24836546217E+03  0.35797946762E+03  0.00000000000E+00 0.  1.
         22    1    1    2    0    0 -0.43478201908E+03 -0.13343489178E+03  0.13620224948E+04  0.14359476143E+04  0.00000000000E+00 0.  1.
<mgrwt>
<rscale>  0 0.18333641E+04</rscale>
<asrwt>0</asrwt>
<pdfrwt beam="1">  1        2 0.23106766E+00 0.18333641E+04</pdfrwt>
<pdfrwt beam="2">  1       -2 0.86073917E-01 0.18333641E+04</pdfrwt>
<totfact> 0.13959170E+01</totfact>
</mgrwt>
</event>
<event>
 6    1  0.1831439E-005  0.1513801E+04  0.7818608E-02  0.8875327E-01
         -2   -1    0    0    0  501 -0.00000000000E+00  0.00000000000E+00  0.27773577538E+03  0.27773577538E+03  0.00000000000E+00 0.  1.
          2   -1    0    0  501    0  0.00000000000E+00 -0.00000000000E+00 -0.20627470280E+04  0.20627470280E+04  0.00000000000E+00 0. -1.
         23    2    1    2    0    0  0.74914504932E+03 -0.78103353610E+02 -0.83725081282E+03  0.11298762240E+04  0.91175211789E+02 0.  0.
         13    1    3    3    0    0  0.53697675505E+03 -0.76756719639E+02 -0.65264815961E+03  0.84863728985E+03  0.00000000000E+00 0.  1.
        -13    1    3    3    0    0  0.21216829427E+03 -0.13466339709E+01 -0.18460265321E+03  0.28123893416E+03  0.00000000000E+00 0. -1.
         22    1    1    2    0    0 -0.74914504932E+03  0.78103353610E+02 -0.94776043980E+03  0.12106065794E+04  0.00000000000E+00 0. -1.
<mgrwt>
<rscale>  0 0.15138014E+04</rscale>
<asrwt>0</asrwt>
<pdfrwt beam="1">  1        2 0.31734570E+00 0.15138014E+04</pdfrwt>
<pdfrwt beam="2">  1       -2 0.42728580E-01 0.15138014E+04</pdfrwt>
<totfact> 0.30910724E+01</totfact>
</mgrwt>
</event>
<event>
 6    1  0.1831439E-005  0.3310560E+04  0.7818608E-02  0.8160214E-01
          2   -1    0    0  501    0  0.00000000000E+00  0.00000000000E+00  0.38847344686E+04  0.38847344686E+04  0.00000000000E+00 0. -1.
         -2   -1    0    0    0  501 -0.00000000000E+00 -0.00000000000E+00 -0.70531255368E+03  0.70531255368E+03  0.00000000000E+00 0.  1.
         23    2    1    2    0    0 -0.93252719806E+03  0.79871063012E+02 -0.29985692377E+03  0.98708052241E+03  0.91800986700E+02 0.  0.
         11    1    3    3    0    0 -0.20647318269E+03 -0.70926682692E+00 -0.10174322026E+03  0.23018114845E+03  0.00000000000E+00 0.  1.
        -11    1    3    3    0    0 -0.72605401537E+03  0.80580329839E+02 -0.19811370351E+03  0.75689937396E+03  0.00000000000E+00 0. -1.
         22    1    1    2    0    0  0.93252719806E+03 -0.79871063012E+02  0.34792788387E+04  0.36029664999E+04  0.00000000000E+00 0. -1.
<mgrwt>
<rscale>  0 0.33105601E+04</rscale>
<asrwt>0</asrwt>
<pdfrwt beam="1">  1        2 0.59765144E+00 0.33105601E+04</pdfrwt>
<pdfrwt beam="2">  1       -2 0.10850963E+00 0.33105601E+04</pdfrwt>
<totfact> 0.23897808E-01</totfact>
</mgrwt>
</event>
<event>
 6    1  0.1831439E-005  0.2057788E+04  0.7818608E-02  0.8580070E-01
          1   -1    0    0  501    0  0.00000000000E+00  0.00000000000E+00  0.90412486685E+03  0.90412486685E+03  0.00000000000E+00 0. -1.
         -1   -1    0    0    0  501 -0.00000000000E+00 -0.00000000000E+00 -0.11708811264E+04  0.11708811264E+04  0.00000000000E+00 0.  1.
         23    2    1    2    0    0  0.71319463997E+03  0.71193911909E+03 -0.33300278336E+03  0.10651087185E+04  0.89787664229E+02 0.  0.
         11    1    3    3    0    0  0.48100789530E+03  0.43198082345E+03 -0.24071767845E+03  0.68987029787E+03  0.00000000000E+00 0.  1.
        -11    1    3    3    0    0  0.23218674467E+03  0.27995829564E+03 -0.92285104911E+02  0.37523842059E+03  0.00000000000E+00 0. -1.
         22    1    1    2    0    0 -0.71319463997E+03 -0.71193911909E+03  0.66246523771E+02  0.10098972748E+04  0.00000000000E+00 0.  1.
<mgrwt>
<rscale>  0 0.20577879E+04</rscale>
<asrwt>0</asrwt>
<pdfrwt beam="1">  1        1 0.13909613E+00 0.20577879E+04</pdfrwt>
<pdfrwt beam="2">  1       -1 0.18013556E+00 0.20577879E+04</pdfrwt>
<totfact> 0.34604857E+00</totfact>
</mgrwt>
</event>
<event>
 6    1  0.1831439E-005  0.5575380E+04  0.7818608E-02  0.7745401E-01
          2   -1    0    0  501    0  0.00000000000E+00  0.00000000000E+00  0.46840138750E+04  0.46840138750E+04  0.00000000000E+00 0. -1.
         -2   -1    0    0    0  501 -0.00000000000E+00 -0.00000000000E+00 -0.16590930706E+04  0.16590930706E+04  0.00000000000E+00 0.  1.
         23    2    1    2    0    0 -0.73821732786E+03 -0.47715610692E+03 -0.14960255167E+04  0.17375018374E+04  0.90429611809E+02 0.  0.
         13    1    3    3    0    0 -0.36369892740E+03 -0.19579520558E+03 -0.64071647432E+03  0.76231900985E+03  0.00000000000E+00 0.  1.
        -13    1    3    3    0    0 -0.37451840046E+03 -0.28136090135E+03 -0.85530904243E+03  0.97518282755E+03  0.00000000000E+00 0. -1.
         22    1    1    2    0    0  0.73821732786E+03  0.47715610692E+03  0.45209463212E+04  0.46056051082E+04  0.00000000000E+00 0. -1.
<mgrwt>
<rscale>  0 0.55753798E+04</rscale>
<asrwt>0</asrwt>
<pdfrwt beam="1">  1        2 0.72061752E+00 0.55753798E+04</pdfrwt>
<pdfrwt beam="2">  1       -2 0.25524509E+00 0.55753798E+04</pdfrwt>
<totfact> 0.32676737E-03</totfact>
</mgrwt>
</event>
<event>
 6    1  0.1831439E-005  0.4065930E+04  0.7818608E-02  0.7991377E-01
          1   -1    0    0  501    0  0.00000000000E+00  0.00000000000E+00  0.32461776886E+04  0.32461776886E+04  0.00000000000E+00 0. -1.
         -1   -1    0    0    0  501 -0.00000000000E+00 -0.00000000000E+00 -0.12731732042E+04  0.12731732042E+04  0.00000000000E+00 0.  1.
         23    2    1    2    0    0 -0.17869973998E+03 -0.11039878768E+04  0.28727816077E+04  0.30839688180E+04  0.85244797835E+02 0.  0.
         11    1    3    3    0    0 -0.11969779065E+03 -0.49799267383E+03  0.13613691278E+04  0.14545274719E+04  0.00000000000E+00 0.  1.
        -11    1    3    3    0    0 -0.59001949334E+02 -0.60599520301E+03  0.15114124799E+04  0.16294413461E+04  0.00000000000E+00 0. -1.
         22    1    1    2    0    0  0.17869973998E+03  0.11039878768E+04 -0.89977712326E+03  0.14353820749E+04  0.00000000000E+00 0.  1.
<mgrwt>
<rscale>  0 0.40659299E+04</rscale>
<asrwt>0</asrwt>
<pdfrwt beam="1">  1        1 0.49941195E+00 0.40659299E+04</pdfrwt>
<pdfrwt beam="2">  1       -1 0.19587280E+00 0.40659299E+04</pdfrwt>
<totfact> 0.49052288E-02</totfact>
</mgrwt>
</event>
<event>
 6    1  0.1831439E-005  0.2613676E+04  0.7818608E-02  0.8363571E-01
         -1   -1    0    0    0  501 -0.00000000000E+00  0.00000000000E+00  0.18620613542E+04  0.18620613542E+04  0.00000000000E+00 0.  1.
          1   -1    0    0  501    0  0.00000000000E+00 -0.00000000000E+00 -0.91716929470E+03  0.91716929470E+03  0.00000000000E+00 0. -1.
         23    2    1    2    0    0  0.92573446371E+03 -0.77178230522E+03 -0.61371529476E+02  0.12091355453E+04  0.74900455536E+02 0.  0.
         11    1    3    3    0    0  0.18534818318E+03 -0.12456127337E+03 -0.29181107067E+02  0.22521322528E+03  0.00000000000E+00 0. -1.
        -11    1    3    3    0    0  0.74038628053E+03 -0.64722103185E+03 -0.32190422409E+02  0.98392231998E+03  0.00000000000E+00 0.  1.
         22    1    1    2    0    0 -0.92573446371E+03  0.77178230522E+03  0.10062635890E+04  0.15700951036E+04  0.00000000000E+00 0.  1.
<mgrwt>
<rscale>  0 0.26136760E+04</rscale>
<asrwt>0</asrwt>
<pdfrwt beam="1">  1        1 0.14110297E+00 0.26136760E+04</pdfrwt>
<pdfrwt beam="2">  1       -1 0.28647098E+00 0.26136760E+04</pdfrwt>
<totfact> 0.62632596E-01</totfact>
</mgrwt>
</event>
<event>
 6    1  0.1831439E-005  0.3128483E+04  0.7818608E-02  0.8207964E-01
          2   -1    0    0  501    0  0.00000000000E+00  0.00000000000E+00  0.36512493145E+04  0.36512493145E+04  0.00000000000E+00 0. -1.
         -2   -1    0    0    0  501 -0.00000000000E+00 -0.00000000000E+00 -0.67014079481E+03  0.67014079481E+03  0.00000000000E+00 0.  1.
         23    2    1    2    0    0 -0.92532708876E+03 -0.18555657363E+02 -0.24798273215E+03  0.96228236374E+03  0.88979652279E+02 0.  0.
         13    1    3    3    0    0 -0.25463833812E+03  0.11684011963E+01 -0.10937337735E+03  0.27713639977E+03  0.00000000000E+00 0. -1.
        -13    1    3    3    0    0 -0.67068875064E+03 -0.19724058559E+02 -0.13860935480E+03  0.68514596398E+03  0.00000000000E+00 0.  1.
         22    1    1    2    0    0  0.92532708876E+03  0.18555657363E+02  0.32290912519E+04  0.33591077456E+04  0.00000000000E+00 0. -1.
<mgrwt>
<rscale>  0 0.31284828E+04</rscale>
<asrwt>0</asrwt>
<pdfrwt beam="1">  1        2 0.56173065E+00 0.31284828E+04</pdfrwt>
<pdfrwt beam="2">  1       -2 0.10309859E+00 0.31284828E+04</pdfrwt>
<totfact> 0.41184021E-01</totfact>
</mgrwt>
</event>
<event>
 6    1  0.1831439E-005  0.8350125E+03  0.7818608E-02  0.9510676E-01
          2   -1    0    0  501    0  0.00000000000E+00  0.00000000000E+00  0.27265422405E+04  0.27265422405E+04  0.00000000000E+00 0. -1.
         -2   -1    0    0    0  501 -0.00000000000E+00 -0.00000000000E+00 -0.63931335360E+02  0.63931335360E+02  0.00000000000E+00 0.  1.
         23    2    1    2    0    0  0.17975465645E+03  0.27141545644E+03  0.21943334690E+04  0.22201562575E+04  0.89534059013E+02 0.  0.
         11    1    3    3    0    0  0.98947935343E+02  0.21521738437E+03  0.14252340882E+04  0.14447842132E+04  0.00000000000E+00 0.  1.
        -11    1    3    3    0    0  0.80806721108E+02  0.56198072062E+02  0.76909938080E+03  0.77537204426E+03  0.00000000000E+00 0. -1.
         22    1    1    2    0    0 -0.17975465645E+03 -0.27141545644E+03  0.46827743617E+03  0.57031731846E+03  0.00000000000E+00 0.  1.
<mgrwt>
<rscale>  0 0.83501254E+03</rscale>
<asrwt>0</asrwt>
<pdfrwt beam="1">  1        2 0.41946795E+00 0.83501254E+03</pdfrwt>
<pdfrwt beam="2">  1       -2 0.98355922E-02 0.83501254E+03</pdfrwt>
<totfact> 0.18709101E+02</totfact>
</mgrwt>
</event>
<event>
 6    1  0.1831439E-005  0.3992368E+04  0.7818608E-02  0.8006088E-01
         -2   -1    0    0    0  501 -0.00000000000E+00  0.00000000000E+00  0.14711814710E+04  0.14711814710E+04  0.00000000000E+00 0.  1.
          2   -1    0    0  501    0  0.00000000000E+00 -0.00000000000E+00 -0.27085380178E+04  0.27085380178E+04  0.00000000000E+00 0. -1.
         23    2    1    2    0    0  0.17836473101E+04 -0.34734123148E+03 -0.14813885113E+04  0.23462541204E+04  0.91393752610E+02 0.  0.
         11    1    3    3    0    0  0.16571055386E+04 -0.30495559753E+03 -0.13509595891E+04  0.21596500860E+04  0.00000000000E+00 0.  1.
        -11    1    3    3    0    0  0.12654177150E+03 -0.42385633946E+02 -0.13042892224E+03  0.18660403440E+03  0.00000000000E+00 0. -1.
         22    1    1    2    0    0 -0.17836473101E+04  0.34734123148E+03  0.24403196455E+03  0.18334653685E+04  0.00000000000E+00 0.  1.
<mgrwt>
<rscale>  0 0.39923682E+04</rscale>
<asrwt>0</asrwt>
<pdfrwt beam="1">  1        2 0.41669815E+00 0.39923682E+04</pdfrwt>
<pdfrwt beam="2">  1       -2 0.22633561E+00 0.39923682E+04</pdfrwt>
<totfact> 0.18672249E-01</totfact>
</mgrwt>
</event>
<event>
 6    1  0.1831439E-005  0.1888081E+04  0.7818608E-02  0.8660812E-01
          1   -1    0    0  501    0  0.00000000000E+00  0.00000000000E+00  0.30080473764E+04  0.30080473764E+04  0.00000000000E+00 0. -1.
         -1   -1    0    0    0  501 -0.00000000000E+00 -0.00000000000E+00 -0.29627619868E+03  0.29627619868E+03  0.00000000000E+00 0.  1.
         23    2    1    2    0    0  0.76480650743E+03  0.54777792543E+03  0.12803414581E+04  0.15914369204E+04  0.91692818879E+02 0.  0.
         11    1    3    3    0    0  0.16580020568E+03  0.10806113932E+03  0.21125328897E+03  0.28947343597E+03  0.00000000000E+00 0.  1.
        -11    1    3    3    0    0  0.59900630175E+03  0.43971678611E+03  0.10690881691E+04  0.13019634845E+04  0.00000000000E+00 0. -1.
         22    1    1    2    0    0 -0.76480650743E+03 -0.54777792543E+03  0.14314297197E+04  0.17128866547E+04  0.00000000000E+00 0. -1.
<mgrwt>
<rscale>  0 0.18880814E+04</rscale>
<asrwt>0</asrwt>
<pdfrwt beam="1">  1        1 0.46277650E+00 0.18880814E+04</pdfrwt>
<pdfrwt beam="2">  1       -1 0.45580956E-01 0.18880814E+04</pdfrwt>
<totfact> 0.26474431E+00</totfact>
</mgrwt>
</event>
<event>
 6    1  0.1831439E-005  0.1896594E+04  0.7818608E-02  0.8656554E-01
          2   -1    0    0  501    0  0.00000000000E+00  0.00000000000E+00  0.27593066689E+04  0.27593066689E+04  0.00000000000E+00 0. -1.
         -2   -1    0    0    0  501 -0.00000000000E+00 -0.00000000000E+00 -0.32590325361E+03  0.32590325361E+03  0.00000000000E+00 0.  1.
         23    2    1    2    0    0 -0.40366531869E+03 -0.59142579897E+03  0.22254731106E+04  0.23395791984E+04  0.90388574369E+02 0.  0.
         13    1    3    3    0    0 -0.13015129064E+03 -0.13601049794E+03  0.50443486827E+03  0.53841689269E+03  0.00000000000E+00 0. -1.
        -13    1    3    3    0    0 -0.27351402805E+03 -0.45541530103E+03  0.17210382423E+04  0.18011623057E+04  0.00000000000E+00 0.  1.
         22    1    1    2    0    0  0.40366531869E+03  0.59142579897E+03  0.20793030476E+03  0.74563072418E+03  0.00000000000E+00 0.  1.
<mgrwt>
<rscale>  0 0.18965938E+04</rscale>
<asrwt>0</asrwt>
<pdfrwt beam="1">  1        2 0.42450870E+00 0.18965938E+04</pdfrwt>
<pdfrwt beam="2">  1       -2 0.50138964E-01 0.18965938E+04</pdfrwt>
<totfact> 0.86416406E+00</totfact>
</mgrwt>
</event>
<event>
 6    1  0.1831439E-005  0.1381510E+04  0.7818608E-02  0.8967312E-01
         -2   -1    0    0    0  501 -0.00000000000E+00  0.00000000000E+00  0.32398579702E+03  0.32398579702E+03  0.00000000000E+00 0.  1.
          2   -1    0    0  501    0  0.00000000000E+00 -0.00000000000E+00 -0.14727271248E+04  0.14727271248E+04  0.00000000000E+00 0. -1.
         23    2    1    2    0    0  0.41384266795E+03  0.54887833611E+03 -0.60304597177E+03  0.91903610017E+03  0.91813548440E+02 0.  0.
         13    1    3    3    0    0  0.25365568836E+03  0.34000293571E+03 -0.31178934171E+03  0.52645588432E+03  0.00000000000E+00 0.  1.
        -13    1    3    3    0    0  0.16018697959E+03  0.20887540040E+03 -0.29125663007E+03  0.39258021586E+03  0.00000000000E+00 0. -1.
         22    1    1    2    0    0 -0.41384266795E+03 -0.54887833611E+03 -0.54569535598E+03  0.87767682162E+03  0.00000000000E+00 0.  1.
<mgrwt>
<rscale>  0 0.13815103E+04</rscale>
<asrwt>0</asrwt>
<pdfrwt beam="1">  1        2 0.22657341E+00 0.13815103E+04</pdfrwt>
<pdfrwt beam="2">  1       -2 0.49843968E-01 0.13815103E+04</pdfrwt>
<totfact> 0.48809722E+01</totfact>
</mgrwt>
</event>
<event>
 6    1  0.1831439E-005  0.3055872E+04  0.7818608E-02  0.8227954E-01
          2   -1    0    0  501    0  0.00000000000E+00  0.00000000000E+00  0.16804237703E+04  0.16804237703E+04  0.00000000000E+00 0. -1.
         -2   -1    0    0    0  501 -0.00000000000E+00 -0.00000000000E+00 -0.13892858538E+04  0.13892858538E+04  0.00000000000E+00 0.  1.
         23    2    1    2    0    0 -0.11414620868E+04  0.10049028613E+04  0.28020455894E+03  0.15488924113E+04  0.88247666024E+02 0.  0.
         13    1    3    3    0    0 -0.77467551469E+03  0.65975415743E+03  0.14862834841E+03  0.10283423979E+04  0.00000000000E+00 0.  1.
        -13    1    3    3    0    0 -0.36678657214E+03  0.34514870390E+03  0.13157621053E+03  0.52055001343E+03  0.00000000000E+00 0. -1.
         22    1    1    2    0    0  0.11414620868E+04 -0.10049028613E+04  0.10933357510E+02  0.15208172128E+04  0.00000000000E+00 0. -1.
<mgrwt>
<rscale>  0 0.30558724E+04</rscale>
<asrwt>0</asrwt>
<pdfrwt beam="1">  1        2 0.25852673E+00 0.30558724E+04</pdfrwt>
<pdfrwt beam="2">  1       -2 0.21373629E+00 0.30558724E+04</pdfrwt>
<totfact> 0.92852827E-01</totfact>
</mgrwt>
</event>
<event>
 6    1  0.1831439E-005  0.1361301E+04  0.7818608E-02  0.8982318E-01
         -2   -1    0    0    0  501 -0.00000000000E+00  0.00000000000E+00  0.15956962983E+03  0.15956962983E+03  0.00000000000E+00 0.  1.
          2   -1    0    0  501    0  0.00000000000E+00 -0.00000000000E+00 -0.29033393699E+04  0.29033393699E+04  0.00000000000E+00 0. -1.
         23    2    1    2    0    0  0.15398902831E+03 -0.33817559062E+03 -0.26528895595E+04  0.26803719974E+04  0.92172005409E+02 0.  0.
         11    1    3    3    0    0 -0.27416020153E+01 -0.28235103368E+02 -0.38479466092E+03  0.38583891524E+03  0.00000000000E+00 0.  1.
        -11    1    3    3    0    0  0.15673063033E+03 -0.30994048725E+03 -0.22680948986E+04  0.22945330822E+04  0.00000000000E+00 0. -1.
         22    1    1    2    0    0 -0.15398902831E+03  0.33817559062E+03 -0.90880180569E+02  0.38253700233E+03  0.00000000000E+00 0.  1.
<mgrwt>
<rscale>  0 0.13613005E+04</rscale>
<asrwt>0</asrwt>
<pdfrwt beam="1">  1        2 0.44666758E+00 0.13613005E+04</pdfrwt>
<pdfrwt beam="2">  1       -2 0.24549175E-01 0.13613005E+04</pdfrwt>
<totfact> 0.29187471E+01</totfact>
</mgrwt>
</event>
<event>
 6    1  0.1831439E-005  0.1374294E+04  0.7818608E-02  0.8972639E-01
          2   -1    0    0  501    0  0.00000000000E+00  0.00000000000E+00  0.26591275550E+03  0.26591275550E+03  0.00000000000E+00 0. -1.
         -2   -1    0    0    0  501 -0.00000000000E+00 -0.00000000000E+00 -0.17756619463E+04  0.17756619463E+04  0.00000000000E+00 0.  1.
         23    2    1    2    0    0  0.28342359801E+03 -0.14985106022E+03  0.13932101509E+03  0.36162922051E+03  0.92634074328E+02 0.  0.
         11    1    3    3    0    0  0.32794425819E+02 -0.35336649128E+02  0.55707278017E+02  0.73671255999E+02  0.00000000000E+00 0.  1.
        -11    1    3    3    0    0  0.25062917219E+03 -0.11451441109E+03  0.83613737068E+02  0.28795796451E+03  0.00000000000E+00 0. -1.
         22    1    1    2    0    0 -0.28342359801E+03  0.14985106022E+03 -0.16490702059E+04  0.16799454813E+04  0.00000000000E+00 0.  1.
<mgrwt>
<rscale>  0 0.13742942E+04</rscale>
<asrwt>0</asrwt>
<pdfrwt beam="1">  1        2 0.40909656E-01 0.13742942E+04</pdfrwt>
<pdfrwt beam="2">  1       -2 0.27317875E+00 0.13742942E+04</pdfrwt>
<totfact> 0.56938327E+00</totfact>
</mgrwt>
</event>
<event>
 6    1  0.1831439E-005  0.5987490E+04  0.7818608E-02  0.7691955E-01
          2   -1    0    0  501    0  0.00000000000E+00  0.00000000000E+00  0.32710050776E+04  0.32710050776E+04  0.00000000000E+00 0. -1.
         -2   -1    0    0    0  501 -0.00000000000E+00 -0.00000000000E+00 -0.27399858806E+04  0.27399858806E+04  0.00000000000E+00 0.  1.
         23    2    1    2    0    0  0.19611436927E+04  0.11649774840E+04  0.22109768236E+04  0.31780570112E+04  0.91491697449E+02 0.  0.
         13    1    3    3    0    0  0.70137673058E+03  0.37517480540E+03  0.80567211160E+03  0.11321629760E+04  0.00000000000E+00 0.  1.
        -13    1    3    3    0    0  0.12597669621E+04  0.78980267860E+03  0.14053047120E+04  0.20458940352E+04  0.00000000000E+00 0. -1.
         22    1    1    2    0    0 -0.19611436927E+04 -0.11649774840E+04 -0.16799576266E+04  0.28329339471E+04  0.00000000000E+00 0.  1.
<mgrwt>
<rscale>  0 0.59874895E+04</rscale>
<asrwt>0</asrwt>
<pdfrwt beam="1">  1        2 0.50323155E+00 0.59874895E+04</pdfrwt>
<pdfrwt beam="2">  1       -2 0.42153629E+00 0.59874895E+04</pdfrwt>
<totfact> 0.42075514E-03</totfact>
</mgrwt>
</event>
<event>
 6    1  0.1831439E-005  0.7618803E+03  0.7818608E-02  0.9616894E-01
          2   -1    0    0  501    0  0.00000000000E+00  0.00000000000E+00  0.11038763558E+04  0.11038763558E+04  0.00000000000E+00 0. -1.
         -2   -1    0    0    0  501 -0.00000000000E+00 -0.00000000000E+00 -0.13145983375E+03  0.13145983375E+03  0.00000000000E+00 0.  1.
         23    2    1    2    0    0  0.12395607021E+03 -0.28971848913E+03  0.82409971227E+03  0.88705500090E+03  0.91784141155E+02 0.  0.
         13    1    3    3    0    0  0.36546984778E+02 -0.19718479346E+03  0.52479452636E+03  0.56180674592E+03  0.00000000000E+00 0.  1.
        -13    1    3    3    0    0  0.87409085435E+02 -0.92533695674E+02  0.29930518591E+03  0.32524825498E+03  0.00000000000E+00 0. -1.
         22    1    1    2    0    0 -0.12395607021E+03  0.28971848913E+03  0.14831680975E+03  0.34828118861E+03  0.00000000000E+00 0.  1.
<mgrwt>
<rscale>  0 0.76188031E+03</rscale>
<asrwt>0</asrwt>
<pdfrwt beam="1">  1        2 0.16982713E+00 0.76188031E+03</pdfrwt>
<pdfrwt beam="2">  1       -2 0.20224591E-01 0.76188031E+03</pdfrwt>
<totfact> 0.45629341E+02</totfact>
</mgrwt>
</event>
<event>
 6    1  0.1831439E-005  0.1640160E+04  0.7818608E-02  0.8796249E-01
          2   -1    0    0  501    0  0.00000000000E+00  0.00000000000E+00  0.28141929357E+04  0.28141929357E+04  0.00000000000E+00 0. -1.
         -2   -1    0    0    0  501 -0.00000000000E+00 -0.00000000000E+00 -0.23897839178E+03  0.23897839178E+03  0.00000000000E+00 0.  1.
         23    2    1    2    0    0  0.26793615940E+03  0.59890870010E+03  0.21994734973E+04  0.22970875023E+04  0.91901639795E+02 0.  0.
         11    1    3    3    0    0  0.14821600439E+03  0.42592473803E+03  0.14349237244E+04  0.15041229874E+04  0.00000000000E+00 0.  1.
        -11    1    3    3    0    0  0.11972015501E+03  0.17298396207E+03  0.76454977294E+03  0.79296451494E+03  0.00000000000E+00 0. -1.
         22    1    1    2    0    0 -0.26793615940E+03 -0.59890870010E+03  0.37574104663E+03  0.75608382518E+03  0.00000000000E+00 0. -1.
<mgrwt>
<rscale>  0 0.16401601E+04</rscale>
<asrwt>0</asrwt>
<pdfrwt beam="1">  1        2 0.43295274E+00 0.16401601E+04</pdfrwt>
<pdfrwt beam="2">  1       -2 0.36765908E-01 0.16401601E+04</pdfrwt>
<totfact> 0.15162802E+01</totfact>
</mgrwt>
</event>
<event>
 6    1  0.1831439E-005  0.3079261E+04  0.7818608E-02  0.8221453E-01
          2   -1    0    0  501    0  0.00000000000E+00  0.00000000000E+00  0.21301414593E+04  0.21301414593E+04  0.00000000000E+00 0. -1.
         -2   -1    0    0    0  501 -0.00000000000E+00 -0.00000000000E+00 -0.11128187289E+04  0.11128187289E+04  0.00000000000E+00 0.  1.
         23    2    1    2    0    0 -0.68760187912E+03 -0.59221729712E+03  0.18172359241E+04  0.20332582460E+04  0.90967136666E+02 0.  0.
         13    1    3    3    0    0 -0.38291823695E+03 -0.38825749552E+03  0.10981090002E+04  0.12260561306E+04  0.00000000000E+00 0.  1.
        -13    1    3    3    0    0 -0.30468364217E+03 -0.20395980160E+03  0.71912692391E+03  0.80720211544E+03  0.00000000000E+00 0. -1.
         22    1    1    2    0    0  0.68760187912E+03  0.59221729712E+03 -0.79991319374E+03  0.12097019421E+04  0.00000000000E+00 0.  1.
<mgrwt>
<rscale>  0 0.30792605E+04</rscale>
<asrwt>0</asrwt>
<pdfrwt beam="1">  1        2 0.32771407E+00 0.30792605E+04</pdfrwt>
<pdfrwt beam="2">  1       -2 0.17120288E+00 0.30792605E+04</pdfrwt>
<totfact> 0.10045566E+00</totfact>
</mgrwt>
</event>
<event>
 6    1  0.1831439E-005  0.1049326E+04  0.7818608E-02  0.9256041E-01
         -1   -1    0    0    0  501 -0.00000000000E+00  0.00000000000E+00  0.49880964895E+03  0.49880964895E+03  0.00000000000E+00 0.  1.
          1   -1    0    0  501    0  0.00000000000E+00 -0.00000000000E+00 -0.55185594740E+03  0.55185594740E+03  0.00000000000E+00 0. -1.
         23    2    1    2    0    0  0.12557021002E+03  0.30738187776E+03  0.37551971903E+03  0.50852140172E+03  0.85600585315E+02 0.  0.
         11    1    3    3    0    0  0.58733936390E+02  0.15317020548E+03  0.24887375378E+03  0.29807538048E+03  0.00000000000E+00 0. -1.
        -11    1    3    3    0    0  0.66836273626E+02  0.15421167228E+03  0.12664596526E+03  0.21044602124E+03  0.00000000000E+00 0.  1.
         22    1    1    2    0    0 -0.12557021002E+03 -0.30738187776E+03 -0.42856601748E+03  0.54214419462E+03  0.00000000000E+00 0. -1.
<mgrwt>
<rscale>  0 0.10493256E+04</rscale>
<asrwt>0</asrwt>
<pdfrwt beam="1">  1        1 0.84900915E-01 0.10493256E+04</pdfrwt>
<pdfrwt beam="2">  1       -1 0.76739946E-01 0.10493256E+04</pdfrwt>
<totfact> 0.65790812E+01</totfact>
</mgrwt>
</event>
<event>
 6    1  0.1831439E-005  0.2108623E+04  0.7818608E-02  0.8557454E-01
          1   -1    0    0  501    0  0.00000000000E+00  0.00000000000E+00  0.12737781320E+04  0.12737781320E+04  0.00000000000E+00 0. -1.
         -1   -1    0    0    0  501 -0.00000000000E+00 -0.00000000000E+00 -0.87265782528E+03  0.87265782528E+03  0.00000000000E+00 0.  1.
         23    2    1    2    0    0 -0.10036249562E+04  0.23423368839E+03 -0.13812101524E+02  0.10354465888E+04  0.99148326466E+02 0.  0.
         13    1    3    3    0    0 -0.10254229954E+03 -0.60740828033E+01  0.18642660253E+01  0.10273895641E+03  0.00000000000E+00 0. -1.
        -13    1    3    3    0    0 -0.90108265664E+03  0.24030777119E+03 -0.15676367549E+02  0.93270763238E+03  0.00000000000E+00 0.  1.
         22    1    1    2    0    0  0.10036249562E+04 -0.23423368839E+03  0.41493240824E+03  0.11109893685E+04  0.00000000000E+00 0. -1.
<mgrwt>
<rscale>  0 0.21086227E+04</rscale>
<asrwt>0</asrwt>
<pdfrwt beam="1">  1        1 0.19596587E+00 0.21086227E+04</pdfrwt>
<pdfrwt beam="2">  1       -1 0.13425505E+00 0.21086227E+04</pdfrwt>
<totfact> 0.40562775E+00</totfact>
</mgrwt>
</event>
<event>
 6    1  0.1831439E-005  0.3623859E+04  0.7818608E-02  0.8085048E-01
          1   -1    0    0  501    0  0.00000000000E+00  0.00000000000E+00  0.15392708341E+04  0.15392708341E+04  0.00000000000E+00 0. -1.
         -1   -1    0    0    0  501 -0.00000000000E+00 -0.00000000000E+00 -0.21328850596E+04  0.21328850596E+04  0.00000000000E+00 0.  1.
         23    2    1    2    0    0 -0.13261380730E+03 -0.16014011890E+04  0.54892563141E+03  0.17004892093E+04  0.90950601076E+02 0.  0.
         11    1    3    3    0    0 -0.14293370206E+03 -0.13398646740E+04  0.47059315598E+03  0.14272789869E+04  0.00000000000E+00 0.  1.
        -11    1    3    3    0    0  0.10319894762E+02 -0.26153651500E+03  0.78332475437E+02  0.27321022238E+03  0.00000000000E+00 0. -1.
         22    1    1    2    0    0  0.13261380730E+03  0.16014011890E+04 -0.11425398569E+04  0.19716666845E+04  0.00000000000E+00 0.  1.
<mgrwt>
<rscale>  0 0.36238586E+04</rscale>
<asrwt>0</asrwt>
<pdfrwt beam="1">  1        1 0.23681090E+00 0.36238586E+04</pdfrwt>
<pdfrwt beam="2">  1       -1 0.32813616E+00 0.36238586E+04</pdfrwt>
<totfact> 0.10739450E-01</totfact>
</mgrwt>
</event>
<event>
 6    1  0.1831439E-005  0.7354691E+03  0.7818608E-02  0.9658427E-01
          2   -1    0    0  501    0  0.00000000000E+00  0.00000000000E+00  0.77062696578E+03  0.77062696578E+03  0.00000000000E+00 0. -1.
         -2   -1    0    0    0  501 -0.00000000000E+00 -0.00000000000E+00 -0.17547880421E+03  0.17547880421E+03  0.00000000000E+00 0.  1.
         23    2    1    2    0    0  0.27566553066E+03  0.21762252937E+03  0.41682492543E+03  0.55221463449E+03  0.88582921618E+02 0.  0.
         11    1    3    3    0    0  0.65345767129E+02  0.10336045867E+03  0.15587008247E+03  0.19811344303E+03  0.00000000000E+00 0. -1.
        -11    1    3    3    0    0  0.21031976353E+03  0.11426207070E+03  0.26095484296E+03  0.35410119146E+03  0.00000000000E+00 0.  1.
         22    1    1    2    0    0 -0.27566553066E+03 -0.21762252937E+03  0.17832323613E+03  0.39389113550E+03  0.00000000000E+00 0. -1.
<mgrwt>
<rscale>  0 0.73546910E+03</rscale>
<asrwt>0</asrwt>
<pdfrwt beam="1">  1        2 0.11855799E+00 0.73546910E+03</pdfrwt>
<pdfrwt beam="2">  1       -2 0.26996739E-01 0.73546910E+03</pdfrwt>
<totfact> 0.45354003E+02</totfact>
</mgrwt>
</event>
<event>
 6    1  0.1831439E-005  0.4644955E+03  0.7818608E-02  0.1023485E+00
          2   -1    0    0  501    0  0.00000000000E+00  0.00000000000E+00  0.18013947681E+04  0.18013947681E+04  0.00000000000E+00 0. -1.
         -2   -1    0    0    0  501 -0.00000000000E+00 -0.00000000000E+00 -0.29942914099E+02  0.29942914099E+02  0.00000000000E+00 0.  1.
         23    2    1    2    0    0 -0.91024826677E+02 -0.20389357817E+03  0.96526832825E+03  0.99480317157E+03  0.89623068163E+02 0.  0.
         13    1    3    3    0    0 -0.52346059371E+02 -0.28425488320E+02  0.19733342037E+03  0.20612762336E+03  0.00000000000E+00 0. -1.
        -13    1    3    3    0    0 -0.38678767305E+02 -0.17546808985E+03  0.76793490789E+03  0.78867554821E+03  0.00000000000E+00 0.  1.
         22    1    1    2    0    0  0.91024826677E+02  0.20389357817E+03  0.80618352579E+03  0.83653451067E+03  0.00000000000E+00 0.  1.
<mgrwt>
<rscale>  0 0.46449546E+03</rscale>
<asrwt>0</asrwt>
<pdfrwt beam="1">  1        2 0.27713757E+00 0.46449546E+03</pdfrwt>
<pdfrwt beam="2">  1       -2 0.46066036E-02 0.46449546E+03</pdfrwt>
<totfact> 0.20787736E+03</totfact>
</mgrwt>
</event>
<event>
 6    1  0.1831439E-005  0.2460854E+04  0.7818608E-02  0.8417066E-01
         -2   -1    0    0    0  501 -0.00000000000E+00  0.00000000000E+00  0.76134172028E+03  0.76134172028E+03  0.00000000000E+00 0.  1.
          2   -1    0    0  501    0  0.00000000000E+00 -0.00000000000E+00 -0.19885291596E+04  0.19885291596E+04  0.00000000000E+00 0. -1.
         23    2    1    2    0    0 -0.96229635604E+03 -0.15622348207E+03  0.22122523008E+03  0.10039272055E+04  0.92245207571E+02 0.  0.
         11    1    3    3    0    0 -0.64145483899E+03 -0.76720904448E+02  0.11103244811E+03  0.65549875070E+03  0.00000000000E+00 0.  1.
        -11    1    3    3    0    0 -0.32084151705E+03 -0.79502577627E+02  0.11019278197E+03  0.34842845480E+03  0.00000000000E+00 0. -1.
         22    1    1    2    0    0  0.96229635604E+03  0.15622348207E+03 -0.14484126693E+04  0.17459436743E+04  0.00000000000E+00 0. -1.
<mgrwt>
<rscale>  0 0.24608537E+04</rscale>
<asrwt>0</asrwt>
<pdfrwt beam="1">  1        2 0.30592756E+00 0.24608537E+04</pdfrwt>
<pdfrwt beam="2">  1       -2 0.11712949E+00 0.24608537E+04</pdfrwt>
<totfact> 0.34199998E+00</totfact>
</mgrwt>
</event>
<event>
 6    1  0.1831439E-005  0.2708170E+04  0.7818608E-02  0.8332359E-01
         -1   -1    0    0    0  501 -0.00000000000E+00  0.00000000000E+00  0.10840424155E+04  0.10840424155E+04  0.00000000000E+00 0.  1.
          1   -1    0    0  501    0  0.00000000000E+00 -0.00000000000E+00 -0.16913965105E+04  0.16913965105E+04  0.00000000000E+00 0. -1.
         23    2    1    2    0    0  0.10529678763E+04 -0.74531489065E+03  0.11242592749E+03  0.12981715447E+04  0.91510303065E+02 0.  0.
         13    1    3    3    0    0  0.53060494238E+03 -0.31958588291E+03  0.52655846352E+02  0.62165052851E+03  0.00000000000E+00 0.  1.
        -13    1    3    3    0    0  0.52236293394E+03 -0.42572900774E+03  0.59770081139E+02  0.67652101622E+03  0.00000000000E+00 0. -1.
         22    1    1    2    0    0 -0.10529678763E+04  0.74531489065E+03 -0.71978002254E+03  0.14772673812E+04  0.00000000000E+00 0. -1.
<mgrwt>
<rscale>  0 0.27081695E+04</rscale>
<asrwt>0</asrwt>
<pdfrwt beam="1">  1        1 0.26021485E+00 0.27081695E+04</pdfrwt>
<pdfrwt beam="2">  1       -1 0.16677576E+00 0.27081695E+04</pdfrwt>
<totfact> 0.10957563E+00</totfact>
</mgrwt>
</event>
<event>
 6    1  0.1831439E-005  0.2120004E+04  0.7818608E-02  0.8552482E-01
          2   -1    0    0  501    0  0.00000000000E+00  0.00000000000E+00  0.19819371191E+04  0.19819371191E+04  0.00000000000E+00 0. -1.
         -2   -1    0    0    0  501 -0.00000000000E+00 -0.00000000000E+00 -0.56692204313E+03  0.56692204313E+03  0.00000000000E+00 0.  1.
         23    2    1    2    0    0 -0.10569540813E+04 -0.60964137866E-01  0.65408809335E+03  0.12464913929E+04  0.93582184036E+02 0.  0.
         13    1    3    3    0    0 -0.29336808044E+03  0.35516355229E+02  0.20886345331E+03  0.36187039702E+03  0.00000000000E+00 0. -1.
        -13    1    3    3    0    0 -0.76358600084E+03 -0.35577319367E+02  0.44522464004E+03  0.88462099592E+03  0.00000000000E+00 0.  1.
         22    1    1    2    0    0  0.10569540813E+04  0.60964137866E-01  0.76092698267E+03  0.13023677693E+04  0.00000000000E+00 0. -1.
<mgrwt>
<rscale>  0 0.21200036E+04</rscale>
<asrwt>0</asrwt>
<pdfrwt beam="1">  1        2 0.30491340E+00 0.21200036E+04</pdfrwt>
<pdfrwt beam="2">  1       -2 0.87218777E-01 0.21200036E+04</pdfrwt>
<totfact> 0.71457470E+00</totfact>
</mgrwt>
</event>
<event>
 6    1  0.1831439E-005  0.3646721E+04  0.7818608E-02  0.8079873E-01
          2   -1    0    0  501    0  0.00000000000E+00  0.00000000000E+00  0.36023144014E+04  0.36023144014E+04  0.00000000000E+00 0. -1.
         -2   -1    0    0    0  501 -0.00000000000E+00 -0.00000000000E+00 -0.92291899624E+03  0.92291899624E+03  0.00000000000E+00 0.  1.
         23    2    1    2    0    0  0.10806794251E+04 -0.13451804597E+04  0.20677616676E+04  0.26945301672E+04  0.86463974308E+02 0.  0.
         13    1    3    3    0    0  0.29691121010E+03 -0.36912799711E+03  0.50865148073E+03  0.69508134328E+03  0.00000000000E+00 0. -1.
        -13    1    3    3    0    0  0.78376821500E+03 -0.97605246258E+03  0.15591101869E+04  0.19994488239E+04  0.00000000000E+00 0.  1.
         22    1    1    2    0    0 -0.10806794251E+04  0.13451804597E+04  0.61163373750E+03  0.18307032304E+04  0.00000000000E+00 0.  1.
<mgrwt>
<rscale>  0 0.36467215E+04</rscale>
<asrwt>0</asrwt>
<pdfrwt beam="1">  1        2 0.55420221E+00 0.36467215E+04</pdfrwt>
<pdfrwt beam="2">  1       -2 0.14198754E+00 0.36467215E+04</pdfrwt>
<totfact> 0.19294593E-01</totfact>
</mgrwt>
</event>
<event>
 6    1  0.1831439E-005  0.3570459E+04  0.7818608E-02  0.8097292E-01
          2   -1    0    0  501    0  0.00000000000E+00  0.00000000000E+00  0.22708009482E+04  0.22708009482E+04  0.00000000000E+00 0. -1.
         -2   -1    0    0    0  501 -0.00000000000E+00 -0.00000000000E+00 -0.14034892807E+04  0.14034892807E+04  0.00000000000E+00 0.  1.
         23    2    1    2    0    0 -0.10314916672E+03  0.35955498085E+03  0.22290599818E+04  0.22621011459E+04  0.92052469943E+02 0.  0.
         13    1    3    3    0    0 -0.11449791453E+03  0.25441754361E+03  0.15649787964E+04  0.15896530100E+04  0.00000000000E+00 0.  1.
        -13    1    3    3    0    0  0.11348747818E+02  0.10513743723E+03  0.66408118538E+03  0.67244813596E+03  0.00000000000E+00 0. -1.
         22    1    1    2    0    0  0.10314916672E+03 -0.35955498085E+03 -0.13617483143E+04  0.14121890830E+04  0.00000000000E+00 0.  1.
<mgrwt>
<rscale>  0 0.35704592E+04</rscale>
<asrwt>0</asrwt>
<pdfrwt beam="1">  1        2 0.34935399E+00 0.35704592E+04</pdfrwt>
<pdfrwt beam="2">  1       -2 0.21592143E+00 0.35704592E+04</pdfrwt>
<totfact> 0.40372522E-01</totfact>
</mgrwt>
</event>
<event>
 6    1  0.1831439E-005  0.3816712E+04  0.7818608E-02  0.8042578E-01
          1   -1    0    0  501    0  0.00000000000E+00  0.00000000000E+00  0.16011026118E+04  0.16011026118E+04  0.00000000000E+00 0. -1.
         -1   -1    0    0    0  501 -0.00000000000E+00 -0.00000000000E+00 -0.22745712232E+04  0.22745712232E+04  0.00000000000E+00 0.  1.
         23    2    1    2    0    0 -0.35634402451E+03  0.12634588039E+04  0.10680420707E+04  0.16948096327E+04  0.91414513247E+02 0.  0.
         13    1    3    3    0    0 -0.24106609822E+02  0.20582490362E+03  0.16042297200E+03  0.26206974173E+03  0.00000000000E+00 0. -1.
        -13    1    3    3    0    0 -0.33223741468E+03  0.10576339003E+04  0.90761909873E+03  0.14327398909E+04  0.00000000000E+00 0.  1.
         22    1    1    2    0    0  0.35634402451E+03 -0.12634588039E+04 -0.17415106821E+04  0.21808642023E+04  0.00000000000E+00 0.  1.
<mgrwt>
<rscale>  0 0.38167116E+04</rscale>
<asrwt>0</asrwt>
<pdfrwt beam="1">  1        1 0.24632348E+00 0.38167116E+04</pdfrwt>
<pdfrwt beam="2">  1       -1 0.34993403E+00 0.38167116E+04</pdfrwt>
<totfact> 0.68810533E-02</totfact>
</mgrwt>
</event>
<event>
 6    1  0.1831439E-005  0.1476680E+04  0.7818608E-02  0.8900110E-01
          2   -1    0    0  501    0  0.00000000000E+00  0.00000000000E+00  0.25636499887E+04  0.25636499887E+04  0.00000000000E+00 0.  1.
         -2   -1    0    0    0  501 -0.00000000000E+00 -0.00000000000E+00 -0.21264451177E+03  0.21264451177E+03  0.00000000000E+00 0. -1.
         23    2    1    2    0    0 -0.45979219131E+03  0.43426584848E+03  0.18860676404E+04  0.19913340695E+04  0.90357876763E+02 0.  0.
         13    1    3    3    0    0 -0.10866826083E+03  0.13365026462E+03  0.62176567576E+03  0.64518504299E+03  0.00000000000E+00 0.  1.
        -13    1    3    3    0    0 -0.35112393048E+03  0.30061558386E+03  0.12643019646E+04  0.13461490265E+04  0.00000000000E+00 0. -1.
         22    1    1    2    0    0  0.45979219131E+03 -0.43426584848E+03  0.46493783657E+03  0.78496043099E+03  0.00000000000E+00 0. -1.
<mgrwt>
<rscale>  0 0.14766802E+04</rscale>
<asrwt>0</asrwt>
<pdfrwt beam="1">  1        2 0.39440767E+00 0.14766802E+04</pdfrwt>
<pdfrwt beam="2">  1       -2 0.32714542E-01 0.14766802E+04</pdfrwt>
<totfact> 0.27046529E+01</totfact>
</mgrwt>
</event>
<event>
 6    1  0.1831439E-005  0.1940226E+04  0.7818608E-02  0.8635088E-01
         -1   -1    0    0    0  501 -0.00000000000E+00  0.00000000000E+00  0.42137538630E+03  0.42137538630E+03  0.00000000000E+00 0.  1.
          1   -1    0    0  501    0  0.00000000000E+00 -0.00000000000E+00 -0.22334471371E+04  0.22334471371E+04  0.00000000000E+00 0. -1.
         23    2    1    2    0    0 -0.52722746076E+03 -0.30137433341E+02  0.20196762740E+03  0.57270060642E+03  0.91203080016E+02 0.  0.
         13    1    3    3    0    0 -0.43886572096E+03 -0.16800199209E+02  0.20181702899E+03  0.48333785380E+03  0.00000000000E+00 0.  1.
        -13    1    3    3    0    0 -0.88361739805E+02 -0.13337234132E+02  0.15059840731E+00  0.89362752619E+02  0.00000000000E+00 0. -1.
         22    1    1    2    0    0  0.52722746076E+03  0.30137433341E+02 -0.20140393782E+04  0.20821219170E+04  0.00000000000E+00 0. -1.
<mgrwt>
<rscale>  0 0.19402264E+04</rscale>
<asrwt>0</asrwt>
<pdfrwt beam="1">  1        1 0.34360725E+00 0.19402264E+04</pdfrwt>
<pdfrwt beam="2">  1       -1 0.64826983E-01 0.19402264E+04</pdfrwt>
<totfact> 0.46506068E+00</totfact>
</mgrwt>
</event>
<event>
 6    1  0.1831439E-005  0.1937896E+04  0.7818608E-02  0.8636220E-01
          1   -1    0    0  501    0  0.00000000000E+00  0.00000000000E+00  0.18072873723E+04  0.18072873723E+04  0.00000000000E+00 0. -1.
         -1   -1    0    0    0  501 -0.00000000000E+00 -0.00000000000E+00 -0.51948559413E+03  0.51948559413E+03  0.00000000000E+00 0.  1.
         23    2    1    2    0    0  0.79906210648E+03  0.45350064824E+03  0.10068709380E+04  0.13659997231E+04  0.89459878820E+02 0.  0.
         13    1    3    3    0    0  0.14323102461E+03  0.87101486104E+02  0.13589614916E+03  0.21579981151E+03  0.00000000000E+00 0.  1.
        -13    1    3    3    0    0  0.65583108187E+03  0.36639916214E+03  0.87097478882E+03  0.11501999116E+04  0.00000000000E+00 0. -1.
         22    1    1    2    0    0 -0.79906210648E+03 -0.45350064824E+03  0.28093084015E+03  0.96077324323E+03  0.00000000000E+00 0.  1.
<mgrwt>
<rscale>  0 0.19378955E+04</rscale>
<asrwt>0</asrwt>
<pdfrwt beam="1">  1        1 0.27804421E+00 0.19378955E+04</pdfrwt>
<pdfrwt beam="2">  1       -1 0.79920862E-01 0.19378955E+04</pdfrwt>
<totfact> 0.58713084E+00</totfact>
</mgrwt>
</event>
<event>
 6    1  0.1831439E-005  0.2275620E+04  0.7818608E-02  0.8487596E-01
         -2   -1    0    0    0  501 -0.00000000000E+00  0.00000000000E+00  0.42431451122E+03  0.42431451122E+03  0.00000000000E+00 0. -1.
          2   -1    0    0  501    0  0.00000000000E+00 -0.00000000000E+00 -0.30510656211E+04  0.30510656211E+04  0.00000000000E+00 0.  1.
         23    2    1    2    0    0 -0.69753061057E+03  0.38957346474E+03 -0.25488156443E+04  0.26726408384E+04  0.90727204328E+02 0.  0.
         13    1    3    3    0    0 -0.62052826757E+03  0.31114066225E+03 -0.21975103111E+04  0.23045423429E+04  0.00000000000E+00 0.  1.
        -13    1    3    3    0    0 -0.77002342998E+02  0.78432802484E+02 -0.35130533314E+03  0.36809849555E+03  0.00000000000E+00 0. -1.
         22    1    1    2    0    0  0.69753061057E+03 -0.38957346474E+03 -0.77935465581E+02  0.80273929386E+03  0.00000000000E+00 0. -1.
<mgrwt>
<rscale>  0 0.22756198E+04</rscale>
<asrwt>0</asrwt>
<pdfrwt beam="1">  1        2 0.46939470E+00 0.22756198E+04</pdfrwt>
<pdfrwt beam="2">  1       -2 0.65279158E-01 0.22756198E+04</pdfrwt>
<totfact> 0.31802607E+00</totfact>
</mgrwt>
</event>
<event>
 6    1  0.1831439E-005  0.3398835E+04  0.7818608E-02  0.8138192E-01
          1   -1    0    0  501    0  0.00000000000E+00  0.00000000000E+00  0.18616056177E+04  0.18616056177E+04  0.00000000000E+00 0.  1.
         -1   -1    0    0    0  501 -0.00000000000E+00 -0.00000000000E+00 -0.15513594522E+04  0.15513594522E+04  0.00000000000E+00 0. -1.
         23    2    1    2    0    0 -0.10590283973E+04  0.75713509531E+03 -0.93967881500E+03  0.16082193383E+04  0.92620008129E+02 0.  0.
         11    1    3    3    0    0 -0.75809518873E+03  0.52190731299E+03 -0.61532876113E+03  0.11071246736E+04  0.00000000000E+00 0. -1.
        -11    1    3    3    0    0 -0.30093320860E+03  0.23522778232E+03 -0.32435005387E+03  0.50109466477E+03  0.00000000000E+00 0.  1.
         22    1    1    2    0    0  0.10590283973E+04 -0.75713509531E+03  0.12499249805E+04  0.18047457316E+04  0.00000000000E+00 0.  1.
<mgrwt>
<rscale>  0 0.33988348E+04</rscale>
<asrwt>0</asrwt>
<pdfrwt beam="1">  1        1 0.28640086E+00 0.33988348E+04</pdfrwt>
<pdfrwt beam="2">  1       -1 0.23867069E+00 0.33988348E+04</pdfrwt>
<totfact> 0.25182382E-01</totfact>
</mgrwt>
</event>
<event>
 6    1  0.1831439E-005  0.2242994E+04  0.7818608E-02  0.8500743E-01
         -1   -1    0    0    0  501 -0.00000000000E+00  0.00000000000E+00  0.13568313145E+04  0.13568313145E+04  0.00000000000E+00 0.  1.
          1   -1    0    0  501    0  0.00000000000E+00 -0.00000000000E+00 -0.92697963792E+03  0.92697963792E+03  0.00000000000E+00 0. -1.
         23    2    1    2    0    0  0.58277049739E+03 -0.77157355879E+03  0.79014749772E+03  0.12519387278E+04  0.89834852500E+02 0.  0.
         11    1    3    3    0    0  0.43742146752E+03 -0.63857653249E+03  0.62470273367E+03  0.99467131936E+03  0.00000000000E+00 0. -1.
        -11    1    3    3    0    0  0.14534902987E+03 -0.13299702630E+03  0.16544476404E+03  0.25726740843E+03  0.00000000000E+00 0.  1.
         22    1    1    2    0    0 -0.58277049739E+03  0.77157355879E+03 -0.36029582114E+03  0.10318722246E+04  0.00000000000E+00 0. -1.
<mgrwt>
<rscale>  0 0.22429935E+04</rscale>
<asrwt>0</asrwt>
<pdfrwt beam="1">  1        1 0.14261225E+00 0.22429935E+04</pdfrwt>
<pdfrwt beam="2">  1       -1 0.20874328E+00 0.22429935E+04</pdfrwt>
<totfact> 0.20599141E+00</totfact>
</mgrwt>
</event>
<event>
 6    1  0.1831439E-005  0.2679000E+04  0.7818608E-02  0.8341851E-01
          2   -1    0    0  501    0  0.00000000000E+00  0.00000000000E+00  0.20246844454E+04  0.20246844454E+04  0.00000000000E+00 0. -1.
         -2   -1    0    0    0  501 -0.00000000000E+00 -0.00000000000E+00 -0.88619243797E+03  0.88619243797E+03  0.00000000000E+00 0.  1.
         23    2    1    2    0    0  0.94484537757E+03  0.73826804398E+03 -0.75120775778E+02  0.12048204717E+04  0.90425360242E+02 0.  0.
         13    1    3    3    0    0  0.52641714780E+03  0.40563615477E+03 -0.86421596175E+02  0.67016743866E+03  0.00000000000E+00 0.  1.
        -13    1    3    3    0    0  0.41842822977E+03  0.33263188921E+03  0.11300820396E+02  0.53465303303E+03  0.00000000000E+00 0. -1.
         22    1    1    2    0    0 -0.94484537757E+03 -0.73826804398E+03  0.12136127832E+04  0.17060564117E+04  0.00000000000E+00 0. -1.
<mgrwt>
<rscale>  0 0.26789998E+04</rscale>
<asrwt>0</asrwt>
<pdfrwt beam="1">  1        2 0.31148991E+00 0.26789998E+04</pdfrwt>
<pdfrwt beam="2">  1       -2 0.13633730E+00 0.26789998E+04</pdfrwt>
<totfact> 0.21883542E+00</totfact>
</mgrwt>
</event>
<event>
 6    1  0.1831439E-005  0.2803404E+04  0.7818608E-02  0.8302212E-01
         -2   -1    0    0    0  501 -0.00000000000E+00  0.00000000000E+00  0.27628771475E+04  0.27628771475E+04  0.00000000000E+00 0.  1.
          2   -1    0    0  501    0  0.00000000000E+00 -0.00000000000E+00 -0.71113125941E+03  0.71113125941E+03  0.00000000000E+00 0. -1.
         23    2    1    2    0    0 -0.67101294996E+02 -0.90112263658E+03  0.23524162280E+04  0.25216811295E+04  0.92135875100E+02 0.  0.
         11    1    3    3    0    0 -0.92442215930E+01 -0.11396765162E+03  0.39226672132E+03  0.40859180352E+03  0.00000000000E+00 0.  1.
        -11    1    3    3    0    0 -0.57857073403E+02 -0.78715498496E+03  0.19601495067E+04  0.21130893260E+04  0.00000000000E+00 0. -1.
         22    1    1    2    0    0  0.67101294996E+02  0.90112263658E+03 -0.30067033988E+03  0.95232727737E+03  0.00000000000E+00 0. -1.
<mgrwt>
<rscale>  0 0.28034039E+04</rscale>
<asrwt>0</asrwt>
<pdfrwt beam="1">  1        2 0.10940481E+00 0.28034039E+04</pdfrwt>
<pdfrwt beam="2">  1       -2 0.42505802E+00 0.28034039E+04</pdfrwt>
<totfact> 0.17720814E-01</totfact>
</mgrwt>
</event>
<event>
 6    1  0.1831439E-005  0.6094453E+03  0.7818608E-02  0.9886002E-01
          2   -1    0    0  501    0  0.00000000000E+00  0.00000000000E+00  0.22637348440E+03  0.22637348440E+03  0.00000000000E+00 0. -1.
         -2   -1    0    0    0  501 -0.00000000000E+00 -0.00000000000E+00 -0.41018886632E+03  0.41018886632E+03  0.00000000000E+00 0.  1.
         23    2    1    2    0    0 -0.39379814238E+02 -0.19970555975E+03  0.13364461099E+03  0.25944973166E+03  0.89555574054E+02 0.  0.
         11    1    3    3    0    0 -0.11941901770E+02 -0.13399360490E+03  0.37216510241E+02  0.13957780556E+03  0.00000000000E+00 0. -1.
        -11    1    3    3    0    0 -0.27437912468E+02 -0.65711954858E+02  0.96428100748E+02  0.11987192610E+03  0.00000000000E+00 0.  1.
         22    1    1    2    0    0  0.39379814238E+02  0.19970555975E+03 -0.31745999290E+03  0.37711261907E+03  0.00000000000E+00 0.  1.
<mgrwt>
<rscale>  0 0.60944527E+03</rscale>
<asrwt>0</asrwt>
<pdfrwt beam="1">  1        2 0.34826690E-01 0.60944527E+03</pdfrwt>
<pdfrwt beam="2">  1       -2 0.63105979E-01 0.60944527E+03</pdfrwt>
<totfact> 0.35339590E+02</totfact>
</mgrwt>
</event>
<event>
 6    1  0.1831439E-005  0.2935601E+04  0.7818608E-02  0.8262363E-01
         -2   -1    0    0    0  501 -0.00000000000E+00  0.00000000000E+00  0.87901100783E+03  0.87901100783E+03  0.00000000000E+00 0.  1.
          2   -1    0    0  501    0  0.00000000000E+00 -0.00000000000E+00 -0.24509790933E+04  0.24509790933E+04  0.00000000000E+00 0. -1.
         23    2    1    2    0    0  0.65776305731E+03 -0.12102309773E+04 -0.21618804258E+03  0.13972586706E+04  0.91012442624E+02 0.  0.
         13    1    3    3    0    0  0.36981755891E+03 -0.58909721724E+03 -0.95817914711E+02  0.70212650642E+03  0.00000000000E+00 0. -1.
        -13    1    3    3    0    0  0.28794549841E+03 -0.62113376005E+03 -0.12037012787E+03  0.69513216413E+03  0.00000000000E+00 0.  1.
         22    1    1    2    0    0 -0.65776305731E+03  0.12102309773E+04 -0.13557800429E+04  0.19327314305E+04  0.00000000000E+00 0. -1.
<mgrwt>
<rscale>  0 0.29356005E+04</rscale>
<asrwt>0</asrwt>
<pdfrwt beam="1">  1        2 0.37707370E+00 0.29356005E+04</pdfrwt>
<pdfrwt beam="2">  1       -2 0.13523246E+00 0.29356005E+04</pdfrwt>
<totfact> 0.12557990E+00</totfact>
</mgrwt>
</event>
<event>
 6    1  0.1831439E-005  0.3289374E+04  0.7818608E-02  0.8165604E-01
         -2   -1    0    0    0  501 -0.00000000000E+00  0.00000000000E+00  0.11781019381E+04  0.11781019381E+04  0.00000000000E+00 0.  1.
          2   -1    0    0  501    0  0.00000000000E+00 -0.00000000000E+00 -0.22960620002E+04  0.22960620002E+04  0.00000000000E+00 0. -1.
         23    2    1    2    0    0 -0.19932395383E+03  0.10347223484E+04 -0.18914262484E+04  0.21670180711E+04  0.89964939582E+02 0.  0.
         11    1    3    3    0    0 -0.37787764504E+02  0.41545146416E+03 -0.71667268926E+03  0.82924518554E+03  0.00000000000E+00 0. -1.
        -11    1    3    3    0    0 -0.16153618933E+03  0.61927088424E+03 -0.11747535592E+04  0.13377728855E+04  0.00000000000E+00 0.  1.
         22    1    1    2    0    0  0.19932395383E+03 -0.10347223484E+04  0.77346618633E+03  0.13071458672E+04  0.00000000000E+00 0.  1.
<mgrwt>
<rscale>  0 0.32893739E+04</rscale>
<asrwt>0</asrwt>
<pdfrwt beam="1">  1        2 0.35324031E+00 0.32893739E+04</pdfrwt>
<pdfrwt beam="2">  1       -2 0.18124645E+00 0.32893739E+04</pdfrwt>
<totfact> 0.67716541E-01</totfact>
</mgrwt>
</event>
<event>
 6    1  0.1831439E-005  0.8406863E+03  0.7818608E-02  0.9502923E-01
         -4   -1    0    0    0  501 -0.00000000000E+00  0.00000000000E+00  0.16858430817E+03  0.16858430817E+03  0.00000000000E+00 0.  1.
          4   -1    0    0  501    0  0.00000000000E+00 -0.00000000000E+00 -0.10480713207E+04  0.10480713207E+04  0.00000000000E+00 0. -1.
         23    2    1    2    0    0 -0.41292665113E+03 -0.42090357863E+02 -0.46669482190E+03  0.63126908131E+03  0.91741914031E+02 0.  0.
         13    1    3    3    0    0 -0.14862003678E+03 -0.58907159130E+02 -0.16293723138E+03  0.22826850440E+03  0.00000000000E+00 0. -1.
        -13    1    3    3    0    0 -0.26430661435E+03  0.16816801267E+02 -0.30375759052E+03  0.40300057691E+03  0.00000000000E+00 0.  1.
         22    1    1    2    0    0  0.41292665113E+03  0.42090357863E+02 -0.41279219067E+03  0.58538654760E+03  0.00000000000E+00 0.  1.
<mgrwt>
<rscale>  0 0.84068634E+03</rscale>
<asrwt>0</asrwt>
<pdfrwt beam="1">  1        4 0.16124174E+00 0.84068634E+03</pdfrwt>
<pdfrwt beam="2">  1       -4 0.25936048E-01 0.84068634E+03</pdfrwt>
<totfact> 0.69521217E+00</totfact>
</mgrwt>
</event>
<event>
 6    1  0.1831439E-005  0.4521100E+04  0.7818608E-02  0.7906953E-01
         -1   -1    0    0    0  501 -0.00000000000E+00  0.00000000000E+00  0.17793255539E+04  0.17793255539E+04  0.00000000000E+00 0.  1.
          1   -1    0    0  501    0  0.00000000000E+00 -0.00000000000E+00 -0.28719232141E+04  0.28719232141E+04  0.00000000000E+00 0. -1.
         23    2    1    2    0    0  0.14025715958E+04  0.94750853396E+03 -0.20866286585E+04  0.26883231126E+04  0.89902703039E+02 0.  0.
         13    1    3    3    0    0  0.89676483430E+03  0.55322858897E+03 -0.12995097032E+04  0.16730136008E+04  0.00000000000E+00 0. -1.
        -13    1    3    3    0    0  0.50580676145E+03  0.39427994499E+03 -0.78711895533E+03  0.10153095118E+04  0.00000000000E+00 0.  1.
         22    1    1    2    0    0 -0.14025715958E+04 -0.94750853396E+03  0.99403099827E+03  0.19629256554E+04  0.00000000000E+00 0.  1.
<mgrwt>
<rscale>  0 0.45211000E+04</rscale>
<asrwt>0</asrwt>
<pdfrwt beam="1">  1        1 0.44183433E+00 0.45211000E+04</pdfrwt>
<pdfrwt beam="2">  1       -1 0.27374240E+00 0.45211000E+04</pdfrwt>
<totfact> 0.27126372E-02</totfact>
</mgrwt>
</event>
<event>
 6    1  0.1831439E-005  0.2089310E+04  0.7818608E-02  0.8565967E-01
         -1   -1    0    0    0  501 -0.00000000000E+00  0.00000000000E+00  0.33804420050E+04  0.33804420050E+04  0.00000000000E+00 0.  1.
          1   -1    0    0  501    0  0.00000000000E+00 -0.00000000000E+00 -0.32282866349E+03  0.32282866349E+03  0.00000000000E+00 0. -1.
         23    2    1    2    0    0 -0.34282914303E+03  0.55994540444E+03  0.29675572750E+04  0.30405635142E+04  0.86946111310E+02 0.  0.
         13    1    3    3    0    0 -0.53145670026E+02  0.76125058816E+02  0.29933366204E+03  0.31340090628E+03  0.00000000000E+00 0. -1.
        -13    1    3    3    0    0 -0.28968347300E+03  0.48382034562E+03  0.26682236130E+04  0.27271626079E+04  0.00000000000E+00 0.  1.
         22    1    1    2    0    0  0.34282914303E+03 -0.55994540444E+03  0.90056066539E+02  0.66270715432E+03  0.00000000000E+00 0. -1.
<mgrwt>
<rscale>  0 0.20893095E+04</rscale>
<asrwt>0</asrwt>
<pdfrwt beam="1">  1        1 0.49665951E-01 0.20893095E+04</pdfrwt>
<pdfrwt beam="2">  1       -1 0.52006798E+00 0.20893095E+04</pdfrwt>
<totfact> 0.81101361E-02</totfact>
</mgrwt>
</event>
<event>
 6    1  0.1831439E-005  0.3178392E+04  0.7818608E-02  0.8194547E-01
          2   -1    0    0  501    0  0.00000000000E+00  0.00000000000E+00  0.33971219477E+04  0.33971219477E+04  0.00000000000E+00 0. -1.
         -2   -1    0    0    0  501 -0.00000000000E+00 -0.00000000000E+00 -0.74343611381E+03  0.74343611381E+03  0.00000000000E+00 0.  1.
         23    2    1    2    0    0  0.64962037703E+03  0.54202786765E+03 -0.42249874254E+03  0.95014862198E+03  0.92067219166E+02 0.  0.
         13    1    3    3    0    0  0.11892680410E+03  0.78592592002E+02 -0.10664711676E+03  0.17802805330E+03  0.00000000000E+00 0.  1.
        -13    1    3    3    0    0  0.53069357294E+03  0.46343527564E+03 -0.31585162578E+03  0.77212056868E+03  0.00000000000E+00 0. -1.
         22    1    1    2    0    0 -0.64962037703E+03 -0.54202786765E+03  0.30761845764E+04  0.31904094395E+04  0.00000000000E+00 0. -1.
<mgrwt>
<rscale>  0 0.31783915E+04</rscale>
<asrwt>0</asrwt>
<pdfrwt beam="1">  1        2 0.52263414E+00 0.31783915E+04</pdfrwt>
<pdfrwt beam="2">  1       -2 0.11437479E+00 0.31783915E+04</pdfrwt>
<totfact> 0.48221727E-01</totfact>
</mgrwt>
</event>
<event>
 6    1  0.1831439E-005  0.3334094E+04  0.7818608E-02  0.8154274E-01
         -2   -1    0    0    0  501 -0.00000000000E+00  0.00000000000E+00  0.15157038631E+04  0.15157038631E+04  0.00000000000E+00 0.  1.
          2   -1    0    0  501    0  0.00000000000E+00 -0.00000000000E+00 -0.18335014315E+04  0.18335014315E+04  0.00000000000E+00 0. -1.
         23    2    1    2    0    0 -0.20403410500E+03  0.35098748864E+03 -0.17818721973E+04  0.18298841790E+04  0.92657693032E+02 0.  0.
         11    1    3    3    0    0 -0.15809482166E+03  0.18451584334E+03 -0.10950285542E+04  0.11216628743E+04  0.00000000000E+00 0.  1.
        -11    1    3    3    0    0 -0.45939283337E+02  0.16647164530E+03 -0.68684364309E+03  0.70822130475E+03  0.00000000000E+00 0. -1.
         22    1    1    2    0    0  0.20403410500E+03 -0.35098748864E+03  0.14640746289E+04  0.15193211155E+04  0.00000000000E+00 0.  1.
<mgrwt>
<rscale>  0 0.33340937E+04</rscale>
<asrwt>0</asrwt>
<pdfrwt beam="1">  1        2 0.28207714E+00 0.33340937E+04</pdfrwt>
<pdfrwt beam="2">  1       -2 0.23318521E+00 0.33340937E+04</pdfrwt>
<totfact> 0.56236553E-01</totfact>
</mgrwt>
</event>
<event>
 6    1  0.1831439E-005  0.1188016E+04  0.7818608E-02  0.9123411E-01
          1   -1    0    0  501    0  0.00000000000E+00  0.00000000000E+00  0.10045035278E+04  0.10045035278E+04  0.00000000000E+00 0. -1.
         -1   -1    0    0    0  501 -0.00000000000E+00 -0.00000000000E+00 -0.35126387335E+03  0.35126387335E+03  0.00000000000E+00 0.  1.
         23    2    1    2    0    0 -0.38031900688E+03 -0.45134830678E+03  0.35599430648E+03  0.69492503118E+03  0.88493003617E+02 0.  0.
         13    1    3    3    0    0 -0.14852830891E+03 -0.22709934359E+03  0.12846421810E+03  0.30022962169E+03  0.00000000000E+00 0. -1.
        -13    1    3    3    0    0 -0.23179069798E+03 -0.22424896319E+03  0.22753008838E+03  0.39469540950E+03  0.00000000000E+00 0.  1.
         22    1    1    2    0    0  0.38031900688E+03  0.45134830678E+03  0.29724534794E+03  0.66084236994E+03  0.00000000000E+00 0.  1.
<mgrwt>
<rscale>  0 0.11880165E+04</rscale>
<asrwt>0</asrwt>
<pdfrwt beam="1">  1        1 0.15453900E+00 0.11880165E+04</pdfrwt>
<pdfrwt beam="2">  1       -1 0.54040596E-01 0.11880165E+04</pdfrwt>
<totfact> 0.51388628E+01</totfact>
</mgrwt>
</event>
<event>
 6    1  0.1831439E-005  0.1340329E+04  0.7818608E-02  0.8998182E-01
          1   -1    0    0  501    0  0.00000000000E+00  0.00000000000E+00  0.62650921464E+03  0.62650921464E+03  0.00000000000E+00 0. -1.
         -1   -1    0    0    0  501 -0.00000000000E+00 -0.00000000000E+00 -0.71686131867E+03  0.71686131867E+03  0.00000000000E+00 0.  1.
         23    2    1    2    0    0  0.40403354986E+03 -0.42492322922E+03 -0.36419463454E+03  0.69622866968E+03  0.91070129607E+02 0.  0.
         13    1    3    3    0    0  0.25506126047E+03 -0.20496447223E+03 -0.21529493600E+03  0.39168685316E+03  0.00000000000E+00 0.  1.
        -13    1    3    3    0    0  0.14897228940E+03 -0.21995875699E+03 -0.14889969854E+03  0.30454181652E+03  0.00000000000E+00 0. -1.
         22    1    1    2    0    0 -0.40403354986E+03  0.42492322922E+03  0.27384253050E+03  0.64714186363E+03  0.00000000000E+00 0. -1.
<mgrwt>
<rscale>  0 0.13403286E+04</rscale>
<asrwt>0</asrwt>
<pdfrwt beam="1">  1        1 0.96386034E-01 0.13403286E+04</pdfrwt>
<pdfrwt beam="2">  1       -1 0.11028636E+00 0.13403286E+04</pdfrwt>
<totfact> 0.23902734E+01</totfact>
</mgrwt>
</event>
<event>
 6    1  0.1831439E-005  0.3150811E+04  0.7818608E-02  0.8201930E-01
          2   -1    0    0  501    0  0.00000000000E+00  0.00000000000E+00  0.33291781309E+04  0.33291781309E+04  0.00000000000E+00 0. -1.
         -2   -1    0    0    0  501 -0.00000000000E+00 -0.00000000000E+00 -0.74550010340E+03  0.74550010340E+03  0.00000000000E+00 0.  1.
         23    2    1    2    0    0 -0.15737170615E+04  0.33335347221E+02  0.13108016362E+04  0.20503484829E+04  0.89617725990E+02 0.  0.
         11    1    3    3    0    0 -0.73327259217E+03 -0.79726071036E+00  0.66474481959E+03  0.98973481561E+03  0.00000000000E+00 0.  1.
        -11    1    3    3    0    0 -0.84044446931E+03  0.34132607931E+02  0.64605681664E+03  0.10606136673E+04  0.00000000000E+00 0. -1.
         22    1    1    2    0    0  0.15737170615E+04 -0.33335347221E+02  0.12728763913E+04  0.20243297514E+04  0.00000000000E+00 0. -1.
<mgrwt>
<rscale>  0 0.31508111E+04</rscale>
<asrwt>0</asrwt>
<pdfrwt beam="1">  1        2 0.51218124E+00 0.31508111E+04</pdfrwt>
<pdfrwt beam="2">  1       -2 0.11469233E+00 0.31508111E+04</pdfrwt>
<totfact> 0.53379356E-01</totfact>
</mgrwt>
</event>
<event>
 6    1  0.1831439E-005  0.2052075E+04  0.7818608E-02  0.8582654E-01
         -1   -1    0    0    0  501 -0.00000000000E+00  0.00000000000E+00  0.83246604226E+03  0.83246604226E+03  0.00000000000E+00 0.  1.
          1   -1    0    0  501    0  0.00000000000E+00 -0.00000000000E+00 -0.12646191732E+04  0.12646191732E+04  0.00000000000E+00 0. -1.
         23    2    1    2    0    0 -0.24187863577E+03 -0.49510824042E+03  0.66599905526E+03  0.86843731300E+03  0.83613281466E+02 0.  0.
         11    1    3    3    0    0 -0.50862262385E+02 -0.19559975029E+03  0.24115302714E+03  0.31464426667E+03  0.00000000000E+00 0. -1.
        -11    1    3    3    0    0 -0.19101637338E+03 -0.29950849012E+03  0.42484602811E+03  0.55379304633E+03  0.00000000000E+00 0.  1.
         22    1    1    2    0    0  0.24187863577E+03  0.49510824042E+03 -0.10981521862E+04  0.12286479025E+04  0.00000000000E+00 0. -1.
<mgrwt>
<rscale>  0 0.20520746E+04</rscale>
<asrwt>0</asrwt>
<pdfrwt beam="1">  1        1 0.19455679E+00 0.20520746E+04</pdfrwt>
<pdfrwt beam="2">  1       -1 0.12807170E+00 0.20520746E+04</pdfrwt>
<totfact> 0.46647202E+00</totfact>
</mgrwt>
</event>
<event>
 6    1  0.1831439E-005  0.2439172E+04  0.7818608E-02  0.8424982E-01
         -1   -1    0    0    0  501 -0.00000000000E+00  0.00000000000E+00  0.70021830384E+03  0.70021830384E+03  0.00000000000E+00 0.  1.
          1   -1    0    0  501    0  0.00000000000E+00 -0.00000000000E+00 -0.21241799288E+04  0.21241799288E+04  0.00000000000E+00 0. -1.
         23    2    1    2    0    0  0.10138890193E+04 -0.33418530887E+03 -0.34478573450E+02  0.10721671079E+04  0.93288644186E+02 0.  0.
         13    1    3    3    0    0  0.76257078885E+03 -0.26605600860E+03 -0.63618346309E+02  0.81015264099E+03  0.00000000000E+00 0.  1.
        -13    1    3    3    0    0  0.25131823043E+03 -0.68129300269E+02  0.29139772859E+02  0.26201446690E+03  0.00000000000E+00 0. -1.
         22    1    1    2    0    0 -0.10138890193E+04  0.33418530887E+03 -0.13894830515E+04  0.17522311247E+04  0.00000000000E+00 0. -1.
<mgrwt>
<rscale>  0 0.24391717E+04</rscale>
<asrwt>0</asrwt>
<pdfrwt beam="1">  1        1 0.32679691E+00 0.24391717E+04</pdfrwt>
<pdfrwt beam="2">  1       -1 0.10772589E+00 0.24391717E+04</pdfrwt>
<totfact> 0.17565453E+00</totfact>
</mgrwt>
</event>
<event>
 6    1  0.1831439E-005  0.5186113E+03  0.7818608E-02  0.1009032E+00
          2   -1    0    0  501    0  0.00000000000E+00  0.00000000000E+00  0.28627621944E+04  0.28627621944E+04  0.00000000000E+00 0. -1.
         -2   -1    0    0    0  501 -0.00000000000E+00 -0.00000000000E+00 -0.23487598861E+02  0.23487598861E+02  0.00000000000E+00 0.  1.
         23    2    1    2    0    0  0.59509166869E+02  0.17124610503E+03  0.24334393289E+04  0.24417626359E+04  0.87813627209E+02 0.  0.
         13    1    3    3    0    0  0.44331178389E+02  0.36017432878E+02  0.10773279633E+04  0.10788410677E+04  0.00000000000E+00 0.  1.
        -13    1    3    3    0    0  0.15177988480E+02  0.13522867215E+03  0.13561113656E+04  0.13629215682E+04  0.00000000000E+00 0. -1.
         22    1    1    2    0    0 -0.59509166869E+02 -0.17124610503E+03  0.40583526664E+03  0.44448715738E+03  0.00000000000E+00 0.  1.
<mgrwt>
<rscale>  0 0.51861126E+03</rscale>
<asrwt>0</asrwt>
<pdfrwt beam="1">  1        2 0.44042468E+00 0.51861126E+03</pdfrwt>
<pdfrwt beam="2">  1       -2 0.36134790E-02 0.51861126E+03</pdfrwt>
<totfact> 0.77518688E+02</totfact>
</mgrwt>
</event>
<event>
 6    1  0.1831439E-005  0.1747983E+04  0.7818608E-02  0.8734461E-01
         -1   -1    0    0    0  501 -0.00000000000E+00  0.00000000000E+00  0.45386304492E+03  0.45386304492E+03  0.00000000000E+00 0.  1.
          1   -1    0    0  501    0  0.00000000000E+00 -0.00000000000E+00 -0.16830215517E+04  0.16830215517E+04  0.00000000000E+00 0. -1.
         23    2    1    2    0    0 -0.84297944386E+03  0.47766758941E+02 -0.35114625126E+03  0.91877067466E+03  0.89105874192E+02 0.  0.
         11    1    3    3    0    0 -0.63992077462E+03  0.43655432147E+02 -0.30623924338E+03  0.71076498840E+03  0.00000000000E+00 0. -1.
        -11    1    3    3    0    0 -0.20305866924E+03  0.41113267944E+01 -0.44907007878E+02  0.20800568626E+03  0.00000000000E+00 0.  1.
         22    1    1    2    0    0  0.84297944386E+03 -0.47766758941E+02 -0.87801225549E+03  0.12181139219E+04  0.00000000000E+00 0. -1.
<mgrwt>
<rscale>  0 0.17479832E+04</rscale>
<asrwt>0</asrwt>
<pdfrwt beam="1">  1        1 0.25892639E+00 0.17479832E+04</pdfrwt>
<pdfrwt beam="2">  1       -1 0.69825084E-01 0.17479832E+04</pdfrwt>
<totfact> 0.96210201E+00</totfact>
</mgrwt>
</event>
<event>
 6    1  0.1831439E-005  0.2075901E+04  0.7818608E-02  0.8571934E-01
          2   -1    0    0  501    0  0.00000000000E+00  0.00000000000E+00  0.98039056000E+03  0.98039056000E+03  0.00000000000E+00 0.  1.
         -2   -1    0    0    0  501 -0.00000000000E+00 -0.00000000000E+00 -0.10988901768E+04  0.10988901768E+04  0.00000000000E+00 0. -1.
         23    2    1    2    0    0 -0.12572745881E+01  0.81842664288E+03 -0.69560001407E+03  0.10778474544E+04  0.89844336860E+02 0.  0.
         11    1    3    3    0    0  0.42510939001E+02  0.38839758447E+03 -0.31398876850E+03  0.50124725466E+03  0.00000000000E+00 0.  1.
        -11    1    3    3    0    0 -0.43768213589E+02  0.43002905841E+03 -0.38161124557E+03  0.57660019974E+03  0.00000000000E+00 0. -1.
         22    1    1    2    0    0  0.12572745881E+01 -0.81842664288E+03  0.57710039728E+03  0.10014332824E+04  0.00000000000E+00 0.  1.
<mgrwt>
<rscale>  0 0.20759013E+04</rscale>
<asrwt>0</asrwt>
<pdfrwt beam="1">  1        2 0.15082932E+00 0.20759013E+04</pdfrwt>
<pdfrwt beam="2">  1       -2 0.16906003E+00 0.20759013E+04</pdfrwt>
<totfact> 0.51822251E+00</totfact>
</mgrwt>
</event>
<event>
 6    1  0.2133071E-005  0.2703570E+04  0.7818608E-02  0.8333848E-01
          1   -1    0    0  501    0  0.00000000000E+00  0.00000000000E+00  0.22568038713E+04  0.22568038713E+04  0.00000000000E+00 0. -1.
         -1   -1    0    0    0  501 -0.00000000000E+00 -0.00000000000E+00 -0.80969504187E+03  0.80969504187E+03  0.00000000000E+00 0.  1.
         23    2    1    2    0    0  0.11233352353E+03  0.10629514352E+04 -0.21177628249E+03  0.10930794472E+04  0.86538488478E+02 0.  0.
         13    1    3    3    0    0  0.18387635739E+02  0.36323679491E+03 -0.10872181065E+03  0.37960440782E+03  0.00000000000E+00 0. -1.
        -13    1    3    3    0    0  0.93945887791E+02  0.69971464028E+03 -0.10305447184E+03  0.71347503938E+03  0.00000000000E+00 0.  1.
         22    1    1    2    0    0 -0.11233352353E+03 -0.10629514352E+04  0.16588851119E+04  0.19734194659E+04  0.00000000000E+00 0. -1.
<mgrwt>
<rscale>  0 0.27035702E+04</rscale>
<asrwt>0</asrwt>
<pdfrwt beam="1">  1        1 0.34720059E+00 0.27035702E+04</pdfrwt>
<pdfrwt beam="2">  1       -1 0.12456847E+00 0.27035702E+04</pdfrwt>
<totfact> 0.98136407E-01</totfact>
</mgrwt>
</event>
<event>
 6    1  0.1831439E-005  0.2754835E+04  0.7818608E-02  0.8317429E-01
          2   -1    0    0  501    0  0.00000000000E+00  0.00000000000E+00  0.40920676773E+04  0.40920676773E+04  0.00000000000E+00 0. -1.
         -2   -1    0    0    0  501 -0.00000000000E+00 -0.00000000000E+00 -0.46364793244E+03  0.46364793244E+03  0.00000000000E+00 0.  1.
         23    2    1    2    0    0 -0.24790743768E+03 -0.13512726171E+04  0.19404967079E+04  0.23793700576E+04  0.92079391973E+02 0.  0.
         11    1    3    3    0    0 -0.16330792095E+03 -0.78030259724E+03  0.10543223987E+04  0.13217932292E+04  0.00000000000E+00 0. -1.
        -11    1    3    3    0    0 -0.84599516735E+02 -0.57097001988E+03  0.88617430913E+03  0.10575768284E+04  0.00000000000E+00 0.  1.
         22    1    1    2    0    0  0.24790743768E+03  0.13512726171E+04  0.16879230370E+04  0.21763455521E+04  0.00000000000E+00 0. -1.
<mgrwt>
<rscale>  0 0.27548348E+04</rscale>
<asrwt>0</asrwt>
<pdfrwt beam="1">  1        2 0.62954885E+00 0.27548348E+04</pdfrwt>
<pdfrwt beam="2">  1       -2 0.71330454E-01 0.27548348E+04</pdfrwt>
<totfact> 0.44823978E-01</totfact>
</mgrwt>
</event>
<event>
 6    1  0.1831439E-005  0.1996845E+04  0.7818608E-02  0.8608097E-01
         -1   -1    0    0    0  501 -0.00000000000E+00  0.00000000000E+00  0.41506294045E+03  0.41506294045E+03  0.00000000000E+00 0.  1.
          1   -1    0    0  501    0  0.00000000000E+00 -0.00000000000E+00 -0.24016779419E+04  0.24016779419E+04  0.00000000000E+00 0. -1.
         23    2    1    2    0    0  0.59722325631E+03  0.63063305290E+03 -0.16831759815E+04  0.18967143044E+04  0.10034990062E+03 0.  0.
         11    1    3    3    0    0  0.24214172955E+03  0.26843183234E+03 -0.80785631351E+03  0.88505372101E+03  0.00000000000E+00 0. -1.
        -11    1    3    3    0    0  0.35508152677E+03  0.36220122056E+03 -0.87531966804E+03  0.10116605834E+04  0.00000000000E+00 0.  1.
         22    1    1    2    0    0 -0.59722325631E+03 -0.63063305290E+03 -0.30343901995E+03  0.92002657794E+03  0.00000000000E+00 0.  1.
<mgrwt>
<rscale>  0 0.19968450E+04</rscale>
<asrwt>0</asrwt>
<pdfrwt beam="1">  1        1 0.36948891E+00 0.19968450E+04</pdfrwt>
<pdfrwt beam="2">  1       -1 0.63855838E-01 0.19968450E+04</pdfrwt>
<totfact> 0.36578477E+00</totfact>
</mgrwt>
</event>
<event>
 6    1  0.1831439E-005  0.1350839E+04  0.7818608E-02  0.8990193E-01
         -1   -1    0    0    0  501 -0.00000000000E+00  0.00000000000E+00  0.59503731705E+03  0.59503731705E+03  0.00000000000E+00 0.  1.
          1   -1    0    0  501    0  0.00000000000E+00 -0.00000000000E+00 -0.76666070351E+03  0.76666070351E+03  0.00000000000E+00 0. -1.
         23    2    1    2    0    0  0.47092757672E+03 -0.35590633384E+03  0.23812668617E+03  0.64313193243E+03  0.92044895874E+02 0.  0.
         13    1    3    3    0    0  0.24669566066E+03 -0.16124025891E+03  0.16318928872E+03  0.33687967293E+03  0.00000000000E+00 0. -1.
        -13    1    3    3    0    0  0.22423191606E+03 -0.19466607493E+03  0.74937397453E+02  0.30625225950E+03  0.00000000000E+00 0.  1.
         22    1    1    2    0    0 -0.47092757672E+03  0.35590633384E+03 -0.40975007263E+03  0.71856608813E+03  0.00000000000E+00 0. -1.
<mgrwt>
<rscale>  0 0.13508393E+04</rscale>
<asrwt>0</asrwt>
<pdfrwt beam="1">  1        1 0.11794780E+00 0.13508393E+04</pdfrwt>
<pdfrwt beam="2">  1       -1 0.91544203E-01 0.13508393E+04</pdfrwt>
<totfact> 0.26951953E+01</totfact>
</mgrwt>
</event>
<event>
 6    1  0.1831439E-005  0.4484710E+04  0.7818608E-02  0.7913319E-01
         -2   -1    0    0    0  501 -0.00000000000E+00  0.00000000000E+00  0.18983350637E+04  0.18983350637E+04  0.00000000000E+00 0.  1.
          2   -1    0    0  501    0  0.00000000000E+00 -0.00000000000E+00 -0.26487193223E+04  0.26487193223E+04  0.00000000000E+00 0. -1.
         23    2    1    2    0    0  0.96152489213E+03  0.14719832792E+04 -0.17848853277E+04  0.25070893485E+04  0.91741354050E+02 0.  0.
         13    1    3    3    0    0  0.52831838624E+03  0.72665311315E+03 -0.92400863801E+03  0.12887734585E+04  0.00000000000E+00 0. -1.
        -13    1    3    3    0    0  0.43320650589E+03  0.74533016601E+03 -0.86087668970E+03  0.12183158901E+04  0.00000000000E+00 0.  1.
         22    1    1    2    0    0 -0.96152489213E+03 -0.14719832792E+04  0.10345010690E+04  0.20399650375E+04  0.00000000000E+00 0.  1.
<mgrwt>
<rscale>  0 0.44847104E+04</rscale>
<asrwt>0</asrwt>
<pdfrwt beam="1">  1        2 0.40749528E+00 0.44847104E+04</pdfrwt>
<pdfrwt beam="2">  1       -2 0.29205155E+00 0.44847104E+04</pdfrwt>
<totfact> 0.76813156E-02</totfact>
</mgrwt>
</event>
<event>
 6    1  0.1831439E-005  0.1824303E+04  0.7818608E-02  0.8693481E-01
         -2   -1    0    0    0  501 -0.00000000000E+00  0.00000000000E+00  0.68449188389E+03  0.68449188389E+03  0.00000000000E+00 0.  1.
          2   -1    0    0  501    0  0.00000000000E+00 -0.00000000000E+00 -0.12155301571E+04  0.12155301571E+04  0.00000000000E+00 0. -1.
         23    2    1    2    0    0  0.10658565161E+03 -0.19599897117E+03  0.65244989665E+03  0.69568805656E+03  0.92276251389E+02 0.  0.
         13    1    3    3    0    0 -0.15777646829E+02 -0.13401618086E+02  0.75468550860E+02  0.78256243685E+02  0.00000000000E+00 0.  1.
        -13    1    3    3    0    0  0.12236329844E+03 -0.18259735308E+03  0.57698134579E+03  0.61743181288E+03  0.00000000000E+00 0. -1.
         22    1    1    2    0    0 -0.10658565161E+03  0.19599897117E+03 -0.11834881699E+04  0.12043339844E+04  0.00000000000E+00 0. -1.
<mgrwt>
<rscale>  0 0.18243032E+04</rscale>
<asrwt>0</asrwt>
<pdfrwt beam="1">  1        2 0.18700464E+00 0.18243032E+04</pdfrwt>
<pdfrwt beam="2">  1       -2 0.10530645E+00 0.18243032E+04</pdfrwt>
<totfact> 0.12754290E+01</totfact>
</mgrwt>
</event>
<event>
 6    1  0.1831439E-005  0.6758788E+04  0.7818608E-02  0.7602836E-01
         -1   -1    0    0    0  501 -0.00000000000E+00  0.00000000000E+00  0.45298602169E+04  0.45298602169E+04  0.00000000000E+00 0.  1.
          1   -1    0    0  501    0  0.00000000000E+00 -0.00000000000E+00 -0.25211164329E+04  0.25211164329E+04  0.00000000000E+00 0. -1.
         23    2    1    2    0    0 -0.28589364904E+03 -0.20837939551E+04 -0.17541504020E+04  0.27401408746E+04  0.85999733955E+02 0.  0.
         13    1    3    3    0    0 -0.22567467699E+03 -0.13871264722E+04 -0.11976705046E+04  0.18464732728E+04  0.00000000000E+00 0. -1.
        -13    1    3    3    0    0 -0.60218972057E+02 -0.69666748296E+03 -0.55647989738E+03  0.89366760185E+03  0.00000000000E+00 0.  1.
         22    1    1    2    0    0  0.28589364904E+03  0.20837939551E+04  0.37628941859E+04  0.43108357752E+04  0.00000000000E+00 0.  1.
<mgrwt>
<rscale>  0 0.67587884E+04</rscale>
<asrwt>0</asrwt>
<pdfrwt beam="1">  1        1 0.38786407E+00 0.67587884E+04</pdfrwt>
<pdfrwt beam="2">  1       -1 0.69690157E+00 0.67587884E+04</pdfrwt>
<totfact> 0.17373340E-04</totfact>
</mgrwt>
</event>
<event>
 6    1  0.1831439E-005  0.1900889E+04  0.7818608E-02  0.8654414E-01
         -1   -1    0    0    0  501 -0.00000000000E+00  0.00000000000E+00  0.97971364796E+03  0.97971364796E+03  0.00000000000E+00 0.  1.
          1   -1    0    0  501    0  0.00000000000E+00 -0.00000000000E+00 -0.92204937574E+03  0.92204937574E+03  0.00000000000E+00 0. -1.
         23    2    1    2    0    0  0.66649525528E+03 -0.67299212370E+03 -0.17217793579E+02  0.95163584924E+03  0.90443425857E+02 0.  0.
         11    1    3    3    0    0  0.27018315727E+03 -0.25276368545E+03  0.35082974292E+02  0.37164396166E+03  0.00000000000E+00 0. -1.
        -11    1    3    3    0    0  0.39631209802E+03 -0.42022843825E+03 -0.52300767871E+02  0.57999188759E+03  0.00000000000E+00 0.  1.
         22    1    1    2    0    0 -0.66649525528E+03  0.67299212370E+03  0.74882065802E+02  0.95012717446E+03  0.00000000000E+00 0. -1.
<mgrwt>
<rscale>  0 0.19008886E+04</rscale>
<asrwt>0</asrwt>
<pdfrwt beam="1">  1        1 0.14185375E+00 0.19008886E+04</pdfrwt>
<pdfrwt beam="2">  1       -1 0.15072518E+00 0.19008886E+04</pdfrwt>
<totfact> 0.56250152E+00</totfact>
</mgrwt>
</event>
<event>
 6    1  0.1831439E-005  0.8507000E+03  0.7818608E-02  0.9489398E-01
         -2   -1    0    0    0  501 -0.00000000000E+00  0.00000000000E+00  0.13343087480E+03  0.13343087480E+03  0.00000000000E+00 0.  1.
          2   -1    0    0  501    0  0.00000000000E+00 -0.00000000000E+00 -0.13559277159E+04  0.13559277159E+04  0.00000000000E+00 0. -1.
         23    2    1    2    0    0  0.31701015407E+03 -0.20356675812E+03 -0.29083305380E+03  0.48440472343E+03  0.90162121209E+02 0.  0.
         11    1    3    3    0    0  0.68807012484E+00  0.11007431868E+01  0.51344206369E+01  0.52959750128E+01  0.00000000000E+00 0.  1.
        -11    1    3    3    0    0  0.31632208395E+03 -0.20466750131E+03 -0.29596747444E+03  0.47910874842E+03  0.00000000000E+00 0. -1.
         22    1    1    2    0    0 -0.31701015407E+03  0.20356675812E+03 -0.93166378730E+03  0.10049538673E+04  0.00000000000E+00 0. -1.
<mgrwt>
<rscale>  0 0.85070000E+03</rscale>
<asrwt>0</asrwt>
<pdfrwt beam="1">  1        2 0.20860427E+00 0.85070000E+03</pdfrwt>
<pdfrwt beam="2">  1       -2 0.20527826E-01 0.85070000E+03</pdfrwt>
<totfact> 0.31434444E+02</totfact>
</mgrwt>
</event>
<event>
 6    1  0.1831439E-005  0.8513244E+03  0.7818608E-02  0.9488561E-01
         -1   -1    0    0    0  501 -0.00000000000E+00  0.00000000000E+00  0.89914635657E+02  0.89914635657E+02  0.00000000000E+00 0.  1.
          1   -1    0    0  501    0  0.00000000000E+00 -0.00000000000E+00 -0.20151149676E+04  0.20151149676E+04  0.00000000000E+00 0. -1.
         23    2    1    2    0    0 -0.12970598717E+03  0.39248941304E+03 -0.11620030897E+04  0.12370770625E+04  0.96108769729E+02 0.  0.
         13    1    3    3    0    0 -0.96052251237E+02  0.25895042820E+03 -0.89506817321E+03  0.93671147849E+03  0.00000000000E+00 0.  1.
        -13    1    3    3    0    0 -0.33653735932E+02  0.13353898485E+03 -0.26693491649E+03  0.30036558401E+03  0.00000000000E+00 0. -1.
         22    1    1    2    0    0  0.12970598717E+03 -0.39248941304E+03 -0.76319724229E+03  0.86795254081E+03  0.00000000000E+00 0.  1.
<mgrwt>
<rscale>  0 0.85132445E+03</rscale>
<asrwt>0</asrwt>
<pdfrwt beam="1">  1        1 0.31001765E+00 0.85132445E+03</pdfrwt>
<pdfrwt beam="2">  1       -1 0.13833023E-01 0.85132445E+03</pdfrwt>
<totfact> 0.11148034E+02</totfact>
</mgrwt>
</event>
<event>
 6    1  0.1831439E-005  0.2312977E+04  0.7818608E-02  0.8472822E-01
         -2   -1    0    0    0  501 -0.00000000000E+00  0.00000000000E+00  0.34872761729E+03  0.34872761729E+03  0.00000000000E+00 0.  1.
          2   -1    0    0  501    0  0.00000000000E+00 -0.00000000000E+00 -0.38352738422E+04  0.38352738422E+04  0.00000000000E+00 0. -1.
         23    2    1    2    0    0  0.54710397912E+03 -0.37357408103E+02 -0.35841779599E+04  0.36270002965E+04  0.89895288362E+02 0.  0.
         11    1    3    3    0    0  0.34756306115E+03 -0.76405907469E+00 -0.24947542403E+04  0.25188488214E+04  0.00000000000E+00 0.  1.
        -11    1    3    3    0    0  0.19954091797E+03 -0.36593349028E+02 -0.10894237196E+04  0.11081514752E+04  0.00000000000E+00 0. -1.
         22    1    1    2    0    0 -0.54710397912E+03  0.37357408103E+02  0.97631734955E+02  0.55700116299E+03  0.00000000000E+00 0.  1.
<mgrwt>
<rscale>  0 0.23129772E+04</rscale>
<asrwt>0</asrwt>
<pdfrwt beam="1">  1        2 0.59004215E+00 0.23129772E+04</pdfrwt>
<pdfrwt beam="2">  1       -2 0.53650400E-01 0.23129772E+04</pdfrwt>
<totfact> 0.13744947E+00</totfact>
</mgrwt>
</event>
<event>
 6    1  0.1831439E-005  0.1128994E+04  0.7818608E-02  0.9177384E-01
         -2   -1    0    0    0  501 -0.00000000000E+00  0.00000000000E+00  0.13739411495E+04  0.13739411495E+04  0.00000000000E+00 0.  1.
          2   -1    0    0  501    0  0.00000000000E+00 -0.00000000000E+00 -0.23192914647E+03  0.23192914647E+03  0.00000000000E+00 0. -1.
         23    2    1    2    0    0  0.40963703586E+03 -0.13203189052E+03  0.10852449363E+04  0.11717534671E+04  0.10007344612E+03 0.  0.
         11    1    3    3    0    0  0.10740755477E+03 -0.11918682770E+02  0.38119920783E+03  0.39622124359E+03  0.00000000000E+00 0.  1.
        -11    1    3    3    0    0  0.30222948109E+03 -0.12011320775E+03  0.70404572846E+03  0.77553222349E+03  0.00000000000E+00 0. -1.
         22    1    1    2    0    0 -0.40963703586E+03  0.13203189052E+03  0.56767066746E+02  0.43411682889E+03  0.00000000000E+00 0. -1.
<mgrwt>
<rscale>  0 0.11289942E+04</rscale>
<asrwt>0</asrwt>
<pdfrwt beam="1">  1        2 0.35681408E-01 0.11289942E+04</pdfrwt>
<pdfrwt beam="2">  1       -2 0.21137556E+00 0.11289942E+04</pdfrwt>
<totfact> 0.16288957E+01</totfact>
</mgrwt>
</event>
<event>
 6    1  0.1831439E-005  0.3625137E+04  0.7818608E-02  0.8084758E-01
         -1   -1    0    0    0  501 -0.00000000000E+00  0.00000000000E+00  0.15025680814E+04  0.15025680814E+04  0.00000000000E+00 0.  1.
          1   -1    0    0  501    0  0.00000000000E+00 -0.00000000000E+00 -0.21865258246E+04  0.21865258246E+04  0.00000000000E+00 0. -1.
         23    2    1    2    0    0  0.35594947266E+03 -0.14044852715E+04 -0.14485808458E+04  0.20508242719E+04  0.90635657002E+02 0.  0.
         13    1    3    3    0    0  0.32895487031E+03 -0.11600567282E+04 -0.12002306328E+04  0.17013219834E+04  0.00000000000E+00 0. -1.
        -13    1    3    3    0    0  0.26994602343E+02 -0.24442854332E+03 -0.24835021302E+03  0.34950228848E+03  0.00000000000E+00 0.  1.
         22    1    1    2    0    0 -0.35594947266E+03  0.14044852715E+04  0.76462310261E+03  0.16382696341E+04  0.00000000000E+00 0.  1.
<mgrwt>
<rscale>  0 0.36251366E+04</rscale>
<asrwt>0</asrwt>
<pdfrwt beam="1">  1        1 0.33638859E+00 0.36251366E+04</pdfrwt>
<pdfrwt beam="2">  1       -1 0.23116432E+00 0.36251366E+04</pdfrwt>
<totfact> 0.16659585E-01</totfact>
</mgrwt>
</event>
<event>
 6    1  0.1831439E-005  0.1148812E+04  0.7818608E-02  0.9158880E-01
         -1   -1    0    0    0  501 -0.00000000000E+00  0.00000000000E+00  0.45221235185E+03  0.45221235185E+03  0.00000000000E+00 0. -1.
          1   -1    0    0  501    0  0.00000000000E+00 -0.00000000000E+00 -0.72961841523E+03  0.72961841523E+03  0.00000000000E+00 0.  1.
         23    2    1    2    0    0  0.10183188842E+01  0.17054855243E+03  0.42084276685E+03  0.46305453303E+03  0.90680871404E+02 0.  0.
         11    1    3    3    0    0  0.33180051380E+02  0.13213559029E+03  0.35553561692E+03  0.38074440892E+03  0.00000000000E+00 0.  1.
        -11    1    3    3    0    0 -0.32161732496E+02  0.38412962141E+02  0.65307149934E+02  0.82310124104E+02  0.00000000000E+00 0. -1.
         22    1    1    2    0    0 -0.10183188842E+01 -0.17054855243E+03 -0.69824883023E+03  0.71877623405E+03  0.00000000000E+00 0.  1.
<mgrwt>
<rscale>  0 0.11488124E+04</rscale>
<asrwt>0</asrwt>
<pdfrwt beam="1">  1        1 0.11224899E+00 0.11488124E+04</pdfrwt>
<pdfrwt beam="2">  1       -1 0.69571132E-01 0.11488124E+04</pdfrwt>
<totfact> 0.53074688E+01</totfact>
</mgrwt>
</event>
<event>
 6    1  0.1831439E-005  0.2144657E+04  0.7818608E-02  0.8541823E-01
          2   -1    0    0  501    0  0.00000000000E+00  0.00000000000E+00  0.28528904512E+04  0.28528904512E+04  0.00000000000E+00 0. -1.
         -2   -1    0    0    0  501 -0.00000000000E+00 -0.00000000000E+00 -0.40306081636E+03  0.40306081636E+03  0.00000000000E+00 0.  1.
         23    2    1    2    0    0  0.57019142119E+03  0.41916582808E+03  0.24453597182E+04  0.25482520176E+04  0.11395589354E+03 0.  0.
         13    1    3    3    0    0  0.22500334745E+03  0.21549453050E+03  0.12121209972E+04  0.12515197605E+04  0.00000000000E+00 0. -1.
        -13    1    3    3    0    0  0.34518807374E+03  0.20367129757E+03  0.12332387210E+04  0.12967322571E+04  0.00000000000E+00 0.  1.
         22    1    1    2    0    0 -0.57019142119E+03 -0.41916582808E+03  0.44699166496E+01  0.70769924995E+03  0.00000000000E+00 0.  1.
<mgrwt>
<rscale>  0 0.21446569E+04</rscale>
<asrwt>0</asrwt>
<pdfrwt beam="1">  1        2 0.43890621E+00 0.21446569E+04</pdfrwt>
<pdfrwt beam="2">  1       -2 0.62009358E-01 0.21446569E+04</pdfrwt>
<totfact> 0.47662278E+00</totfact>
</mgrwt>
</event>
<event>
 6    1  0.1831439E-005  0.3257472E+04  0.7818608E-02  0.8173802E-01
          1   -1    0    0  501    0  0.00000000000E+00  0.00000000000E+00  0.31977405520E+04  0.31977405520E+04  0.00000000000E+00 0. -1.
         -1   -1    0    0    0  501 -0.00000000000E+00 -0.00000000000E+00 -0.82957998231E+03  0.82957998231E+03  0.00000000000E+00 0.  1.
         23    2    1    2    0    0  0.31832134284E+03 -0.15105959740E+04  0.18218742426E+04  0.23897438415E+04  0.91767086481E+02 0.  0.
         11    1    3    3    0    0  0.59896390605E+02 -0.49184184463E+03  0.58440349428E+03  0.76617453747E+03  0.00000000000E+00 0.  1.
        -11    1    3    3    0    0  0.25842495223E+03 -0.10187541293E+04  0.12374707483E+04  0.16235693040E+04  0.00000000000E+00 0. -1.
         22    1    1    2    0    0 -0.31832134284E+03  0.15105959740E+04  0.54628632715E+03  0.16375766929E+04  0.00000000000E+00 0.  1.
<mgrwt>
<rscale>  0 0.32574724E+04</rscale>
<asrwt>0</asrwt>
<pdfrwt beam="1">  1        1 0.49196008E+00 0.32574724E+04</pdfrwt>
<pdfrwt beam="2">  1       -1 0.12762769E+00 0.32574724E+04</pdfrwt>
<totfact> 0.18855045E-01</totfact>
</mgrwt>
</event>
<event>
 6    1  0.1831439E-005  0.1280498E+04  0.7818608E-02  0.9045175E-01
          2   -1    0    0  501    0  0.00000000000E+00  0.00000000000E+00  0.57462925671E+03  0.57462925671E+03  0.00000000000E+00 0. -1.
         -2   -1    0    0    0  501 -0.00000000000E+00 -0.00000000000E+00 -0.71336175744E+03  0.71336175744E+03  0.00000000000E+00 0.  1.
         23    2    1    2    0    0  0.10932764457E+03 -0.13684760418E+03 -0.68567093539E+03  0.71369017666E+03  0.92353862848E+02 0.  0.
         11    1    3    3    0    0  0.44571878576E+02 -0.12269063337E+03 -0.41643546400E+03  0.43641510006E+03  0.00000000000E+00 0. -1.
        -11    1    3    3    0    0  0.64755765995E+02 -0.14156970807E+02 -0.26923547139E+03  0.27727507660E+03  0.00000000000E+00 0.  1.
         22    1    1    2    0    0 -0.10932764457E+03  0.13684760418E+03  0.54693843466E+03  0.57430083749E+03  0.00000000000E+00 0. -1.
<mgrwt>
<rscale>  0 0.12804976E+04</rscale>
<asrwt>0</asrwt>
<pdfrwt beam="1">  1        2 0.88404501E-01 0.12804976E+04</pdfrwt>
<pdfrwt beam="2">  1       -2 0.10974796E+00 0.12804976E+04</pdfrwt>
<totfact> 0.33880948E+01</totfact>
</mgrwt>
</event>
<event>
 6    1  0.1831439E-005  0.2466848E+04  0.7818608E-02  0.8414892E-01
         -1   -1    0    0    0  501 -0.00000000000E+00  0.00000000000E+00  0.64616206052E+03  0.64616206052E+03  0.00000000000E+00 0.  1.
          1   -1    0    0  501    0  0.00000000000E+00 -0.00000000000E+00 -0.23544171426E+04  0.23544171426E+04  0.00000000000E+00 0. -1.
         23    2    1    2    0    0 -0.87129190831E+03 -0.81621809735E+03 -0.12235887273E+04  0.17120672523E+04  0.92969515770E+02 0.  0.
         11    1    3    3    0    0 -0.36073353231E+03 -0.30230511986E+03 -0.42915670893E+03  0.63693998747E+03  0.00000000000E+00 0. -1.
        -11    1    3    3    0    0 -0.51055837600E+03 -0.51391297749E+03 -0.79443201838E+03  0.10751272648E+04  0.00000000000E+00 0.  1.
         22    1    1    2    0    0  0.87129190831E+03  0.81621809735E+03 -0.48466635473E+03  0.12885119508E+04  0.00000000000E+00 0.  1.
<mgrwt>
<rscale>  0 0.24668482E+04</rscale>
<asrwt>0</asrwt>
<pdfrwt beam="1">  1        1 0.36221802E+00 0.24668482E+04</pdfrwt>
<pdfrwt beam="2">  1       -1 0.99409549E-01 0.24668482E+04</pdfrwt>
<totfact> 0.14695619E+00</totfact>
</mgrwt>
</event>
<event>
 6    1  0.1831439E-005  0.2567546E+04  0.7818608E-02  0.8379309E-01
          1   -1    0    0  501    0  0.00000000000E+00  0.00000000000E+00  0.21647687686E+04  0.21647687686E+04  0.00000000000E+00 0. -1.
         -1   -1    0    0    0  501 -0.00000000000E+00 -0.00000000000E+00 -0.76131591486E+03  0.76131591486E+03  0.00000000000E+00 0.  1.
         23    2    1    2    0    0  0.11884016866E+04  0.15989261395E+03  0.19115754967E+03  0.12209383199E+04  0.12761252126E+03 0.  0.
         11    1    3    3    0    0  0.40519870225E+03  0.11452515508E+03  0.79605197064E+02  0.42853119706E+03  0.00000000000E+00 0. -1.
        -11    1    3    3    0    0  0.78320298435E+03  0.45367458876E+02  0.11155235261E+03  0.79240712288E+03  0.00000000000E+00 0.  1.
         22    1    1    2    0    0 -0.11884016866E+04 -0.15989261395E+03  0.12122953040E+04  0.17051463635E+04  0.00000000000E+00 0. -1.
<mgrwt>
<rscale>  0 0.25675458E+04</rscale>
<asrwt>0</asrwt>
<pdfrwt beam="1">  1        1 0.33304135E+00 0.25675458E+04</pdfrwt>
<pdfrwt beam="2">  1       -1 0.11712553E+00 0.25675458E+04</pdfrwt>
<totfact> 0.13352310E+00</totfact>
</mgrwt>
</event>
<event>
 6    1  0.1831439E-005  0.1211150E+04  0.7818608E-02  0.9103153E-01
          2   -1    0    0  501    0  0.00000000000E+00  0.00000000000E+00  0.16838315509E+04  0.16838315509E+04  0.00000000000E+00 0. -1.
         -2   -1    0    0    0  501 -0.00000000000E+00 -0.00000000000E+00 -0.21778953594E+03  0.21778953594E+03  0.00000000000E+00 0.  1.
         23    2    1    2    0    0  0.21681002472E+03 -0.13142039297E+03  0.15946676551E+04  0.16173281713E+04  0.92236526983E+02 0.  0.
         13    1    3    3    0    0  0.19289808995E+03 -0.12829922335E+03  0.12146134749E+04  0.12365097077E+04  0.00000000000E+00 0. -1.
        -13    1    3    3    0    0  0.23911934766E+02 -0.31211696169E+01  0.38005418016E+03  0.38081846355E+03  0.00000000000E+00 0.  1.
         22    1    1    2    0    0 -0.21681002472E+03  0.13142039297E+03 -0.12862564018E+03  0.28429291553E+03  0.00000000000E+00 0.  1.
<mgrwt>
<rscale>  0 0.12111497E+04</rscale>
<asrwt>0</asrwt>
<pdfrwt beam="1">  1        2 0.25905100E+00 0.12111497E+04</pdfrwt>
<pdfrwt beam="2">  1       -2 0.33506084E-01 0.12111497E+04</pdfrwt>
<totfact> 0.82181160E+01</totfact>
</mgrwt>
</event>
<event>
 6    1  0.1831439E-005  0.9079413E+03  0.7818608E-02  0.9415708E-01
         -2   -1    0    0    0  501 -0.00000000000E+00  0.00000000000E+00  0.77918211894E+03  0.77918211894E+03  0.00000000000E+00 0.  1.
          2   -1    0    0  501    0  0.00000000000E+00 -0.00000000000E+00 -0.26449447518E+03  0.26449447518E+03  0.00000000000E+00 0. -1.
         23    2    1    2    0    0  0.21074567544E+03 -0.63777240707E+02 -0.19187928702E+03  0.30359679856E+03  0.82898004567E+02 0.  0.
         13    1    3    3    0    0  0.86517657968E+02 -0.69189865147E+02 -0.95741669966E+02  0.14642066093E+03  0.00000000000E+00 0. -1.
        -13    1    3    3    0    0  0.12422801747E+03  0.54126244397E+01 -0.96137617051E+02  0.15717613763E+03  0.00000000000E+00 0.  1.
         22    1    1    2    0    0 -0.21074567544E+03  0.63777240707E+02  0.70656693077E+03  0.74007979557E+03  0.00000000000E+00 0.  1.
<mgrwt>
<rscale>  0 0.90794133E+03</rscale>
<asrwt>0</asrwt>
<pdfrwt beam="1">  1        2 0.40691458E-01 0.90794133E+03</pdfrwt>
<pdfrwt beam="2">  1       -2 0.11987417E+00 0.90794133E+03</pdfrwt>
<totfact> 0.67438837E+01</totfact>
</mgrwt>
</event>
<event>
 6    1  0.1831439E-005  0.1241546E+04  0.7818608E-02  0.9077249E-01
         -2   -1    0    0    0  501 -0.00000000000E+00  0.00000000000E+00  0.37954484952E+03  0.37954484952E+03  0.00000000000E+00 0.  1.
          2   -1    0    0  501    0  0.00000000000E+00 -0.00000000000E+00 -0.10153195510E+04  0.10153195510E+04  0.00000000000E+00 0. -1.
         23    2    1    2    0    0  0.16451935939E+03 -0.14157896768E+03  0.32986856335E+03  0.40512800197E+03  0.90577067665E+02 0.  0.
         13    1    3    3    0    0  0.76426049912E+02 -0.46352095332E+02  0.21110847709E+03  0.22925149279E+03  0.00000000000E+00 0. -1.
        -13    1    3    3    0    0  0.88093309479E+02 -0.95226872348E+02  0.11876008626E+03  0.17587650918E+03  0.00000000000E+00 0.  1.
         22    1    1    2    0    0 -0.16451935939E+03  0.14157896768E+03 -0.96564326479E+03  0.98973639851E+03  0.00000000000E+00 0. -1.
<mgrwt>
<rscale>  0 0.12415463E+04</rscale>
<asrwt>0</asrwt>
<pdfrwt beam="1">  1        2 0.15620301E+00 0.12415463E+04</pdfrwt>
<pdfrwt beam="2">  1       -2 0.58391516E-01 0.12415463E+04</pdfrwt>
<totfact> 0.66471349E+01</totfact>
</mgrwt>
</event>
<event>
 6    1  0.1831439E-005  0.1844744E+04  0.7818608E-02  0.8682861E-01
          4   -1    0    0  501    0  0.00000000000E+00  0.00000000000E+00  0.91271570784E+03  0.91271570784E+03  0.00000000000E+00 0. -1.
         -4   -1    0    0    0  501 -0.00000000000E+00 -0.00000000000E+00 -0.93213030564E+03  0.93213030564E+03  0.00000000000E+00 0.  1.
         23    2    1    2    0    0  0.41065654532E+03 -0.11691824355E+03 -0.82542975005E+03  0.93272261198E+03  0.79552025285E+02 0.  0.
         11    1    3    3    0    0  0.38979783930E+03 -0.12580348285E+03 -0.79923484220E+03  0.89807861839E+03  0.00000000000E+00 0.  1.
        -11    1    3    3    0    0  0.20858706026E+02  0.88852392945E+01 -0.26194907853E+02  0.34643993590E+02  0.00000000000E+00 0. -1.
         22    1    1    2    0    0 -0.41065654532E+03  0.11691824355E+03  0.80601515226E+03  0.91212340150E+03  0.00000000000E+00 0. -1.
<mgrwt>
<rscale>  0 0.18447439E+04</rscale>
<asrwt>0</asrwt>
<pdfrwt beam="1">  1        4 0.14041780E+00 0.18447439E+04</pdfrwt>
<pdfrwt beam="2">  1       -4 0.14340466E+00 0.18447439E+04</pdfrwt>
<totfact> 0.22400113E-01</totfact>
</mgrwt>
</event>
<event>
 6    1  0.1831439E-005  0.2560342E+04  0.7818608E-02  0.8381798E-01
          2   -1    0    0  501    0  0.00000000000E+00  0.00000000000E+00  0.10640674049E+04  0.10640674049E+04  0.00000000000E+00 0. -1.
         -2   -1    0    0    0  501 -0.00000000000E+00 -0.00000000000E+00 -0.15401629617E+04  0.15401629617E+04  0.00000000000E+00 0.  1.
         23    2    1    2    0    0 -0.11289924169E+04 -0.72298605473E+02 -0.84430760325E+03  0.14145114599E+04  0.90201860024E+02 0.  0.
         13    1    3    3    0    0 -0.67523597141E+03 -0.80919747234E+02 -0.47729586946E+03  0.83084473253E+03  0.00000000000E+00 0.  1.
        -13    1    3    3    0    0 -0.45375644548E+03  0.86211417609E+01 -0.36701173379E+03  0.58366672737E+03  0.00000000000E+00 0. -1.
         22    1    1    2    0    0  0.11289924169E+04  0.72298605473E+02  0.36821204640E+03  0.11897189067E+04  0.00000000000E+00 0. -1.
<mgrwt>
<rscale>  0 0.25603415E+04</rscale>
<asrwt>0</asrwt>
<pdfrwt beam="1">  1        2 0.16370268E+00 0.25603415E+04</pdfrwt>
<pdfrwt beam="2">  1       -2 0.23694815E+00 0.25603415E+04</pdfrwt>
<totfact> 0.15748879E+00</totfact>
</mgrwt>
</event>
<event>
 6    1  0.1831439E-005  0.1733308E+04  0.7818608E-02  0.8742592E-01
          1   -1    0    0  501    0  0.00000000000E+00  0.00000000000E+00  0.16596457472E+04  0.16596457472E+04  0.00000000000E+00 0. -1.
         -1   -1    0    0    0  501 -0.00000000000E+00 -0.00000000000E+00 -0.45256006956E+03  0.45256006956E+03  0.00000000000E+00 0.  1.
         23    2    1    2    0    0 -0.30066880240E+03 -0.25185001855E+03 -0.33242046493E+03  0.52352418610E+03  0.98711941268E+02 0.  0.
         11    1    3    3    0    0 -0.24273758664E+03 -0.23338402296E+03 -0.24245462752E+03  0.41493841054E+03  0.00000000000E+00 0. -1.
        -11    1    3    3    0    0 -0.57931215758E+02 -0.18465995595E+02 -0.89965837408E+02  0.10858577556E+03  0.00000000000E+00 0.  1.
         22    1    1    2    0    0  0.30066880240E+03  0.25185001855E+03  0.15395061425E+04  0.15886816306E+04  0.00000000000E+00 0. -1.
<mgrwt>
<rscale>  0 0.17333083E+04</rscale>
<asrwt>0</asrwt>
<pdfrwt beam="1">  1        1 0.25533011E+00 0.17333083E+04</pdfrwt>
<pdfrwt beam="2">  1       -1 0.69624627E-01 0.17333083E+04</pdfrwt>
<totfact> 0.10053380E+01</totfact>
</mgrwt>
</event>
<event>
 6    1  0.1831439E-005  0.3865347E+04  0.7818608E-02  0.8032275E-01
         -1   -1    0    0    0  501 -0.00000000000E+00  0.00000000000E+00  0.21621763595E+04  0.21621763595E+04  0.00000000000E+00 0.  1.
          1   -1    0    0  501    0  0.00000000000E+00 -0.00000000000E+00 -0.17275313187E+04  0.17275313187E+04  0.00000000000E+00 0. -1.
         23    2    1    2    0    0  0.99107663472E+03 -0.48367511107E+03  0.18135375880E+04  0.21240578926E+04  0.80801232303E+02 0.  0.
         11    1    3    3    0    0  0.91816106667E+03 -0.43441960048E+03  0.17010873919E+04  0.19812719270E+04  0.00000000000E+00 0.  1.
        -11    1    3    3    0    0  0.72915568049E+02 -0.49255510590E+02  0.11245019602E+03  0.14278596560E+03  0.00000000000E+00 0. -1.
         22    1    1    2    0    0 -0.99107663472E+03  0.48367511107E+03 -0.13788925472E+04  0.17656497857E+04  0.00000000000E+00 0. -1.
<mgrwt>
<rscale>  0 0.38653473E+04</rscale>
<asrwt>0</asrwt>
<pdfrwt beam="1">  1        1 0.26577405E+00 0.38653473E+04</pdfrwt>
<pdfrwt beam="2">  1       -1 0.33264252E+00 0.38653473E+04</pdfrwt>
<totfact> 0.73039773E-02</totfact>
</mgrwt>
</event>
<event>
 6    1  0.1831439E-005  0.3222851E+04  0.7818608E-02  0.8182808E-01
         -2   -1    0    0    0  501 -0.00000000000E+00  0.00000000000E+00  0.70662016109E+03  0.70662016109E+03  0.00000000000E+00 0. -1.
          2   -1    0    0  501    0  0.00000000000E+00 -0.00000000000E+00 -0.36748052788E+04  0.36748052788E+04  0.00000000000E+00 0.  1.
         23    2    1    2    0    0  0.66234656347E+03  0.24297758657E+03  0.48221636366E+03  0.85963449489E+03  0.93261812701E+02 0.  0.
         13    1    3    3    0    0  0.57002454379E+03  0.22569212080E+03  0.38233330671E+03  0.72252589665E+03  0.00000000000E+00 0.  1.
        -13    1    3    3    0    0  0.92322019676E+02  0.17285465768E+02  0.99883056952E+02  0.13710859823E+03  0.00000000000E+00 0. -1.
         22    1    1    2    0    0 -0.66234656347E+03 -0.24297758657E+03 -0.34504014813E+04  0.35217909450E+04  0.00000000000E+00 0.  1.
<mgrwt>
<rscale>  0 0.32228506E+04</rscale>
<asrwt>0</asrwt>
<pdfrwt beam="1">  1        2 0.56535465E+00 0.32228506E+04</pdfrwt>
<pdfrwt beam="2">  1       -2 0.10871080E+00 0.32228506E+04</pdfrwt>
<totfact> 0.34561711E-01</totfact>
</mgrwt>
</event>
<event>
 6    1  0.2189081E-005  0.2659199E+04  0.7818608E-02  0.8348366E-01
         -1   -1    0    0    0  501 -0.00000000000E+00  0.00000000000E+00  0.93295235055E+03  0.93295235055E+03  0.00000000000E+00 0.  1.
          1   -1    0    0  501    0  0.00000000000E+00 -0.00000000000E+00 -0.18948819353E+04  0.18948819353E+04  0.00000000000E+00 0. -1.
         23    2    1    2    0    0  0.96472842601E+03  0.76671239026E+03 -0.10079346197E+04  0.15946817046E+04  0.92351049078E+02 0.  0.
         11    1    3    3    0    0  0.22007052940E+03  0.13809290368E+03 -0.18158357542E+03  0.31697520852E+03  0.00000000000E+00 0. -1.
        -11    1    3    3    0    0  0.74465789661E+03  0.62861948658E+03 -0.82635104425E+03  0.12777064961E+04  0.00000000000E+00 0.  1.
         22    1    1    2    0    0 -0.96472842601E+03 -0.76671239026E+03  0.46005034911E+02  0.12331525812E+04  0.00000000000E+00 0.  1.
<mgrwt>
<rscale>  0 0.26591988E+04</rscale>
<asrwt>0</asrwt>
<pdfrwt beam="1">  1        1 0.29152029E+00 0.26591988E+04</pdfrwt>
<pdfrwt beam="2">  1       -1 0.14353113E+00 0.26591988E+04</pdfrwt>
<totfact> 0.12079196E+00</totfact>
</mgrwt>
</event>
<event>
 6    1  0.1831439E-005  0.3105412E+04  0.7818608E-02  0.8214254E-01
          1   -1    0    0  501    0  0.00000000000E+00  0.00000000000E+00  0.16199768118E+04  0.16199768118E+04  0.00000000000E+00 0. -1.
         -1   -1    0    0    0  501 -0.00000000000E+00 -0.00000000000E+00 -0.14882286410E+04  0.14882286410E+04  0.00000000000E+00 0.  1.
         23    2    1    2    0    0  0.70269282765E+03  0.92845239982E+03  0.10919775300E+04  0.15989534887E+04  0.91849139500E+02 0.  0.
         11    1    3    3    0    0  0.59481218299E+03  0.76899111231E+03  0.86475252032E+03  0.13011325010E+04  0.00000000000E+00 0. -1.
        -11    1    3    3    0    0  0.10788064466E+03  0.15946128751E+03  0.22722500966E+03  0.29782098771E+03  0.00000000000E+00 0.  1.
         22    1    1    2    0    0 -0.70269282765E+03 -0.92845239982E+03 -0.96022935912E+03  0.15092519640E+04  0.00000000000E+00 0.  1.
<mgrwt>
<rscale>  0 0.31054120E+04</rscale>
<asrwt>0</asrwt>
<pdfrwt beam="1">  1        1 0.24922720E+00 0.31054120E+04</pdfrwt>
<pdfrwt beam="2">  1       -1 0.22895825E+00 0.31054120E+04</pdfrwt>
<totfact> 0.43737001E-01</totfact>
</mgrwt>
</event>
<event>
 6    1  0.1831439E-005  0.1446150E+04  0.7818608E-02  0.8921074E-01
          1   -1    0    0  501    0  0.00000000000E+00  0.00000000000E+00  0.17604028880E+04  0.17604028880E+04  0.00000000000E+00 0. -1.
         -1   -1    0    0    0  501 -0.00000000000E+00 -0.00000000000E+00 -0.29699882975E+03  0.29699882975E+03  0.00000000000E+00 0.  1.
         23    2    1    2    0    0  0.36371278897E+03 -0.22273660272E+03 -0.90476217930E+02  0.44605367970E+03  0.94230314171E+02 0.  0.
         13    1    3    3    0    0  0.15907804013E+03 -0.10439523513E+03  0.68864127557E+01  0.19039855738E+03  0.00000000000E+00 0. -1.
        -13    1    3    3    0    0  0.20463474884E+03 -0.11834136759E+03 -0.97362630686E+02  0.25565512232E+03  0.00000000000E+00 0.  1.
         22    1    1    2    0    0 -0.36371278897E+03  0.22273660272E+03  0.15538802762E+04  0.16113480381E+04  0.00000000000E+00 0. -1.
<mgrwt>
<rscale>  0 0.14461502E+04</rscale>
<asrwt>0</asrwt>
<pdfrwt beam="1">  1        1 0.27083121E+00 0.14461502E+04</pdfrwt>
<pdfrwt beam="2">  1       -1 0.45692129E-01 0.14461502E+04</pdfrwt>
<totfact> 0.20047707E+01</totfact>
</mgrwt>
</event>
<event>
 6    1  0.1831439E-005  0.3840378E+04  0.7818608E-02  0.8037545E-01
         -2   -1    0    0    0  501 -0.00000000000E+00  0.00000000000E+00  0.14810380964E+04  0.14810380964E+04  0.00000000000E+00 0.  1.
          2   -1    0    0  501    0  0.00000000000E+00 -0.00000000000E+00 -0.24895554405E+04  0.24895554405E+04  0.00000000000E+00 0. -1.
         23    2    1    2    0    0 -0.16045394968E+04  0.43985472140E+03  0.48446166174E+03  0.17351952536E+04  0.90444975631E+02 0.  0.
         13    1    3    3    0    0 -0.26372864685E+03  0.10492200584E+03  0.69258791515E+02  0.29216126828E+03  0.00000000000E+00 0.  1.
        -13    1    3    3    0    0 -0.13408108500E+04  0.33493271557E+03  0.41520287022E+03  0.14430339853E+04  0.00000000000E+00 0. -1.
         22    1    1    2    0    0  0.16045394968E+04 -0.43985472140E+03 -0.14929790059E+04  0.22353982832E+04  0.00000000000E+00 0. -1.
<mgrwt>
<rscale>  0 0.38403783E+04</rscale>
<asrwt>0</asrwt>
<pdfrwt beam="1">  1        2 0.38300853E+00 0.38403783E+04</pdfrwt>
<pdfrwt beam="2">  1       -2 0.22785202E+00 0.38403783E+04</pdfrwt>
<totfact> 0.24878676E-01</totfact>
</mgrwt>
</event>
<event>
 6    1  0.1831439E-005  0.4393533E+04  0.7818608E-02  0.7929546E-01
         -2   -1    0    0    0  501 -0.00000000000E+00  0.00000000000E+00  0.14368302686E+04  0.14368302686E+04  0.00000000000E+00 0. -1.
          2   -1    0    0  501    0  0.00000000000E+00 -0.00000000000E+00 -0.33586310045E+04  0.33586310045E+04  0.00000000000E+00 0.  1.
         23    2    1    2    0    0  0.61725567993E+03  0.20261315603E+03  0.13280471609E+04  0.14813146231E+04  0.92342220800E+02 0.  0.
         11    1    3    3    0    0  0.37824835518E+03  0.10019880924E+03  0.70763884562E+03  0.80861879486E+03  0.00000000000E+00 0.  1.
        -11    1    3    3    0    0  0.23900732474E+03  0.10241434679E+03  0.62040831528E+03  0.67269582827E+03  0.00000000000E+00 0. -1.
         22    1    1    2    0    0 -0.61725567993E+03 -0.20261315603E+03 -0.32498478967E+04  0.33141466499E+04  0.00000000000E+00 0.  1.
<mgrwt>
<rscale>  0 0.43935328E+04</rscale>
<asrwt>0</asrwt>
<pdfrwt beam="1">  1        2 0.51671246E+00 0.43935328E+04</pdfrwt>
<pdfrwt beam="2">  1       -2 0.22105081E+00 0.43935328E+04</pdfrwt>
<totfact> 0.75558394E-02</totfact>
</mgrwt>
</event>
<event>
 6    1  0.1831439E-005  0.2219528E+04  0.7818608E-02  0.8510344E-01
         -1   -1    0    0    0  501 -0.00000000000E+00  0.00000000000E+00  0.15299981904E+04  0.15299981904E+04  0.00000000000E+00 0.  1.
          1   -1    0    0  501    0  0.00000000000E+00 -0.00000000000E+00 -0.80495240260E+03  0.80495240260E+03  0.00000000000E+00 0. -1.
         23    2    1    2    0    0  0.94519402302E+03  0.14953537105E+03 -0.22399110270E+03  0.98720299500E+03  0.92979411114E+02 0.  0.
         13    1    3    3    0    0  0.53217480420E+03  0.95586954959E+02 -0.80492367461E+02  0.54664971363E+03  0.00000000000E+00 0. -1.
        -13    1    3    3    0    0  0.41301921882E+03  0.53948416095E+02 -0.14349873524E+03  0.44055328137E+03  0.00000000000E+00 0.  1.
         22    1    1    2    0    0 -0.94519402302E+03 -0.14953537105E+03  0.94903689046E+03  0.13477475980E+04  0.00000000000E+00 0.  1.
<mgrwt>
<rscale>  0 0.22195276E+04</rscale>
<asrwt>0</asrwt>
<pdfrwt beam="1">  1        1 0.12383883E+00 0.22195276E+04</pdfrwt>
<pdfrwt beam="2">  1       -1 0.23538434E+00 0.22195276E+04</pdfrwt>
<totfact> 0.17323694E+00</totfact>
</mgrwt>
</event>
<event>
 6    1  0.1831439E-005  0.1587703E+04  0.7818608E-02  0.8828138E-01
          2   -1    0    0  501    0  0.00000000000E+00  0.00000000000E+00  0.18261938425E+04  0.18261938425E+04  0.00000000000E+00 0. -1.
         -2   -1    0    0    0  501 -0.00000000000E+00 -0.00000000000E+00 -0.34508962223E+03  0.34508962223E+03  0.00000000000E+00 0.  1.
         23    2    1    2    0    0  0.46926534504E+03 -0.61600019206E+03  0.96514937857E+03  0.12407590968E+04  0.91124160325E+02 0.  0.
         11    1    3    3    0    0  0.27763952019E+03 -0.39126159157E+03  0.66156077181E+03  0.81720988186E+03  0.00000000000E+00 0. -1.
        -11    1    3    3    0    0  0.19162582485E+03 -0.22473860049E+03  0.30358860676E+03  0.42354921491E+03  0.00000000000E+00 0.  1.
         22    1    1    2    0    0 -0.46926534504E+03  0.61600019206E+03  0.51595484167E+03  0.93052436793E+03  0.00000000000E+00 0.  1.
<mgrwt>
<rscale>  0 0.15877034E+04</rscale>
<asrwt>0</asrwt>
<pdfrwt beam="1">  1        2 0.28095289E+00 0.15877034E+04</pdfrwt>
<pdfrwt beam="2">  1       -2 0.53090712E-01 0.15877034E+04</pdfrwt>
<totfact> 0.26793970E+01</totfact>
</mgrwt>
</event>
<event>
 6    1  0.1831439E-005  0.2263018E+04  0.7818608E-02  0.8492647E-01
          3   -1    0    0  501    0  0.00000000000E+00  0.00000000000E+00  0.74886408698E+03  0.74886408698E+03  0.00000000000E+00 0. -1.
         -3   -1    0    0    0  501 -0.00000000000E+00 -0.00000000000E+00 -0.17096731115E+04  0.17096731115E+04  0.00000000000E+00 0.  1.
         23    2    1    2    0    0  0.12007808423E+03  0.23665757486E+03 -0.16741409609E+04  0.16974406175E+04  0.90172828591E+02 0.  0.
         13    1    3    3    0    0  0.94823084031E+02  0.12824969939E+03 -0.76060315373E+03  0.77714642129E+03  0.00000000000E+00 0.  1.
        -13    1    3    3    0    0  0.25255000195E+02  0.10840787546E+03 -0.91353780717E+03  0.92029419624E+03  0.00000000000E+00 0. -1.
         22    1    1    2    0    0 -0.12007808423E+03 -0.23665757486E+03  0.71333193639E+03  0.76109658095E+03  0.00000000000E+00 0. -1.
<mgrwt>
<rscale>  0 0.22630182E+04</rscale>
<asrwt>0</asrwt>
<pdfrwt beam="1">  1        3 0.11520986E+00 0.22630182E+04</pdfrwt>
<pdfrwt beam="2">  1       -3 0.26302663E+00 0.22630182E+04</pdfrwt>
<totfact> 0.91229168E-02</totfact>
</mgrwt>
</event>
<event>
 6    1  0.1831439E-005  0.1447184E+04  0.7818608E-02  0.8920355E-01
          1   -1    0    0  501    0  0.00000000000E+00  0.00000000000E+00  0.72943699839E+03  0.72943699839E+03  0.00000000000E+00 0. -1.
         -1   -1    0    0    0  501 -0.00000000000E+00 -0.00000000000E+00 -0.71779363739E+03  0.71779363739E+03  0.00000000000E+00 0.  1.
         23    2    1    2    0    0 -0.21406333551E+03 -0.11697044675E+03  0.68383813689E+03  0.73214251971E+03  0.94302039629E+02 0.  0.
         13    1    3    3    0    0 -0.35862644137E+02 -0.17420063625E+02  0.24414308568E+03  0.24737710918E+03  0.00000000000E+00 0.  1.
        -13    1    3    3    0    0 -0.17820069137E+03 -0.99550383130E+02  0.43969505121E+03  0.48476541053E+03  0.00000000000E+00 0. -1.
         22    1    1    2    0    0  0.21406333551E+03  0.11697044675E+03 -0.67219477589E+03  0.71508811607E+03  0.00000000000E+00 0.  1.
<mgrwt>
<rscale>  0 0.14471838E+04</rscale>
<asrwt>0</asrwt>
<pdfrwt beam="1">  1        1 0.11222108E+00 0.14471838E+04</pdfrwt>
<pdfrwt beam="2">  1       -1 0.11042979E+00 0.14471838E+04</pdfrwt>
<totfact> 0.18793805E+01</totfact>
</mgrwt>
</event>
<event>
 6    1  0.1831439E-005  0.2095492E+04  0.7818608E-02  0.8563232E-01
          1   -1    0    0  501    0  0.00000000000E+00  0.00000000000E+00  0.17494660531E+04  0.17494660531E+04  0.00000000000E+00 0. -1.
         -1   -1    0    0    0  501 -0.00000000000E+00 -0.00000000000E+00 -0.62748969506E+03  0.62748969506E+03  0.00000000000E+00 0.  1.
         23    2    1    2    0    0 -0.98470278573E+03 -0.21712122713E+03  0.87610742571E+03  0.13390575184E+04  0.93432395770E+02 0.  0.
         11    1    3    3    0    0 -0.44274542536E+03 -0.13021066473E+03  0.44524544265E+03  0.64126580533E+03  0.00000000000E+00 0. -1.
        -11    1    3    3    0    0 -0.54195736037E+03 -0.86910562402E+02  0.43086198306E+03  0.69779171303E+03  0.00000000000E+00 0.  1.
         22    1    1    2    0    0  0.98470278573E+03  0.21712122713E+03  0.24586893231E+03  0.10378982298E+04  0.00000000000E+00 0.  1.
<mgrwt>
<rscale>  0 0.20954922E+04</rscale>
<asrwt>0</asrwt>
<pdfrwt beam="1">  1        1 0.26914862E+00 0.20954922E+04</pdfrwt>
<pdfrwt beam="2">  1       -1 0.96536877E-01 0.20954922E+04</pdfrwt>
<totfact> 0.41893555E+00</totfact>
</mgrwt>
</event>
<event>
 6    1  0.1831439E-005  0.9711391E+03  0.7818608E-02  0.9340778E-01
          1   -1    0    0  501    0  0.00000000000E+00  0.00000000000E+00  0.49680573856E+03  0.49680573856E+03  0.00000000000E+00 0. -1.
         -1   -1    0    0    0  501 -0.00000000000E+00 -0.00000000000E+00 -0.47458749319E+03  0.47458749319E+03  0.00000000000E+00 0.  1.
         23    2    1    2    0    0  0.31651906644E+03 -0.26676827231E+03 -0.23255960547E+03  0.48532596911E+03  0.10053703632E+03 0.  0.
         13    1    3    3    0    0  0.30276005724E+03 -0.23880126064E+03 -0.18310507736E+03  0.42686902406E+03  0.00000000000E+00 0.  1.
        -13    1    3    3    0    0  0.13759009205E+02 -0.27967011664E+02 -0.49454528101E+02  0.58456945057E+02  0.00000000000E+00 0. -1.
         22    1    1    2    0    0 -0.31651906644E+03  0.26676827231E+03  0.25477785084E+03  0.48606726264E+03  0.00000000000E+00 0. -1.
<mgrwt>
<rscale>  0 0.97113910E+03</rscale>
<asrwt>0</asrwt>
<pdfrwt beam="1">  1        1 0.76431652E-01 0.97113910E+03</pdfrwt>
<pdfrwt beam="2">  1       -1 0.73013460E-01 0.97113910E+03</pdfrwt>
<totfact> 0.84961368E+01</totfact>
</mgrwt>
</event>
<event>
 6    1  0.1831439E-005  0.2572705E+04  0.7818608E-02  0.8377532E-01
         -1   -1    0    0    0  501 -0.00000000000E+00  0.00000000000E+00  0.22191409272E+04  0.22191409272E+04  0.00000000000E+00 0.  1.
          1   -1    0    0  501    0  0.00000000000E+00 -0.00000000000E+00 -0.74565025319E+03  0.74565025319E+03  0.00000000000E+00 0. -1.
         23    2    1    2    0    0  0.87800327637E+03  0.12662973116E+03  0.18086013693E+04  0.20165169477E+04  0.91525106892E+02 0.  0.
         11    1    3    3    0    0  0.44351891053E+03  0.33646785269E+02  0.82665399320E+03  0.93872144677E+03  0.00000000000E+00 0. -1.
        -11    1    3    3    0    0  0.43448436583E+03  0.92982945886E+02  0.98194737613E+03  0.10777955010E+04  0.00000000000E+00 0.  1.
         22    1    1    2    0    0 -0.87800327637E+03 -0.12662973116E+03 -0.33511069536E+03  0.94827423263E+03  0.00000000000E+00 0. -1.
<mgrwt>
<rscale>  0 0.25727052E+04</rscale>
<asrwt>0</asrwt>
<pdfrwt beam="1">  1        1 0.11471542E+00 0.25727052E+04</pdfrwt>
<pdfrwt beam="2">  1       -1 0.34140629E+00 0.25727052E+04</pdfrwt>
<totfact> 0.38652186E-01</totfact>
</mgrwt>
</event>
<event>
 6    1  0.1831439E-005  0.1605101E+04  0.7818608E-02  0.8817420E-01
          1   -1    0    0  501    0  0.00000000000E+00  0.00000000000E+00  0.18868203630E+04  0.18868203630E+04  0.00000000000E+00 0. -1.
         -1   -1    0    0    0  501 -0.00000000000E+00 -0.00000000000E+00 -0.34136124256E+03  0.34136124256E+03  0.00000000000E+00 0.  1.
         23    2    1    2    0    0  0.72923765628E+03 -0.11550949802E+03  0.34781941973E+03  0.82124491324E+03  0.91295428758E+02 0.  0.
         13    1    3    3    0    0  0.22438635986E+03 -0.88663805663E+01  0.14216777552E+03  0.26578097673E+03  0.00000000000E+00 0.  1.
        -13    1    3    3    0    0  0.50485129642E+03 -0.10664311745E+03  0.20565164421E+03  0.55546393651E+03  0.00000000000E+00 0. -1.
         22    1    1    2    0    0 -0.72923765628E+03  0.11550949802E+03  0.11976397007E+04  0.14069366923E+04  0.00000000000E+00 0. -1.
<mgrwt>
<rscale>  0 0.16051010E+04</rscale>
<asrwt>0</asrwt>
<pdfrwt beam="1">  1        1 0.29028005E+00 0.16051010E+04</pdfrwt>
<pdfrwt beam="2">  1       -1 0.52517115E-01 0.16051010E+04</pdfrwt>
<totfact> 0.12465417E+01</totfact>
</mgrwt>
</event>
<event>
 6    1  0.1831439E-005  0.3051655E+04  0.7818608E-02  0.8229132E-01
         -2   -1    0    0    0  501 -0.00000000000E+00  0.00000000000E+00  0.86473032939E+03  0.86473032939E+03  0.00000000000E+00 0.  1.
          2   -1    0    0  501    0  0.00000000000E+00 -0.00000000000E+00 -0.26923420476E+04  0.26923420476E+04  0.00000000000E+00 0. -1.
         23    2    1    2    0    0  0.52748880967E+03 -0.32479880472E+03 -0.25380399779E+04  0.26144977008E+04  0.10105736057E+03 0.  0.
         11    1    3    3    0    0  0.37318455748E+03 -0.19048863266E+03 -0.15595990133E+04  0.16148999088E+04  0.00000000000E+00 0.  1.
        -11    1    3    3    0    0  0.15430425219E+03 -0.13431017206E+03 -0.97844096462E+03  0.99959779201E+03  0.00000000000E+00 0. -1.
         22    1    1    2    0    0 -0.52748880967E+03  0.32479880472E+03  0.71042825974E+03  0.94257467615E+03  0.00000000000E+00 0.  1.
<mgrwt>
<rscale>  0 0.30516552E+04</rscale>
<asrwt>0</asrwt>
<pdfrwt beam="1">  1        2 0.41420646E+00 0.30516552E+04</pdfrwt>
<pdfrwt beam="2">  1       -2 0.13303544E+00 0.30516552E+04</pdfrwt>
<totfact> 0.93650166E-01</totfact>
</mgrwt>
</event>
<event>
 6    1  0.1831439E-005  0.4824914E+04  0.7818608E-02  0.7856098E-01
          2   -1    0    0  501    0  0.00000000000E+00  0.00000000000E+00  0.41060400669E+04  0.41060400669E+04  0.00000000000E+00 0.  1.
         -2   -1    0    0    0  501 -0.00000000000E+00 -0.00000000000E+00 -0.14174118336E+04  0.14174118336E+04  0.00000000000E+00 0. -1.
         23    2    1    2    0    0 -0.87887415274E+03 -0.15078913325E+04  0.32494796763E+04  0.36902278585E+04  0.11183663973E+03 0.  0.
         13    1    3    3    0    0 -0.85854658710E+03 -0.14632681776E+04  0.31142058087E+04  0.35463409059E+04  0.00000000000E+00 0.  1.
        -13    1    3    3    0    0 -0.20327565637E+02 -0.44623154895E+02  0.13527386759E+03  0.14388695260E+03  0.00000000000E+00 0. -1.
         22    1    1    2    0    0  0.87887415274E+03  0.15078913325E+04 -0.56085144303E+03  0.18332240420E+04  0.00000000000E+00 0. -1.
<mgrwt>
<rscale>  0 0.48249144E+04</rscale>
<asrwt>0</asrwt>
<pdfrwt beam="1">  1        2 0.63169847E+00 0.48249144E+04</pdfrwt>
<pdfrwt beam="2">  1       -2 0.21806336E+00 0.48249144E+04</pdfrwt>
<totfact> 0.20882967E-02</totfact>
</mgrwt>
</event>
<event>
 6    1  0.1831439E-005  0.1781713E+04  0.7818608E-02  0.8716085E-01
          2   -1    0    0  501    0  0.00000000000E+00  0.00000000000E+00  0.32010378632E+04  0.32010378632E+04  0.00000000000E+00 0. -1.
         -2   -1    0    0    0  501 -0.00000000000E+00 -0.00000000000E+00 -0.24792761761E+03  0.24792761761E+03  0.00000000000E+00 0.  1.
         23    2    1    2    0    0  0.39928038663E+03 -0.74786737834E+03  0.96564497044E+03  0.12882367466E+04  0.91396190906E+02 0.  0.
         11    1    3    3    0    0  0.16859317706E+03 -0.39788066957E+03  0.52692589433E+03  0.68145695732E+03  0.00000000000E+00 0. -1.
        -11    1    3    3    0    0  0.23068720957E+03 -0.34998670877E+03  0.43871907612E+03  0.60677978932E+03  0.00000000000E+00 0.  1.
         22    1    1    2    0    0 -0.39928038663E+03  0.74786737834E+03  0.19874652752E+04  0.21607287342E+04  0.00000000000E+00 0. -1.
<mgrwt>
<rscale>  0 0.17817134E+04</rscale>
<asrwt>0</asrwt>
<pdfrwt beam="1">  1        2 0.49246733E+00 0.17817134E+04</pdfrwt>
<pdfrwt beam="2">  1       -2 0.38142713E-01 0.17817134E+04</pdfrwt>
<totfact> 0.79886340E+00</totfact>
</mgrwt>
</event>
<event>
 6    1  0.1831439E-005  0.5199006E+04  0.7818608E-02  0.7798521E-01
         -2   -1    0    0    0  501 -0.00000000000E+00  0.00000000000E+00  0.17993241230E+04  0.17993241230E+04  0.00000000000E+00 0.  1.
          2   -1    0    0  501    0  0.00000000000E+00 -0.00000000000E+00 -0.37555302944E+04  0.37555302944E+04  0.00000000000E+00 0. -1.
         23    2    1    2    0    0  0.94537916160E+03 -0.93662313989E+03 -0.33633179046E+04  0.36181127994E+04  0.88477319735E+02 0.  0.
         11    1    3    3    0    0  0.66933988180E+03 -0.68305760559E+03 -0.25144062509E+04  0.26901342652E+04  0.00000000000E+00 0.  1.
        -11    1    3    3    0    0  0.27603927980E+03 -0.25356553430E+03 -0.84891165369E+03  0.92797853420E+03  0.00000000000E+00 0. -1.
         22    1    1    2    0    0 -0.94537916160E+03  0.93662313989E+03  0.14071117333E+04  0.19367416181E+04  0.00000000000E+00 0.  1.
<mgrwt>
<rscale>  0 0.51990062E+04</rscale>
<asrwt>0</asrwt>
<pdfrwt beam="1">  1        2 0.57777388E+00 0.51990062E+04</pdfrwt>
<pdfrwt beam="2">  1       -2 0.27681910E+00 0.51990062E+04</pdfrwt>
<totfact> 0.16692173E-02</totfact>
</mgrwt>
</event>
<event>
 6    1  0.1831439E-005  0.7040980E+04  0.7818608E-02  0.7573224E-01
          2   -1    0    0  501    0  0.00000000000E+00  0.00000000000E+00  0.24724754186E+04  0.24724754186E+04  0.00000000000E+00 0.  1.
         -2   -1    0    0    0  501 -0.00000000000E+00 -0.00000000000E+00 -0.50127287247E+04  0.50127287247E+04  0.00000000000E+00 0. -1.
         23    2    1    2    0    0 -0.78597581647E+03 -0.27176704784E+04 -0.34968255798E+04  0.44988147969E+04  0.89747578597E+02 0.  0.
         13    1    3    3    0    0 -0.38354660525E+03 -0.12125197415E+04 -0.15214612012E+04  0.19829665425E+04  0.00000000000E+00 0. -1.
        -13    1    3    3    0    0 -0.40242921122E+03 -0.15051507370E+04 -0.19753643786E+04  0.25158482544E+04  0.00000000000E+00 0.  1.
         22    1    1    2    0    0  0.78597581647E+03  0.27176704784E+04  0.95657227371E+03  0.29863893464E+04  0.00000000000E+00 0.  1.
<mgrwt>
<rscale>  0 0.70409796E+04</rscale>
<asrwt>0</asrwt>
<pdfrwt beam="1">  1        2 0.38038083E+00 0.70409796E+04</pdfrwt>
<pdfrwt beam="2">  1       -2 0.77118904E+00 0.70409796E+04</pdfrwt>
<totfact> 0.25843594E-04</totfact>
</mgrwt>
</event>
<event>
 6    1  0.1831439E-005  0.2361093E+04  0.7818608E-02  0.8454215E-01
          2   -1    0    0  501    0  0.00000000000E+00  0.00000000000E+00  0.12513094478E+04  0.12513094478E+04  0.00000000000E+00 0. -1.
         -2   -1    0    0    0  501 -0.00000000000E+00 -0.00000000000E+00 -0.11137852996E+04  0.11137852996E+04  0.00000000000E+00 0.  1.
         23    2    1    2    0    0  0.79238412180E+03 -0.71583736390E+03 -0.43125613039E+03  0.11552159381E+04  0.90809060595E+02 0.  0.
         11    1    3    3    0    0  0.40096979605E+03 -0.40293194779E+03 -0.19273040934E+03  0.60022990810E+03  0.00000000000E+00 0.  1.
        -11    1    3    3    0    0  0.39141432575E+03 -0.31290541610E+03 -0.23852572106E+03  0.55498602995E+03  0.00000000000E+00 0. -1.
         22    1    1    2    0    0 -0.79238412180E+03  0.71583736390E+03  0.56878027863E+03  0.12098788094E+04  0.00000000000E+00 0. -1.
<mgrwt>
<rscale>  0 0.23610930E+04</rscale>
<asrwt>0</asrwt>
<pdfrwt beam="1">  1        2 0.19250914E+00 0.23610930E+04</pdfrwt>
<pdfrwt beam="2">  1       -2 0.17135159E+00 0.23610930E+04</pdfrwt>
<totfact> 0.33206803E+00</totfact>
</mgrwt>
</event>
<event>
 6    1  0.1831439E-005  0.3163522E+04  0.7818608E-02  0.8198518E-01
         -2   -1    0    0    0  501 -0.00000000000E+00  0.00000000000E+00  0.85854948280E+03  0.85854948280E+03  0.00000000000E+00 0.  1.
          2   -1    0    0  501    0  0.00000000000E+00 -0.00000000000E+00 -0.29141800985E+04  0.29141800985E+04  0.00000000000E+00 0. -1.
         23    2    1    2    0    0  0.10040762073E+04  0.12201581022E+04 -0.99363878796E+03  0.18688436954E+04  0.91125695015E+02 0.  0.
         11    1    3    3    0    0  0.78539859064E+03  0.89877930871E+03 -0.72935036659E+03  0.13987877427E+04  0.00000000000E+00 0.  1.
        -11    1    3    3    0    0  0.21867761666E+03  0.32137879350E+03 -0.26428842137E+03  0.47005595263E+03  0.00000000000E+00 0. -1.
         22    1    1    2    0    0 -0.10040762073E+04 -0.12201581022E+04 -0.10619918277E+04  0.19038858859E+04  0.00000000000E+00 0. -1.
<mgrwt>
<rscale>  0 0.31635220E+04</rscale>
<asrwt>0</asrwt>
<pdfrwt beam="1">  1        2 0.44833540E+00 0.31635220E+04</pdfrwt>
<pdfrwt beam="2">  1       -2 0.13208454E+00 0.31635220E+04</pdfrwt>
<totfact> 0.69323707E-01</totfact>
</mgrwt>
</event>
<event>
 6    1  0.1831439E-005  0.1296644E+04  0.7818608E-02  0.9032231E-01
          2   -1    0    0  501    0  0.00000000000E+00  0.00000000000E+00  0.62960019443E+03  0.62960019443E+03  0.00000000000E+00 0. -1.
         -2   -1    0    0    0  501 -0.00000000000E+00 -0.00000000000E+00 -0.66760038665E+03  0.66760038665E+03  0.00000000000E+00 0.  1.
         23    2    1    2    0    0 -0.39198917779E+01  0.61154712449E+03 -0.22474770611E+03  0.65776341844E+03  0.90199402471E+02 0.  0.
         11    1    3    3    0    0  0.37886423229E+02  0.40140243826E+03 -0.16185330655E+03  0.43446034497E+03  0.00000000000E+00 0. -1.
        -11    1    3    3    0    0 -0.41806315007E+02  0.21014468623E+03 -0.62894399562E+02  0.22330307347E+03  0.00000000000E+00 0.  1.
         22    1    1    2    0    0  0.39198917779E+01 -0.61154712449E+03  0.18674751389E+03  0.63943716265E+03  0.00000000000E+00 0. -1.
<mgrwt>
<rscale>  0 0.12966439E+04</rscale>
<asrwt>0</asrwt>
<pdfrwt beam="1">  1        2 0.96861569E-01 0.12966439E+04</pdfrwt>
<pdfrwt beam="2">  1       -2 0.10270775E+00 0.12966439E+04</pdfrwt>
<totfact> 0.35541756E+01</totfact>
</mgrwt>
</event>
<event>
 6    1  0.1831439E-005  0.2326580E+04  0.7818608E-02  0.8467514E-01
         -2   -1    0    0    0  501 -0.00000000000E+00  0.00000000000E+00  0.57469629168E+03  0.57469629168E+03  0.00000000000E+00 0.  1.
          2   -1    0    0  501    0  0.00000000000E+00 -0.00000000000E+00 -0.23547108374E+04  0.23547108374E+04  0.00000000000E+00 0. -1.
         23    2    1    2    0    0  0.11426940742E+00 -0.71338573353E+03 -0.20454672755E+04  0.21682341069E+04  0.91561723038E+02 0.  0.
         13    1    3    3    0    0 -0.18804386254E+02 -0.51184133984E+03 -0.13496399734E+04  0.14435592194E+04  0.00000000000E+00 0. -1.
        -13    1    3    3    0    0  0.18918655662E+02 -0.20154439369E+03 -0.69582730217E+03  0.72467488752E+03  0.00000000000E+00 0.  1.
         22    1    1    2    0    0 -0.11426940742E+00  0.71338573353E+03  0.26545272986E+03  0.76117302216E+03  0.00000000000E+00 0.  1.
<mgrwt>
<rscale>  0 0.23265800E+04</rscale>
<asrwt>0</asrwt>
<pdfrwt beam="1">  1        2 0.36226321E+00 0.23265800E+04</pdfrwt>
<pdfrwt beam="2">  1       -2 0.88414812E-01 0.23265800E+04</pdfrwt>
<totfact> 0.42025448E+00</totfact>
</mgrwt>
</event>
<event>
 6    1  0.1831439E-005  0.2954622E+04  0.7818608E-02  0.8256809E-01
         -2   -1    0    0    0  501 -0.00000000000E+00  0.00000000000E+00  0.17001446098E+04  0.17001446098E+04  0.00000000000E+00 0.  1.
          2   -1    0    0  501    0  0.00000000000E+00 -0.00000000000E+00 -0.12836834145E+04  0.12836834145E+04  0.00000000000E+00 0. -1.
         23    2    1    2    0    0 -0.34728290848E+02  0.93265623715E+03  0.13630478920E+04  0.16545123789E+04  0.91967086771E+02 0.  0.
         11    1    3    3    0    0 -0.64896860909E+02  0.57352882045E+03  0.85730217197E+03  0.10334959722E+04  0.00000000000E+00 0. -1.
        -11    1    3    3    0    0  0.30168570061E+02  0.35912741670E+03  0.50574572002E+03  0.62101640668E+03  0.00000000000E+00 0.  1.
         22    1    1    2    0    0  0.34728290848E+02 -0.93265623715E+03 -0.94658669670E+03  0.13293156455E+04  0.00000000000E+00 0. -1.
<mgrwt>
<rscale>  0 0.29546218E+04</rscale>
<asrwt>0</asrwt>
<pdfrwt beam="1">  1        2 0.19748976E+00 0.29546218E+04</pdfrwt>
<pdfrwt beam="2">  1       -2 0.26156071E+00 0.29546218E+04</pdfrwt>
<totfact> 0.79246128E-01</totfact>
</mgrwt>
</event>
<event>
 6    1  0.1831439E-005  0.3587469E+04  0.7818608E-02  0.8093368E-01
          1   -1    0    0  501    0  0.00000000000E+00  0.00000000000E+00  0.13690682092E+04  0.13690682092E+04  0.00000000000E+00 0. -1.
         -1   -1    0    0    0  501 -0.00000000000E+00 -0.00000000000E+00 -0.23501270555E+04  0.23501270555E+04  0.00000000000E+00 0.  1.
         23    2    1    2    0    0  0.29781534806E+03  0.80566792616E+03  0.11402440351E+04  0.14305885480E+04  0.92910415762E+02 0.  0.
         13    1    3    3    0    0  0.10360475929E+03  0.37876093543E+03  0.46817550557E+03  0.61104999498E+03  0.00000000000E+00 0. -1.
        -13    1    3    3    0    0  0.19421058877E+03  0.42690699073E+03  0.67206852951E+03  0.81953855302E+03  0.00000000000E+00 0.  1.
         22    1    1    2    0    0 -0.29781534806E+03 -0.80566792616E+03 -0.21213028815E+04  0.22886067167E+04  0.00000000000E+00 0.  1.
<mgrwt>
<rscale>  0 0.35874694E+04</rscale>
<asrwt>0</asrwt>
<pdfrwt beam="1">  1        1 0.21062588E+00 0.35874694E+04</pdfrwt>
<pdfrwt beam="2">  1       -1 0.36155800E+00 0.35874694E+04</pdfrwt>
<totfact> 0.85108229E-02</totfact>
</mgrwt>
</event>
<event>
 6    1  0.1831439E-005  0.1505242E+04  0.7818608E-02  0.8880975E-01
         -1   -1    0    0    0  501 -0.00000000000E+00  0.00000000000E+00  0.50107601349E+03  0.50107601349E+03  0.00000000000E+00 0.  1.
          1   -1    0    0  501    0  0.00000000000E+00 -0.00000000000E+00 -0.11304436205E+04  0.11304436205E+04  0.00000000000E+00 0. -1.
         23    2    1    2    0    0  0.74241160087E+03 -0.10270169738E+03 -0.29615639534E+03  0.81130482350E+03  0.93724502633E+02 0.  0.
         13    1    3    3    0    0  0.46591007377E+03 -0.27984789586E+02 -0.21303554600E+03  0.51306869828E+03  0.00000000000E+00 0.  1.
        -13    1    3    3    0    0  0.27650152709E+03 -0.74716907797E+02 -0.83120849337E+02  0.29823612522E+03  0.00000000000E+00 0. -1.
         22    1    1    2    0    0 -0.74241160087E+03  0.10270169738E+03 -0.33321121165E+03  0.82021481047E+03  0.00000000000E+00 0. -1.
<mgrwt>
<rscale>  0 0.15052418E+04</rscale>
<asrwt>0</asrwt>
<pdfrwt beam="1">  1        1 0.17391440E+00 0.15052418E+04</pdfrwt>
<pdfrwt beam="2">  1       -1 0.77088618E-01 0.15052418E+04</pdfrwt>
<totfact> 0.19631013E+01</totfact>
</mgrwt>
</event>
<event>
 6    1  0.1831439E-005  0.2810946E+04  0.7818608E-02  0.8299878E-01
         -2   -1    0    0    0  501 -0.00000000000E+00  0.00000000000E+00  0.55152278575E+03  0.55152278575E+03  0.00000000000E+00 0.  1.
          2   -1    0    0  501    0  0.00000000000E+00 -0.00000000000E+00 -0.35816374376E+04  0.35816374376E+04  0.00000000000E+00 0. -1.
         23    2    1    2    0    0  0.78237652399E+03  0.10170234405E+04 -0.67874011552E+03  0.14544642880E+04  0.91260708562E+02 0.  0.
         11    1    3    3    0    0  0.44995147623E+03  0.65389359288E+03 -0.43476457323E+03  0.90501568821E+03  0.00000000000E+00 0.  1.
        -11    1    3    3    0    0  0.33242504775E+03  0.36312984762E+03 -0.24397554229E+03  0.54944859982E+03  0.00000000000E+00 0. -1.
         22    1    1    2    0    0 -0.78237652399E+03 -0.10170234405E+04 -0.23513745363E+04  0.26786959353E+04  0.00000000000E+00 0. -1.
<mgrwt>
<rscale>  0 0.28109462E+04</rscale>
<asrwt>0</asrwt>
<pdfrwt beam="1">  1        2 0.55102114E+00 0.28109462E+04</pdfrwt>
<pdfrwt beam="2">  1       -2 0.84849661E-01 0.28109462E+04</pdfrwt>
<totfact> 0.74840818E-01</totfact>
</mgrwt>
</event>
<event>
 6    1  0.1831439E-005  0.4277056E+04  0.7818608E-02  0.7950874E-01
         -2   -1    0    0    0  501 -0.00000000000E+00  0.00000000000E+00  0.29686892316E+04  0.29686892316E+04  0.00000000000E+00 0.  1.
          2   -1    0    0  501    0  0.00000000000E+00 -0.00000000000E+00 -0.15405125297E+04  0.15405125297E+04  0.00000000000E+00 0. -1.
         23    2    1    2    0    0 -0.18462304452E+04 -0.45257187352E+03  0.17451959879E+04  0.25820563633E+04  0.88982413292E+02 0.  0.
         13    1    3    3    0    0 -0.83826019369E+03 -0.16394971619E+03  0.80820296418E+03  0.11759046275E+04  0.00000000000E+00 0. -1.
        -13    1    3    3    0    0 -0.10079702515E+04 -0.28862215733E+03  0.93699302369E+03  0.14061517358E+04  0.00000000000E+00 0.  1.
         22    1    1    2    0    0  0.18462304452E+04  0.45257187352E+03 -0.31701928601E+03  0.19271453980E+04  0.00000000000E+00 0. -1.
<mgrwt>
<rscale>  0 0.42770564E+04</rscale>
<asrwt>0</asrwt>
<pdfrwt beam="1">  1        2 0.23700193E+00 0.42770564E+04</pdfrwt>
<pdfrwt beam="2">  1       -2 0.45672142E+00 0.42770564E+04</pdfrwt>
<totfact> 0.29140878E-02</totfact>
</mgrwt>
</event>
<event>
 6    1  0.1831439E-005  0.3197589E+04  0.7818608E-02  0.8189454E-01
         -1   -1    0    0    0  501 -0.00000000000E+00  0.00000000000E+00  0.11432351866E+04  0.11432351866E+04  0.00000000000E+00 0.  1.
          1   -1    0    0  501    0  0.00000000000E+00 -0.00000000000E+00 -0.22358863892E+04  0.22358863892E+04  0.00000000000E+00 0. -1.
         23    2    1    2    0    0  0.49169191057E+03 -0.22669487094E+03 -0.21348787522E+04  0.22046473255E+04  0.98035931052E+02 0.  0.
         13    1    3    3    0    0  0.31490101234E+03 -0.10513844003E+03 -0.14184365053E+04  0.14567700088E+04  0.00000000000E+00 0. -1.
        -13    1    3    3    0    0  0.17679089824E+03 -0.12155643091E+03 -0.71644224698E+03  0.74787731671E+03  0.00000000000E+00 0.  1.
         22    1    1    2    0    0 -0.49169191057E+03  0.22669487094E+03  0.10422275496E+04  0.11744742503E+04  0.00000000000E+00 0.  1.
<mgrwt>
<rscale>  0 0.31975891E+04</rscale>
<asrwt>0</asrwt>
<pdfrwt beam="1">  1        1 0.34398251E+00 0.31975891E+04</pdfrwt>
<pdfrwt beam="2">  1       -1 0.17588234E+00 0.31975891E+04</pdfrwt>
<totfact> 0.38397928E-01</totfact>
</mgrwt>
</event>
<event>
 6    1  0.1831439E-005  0.3119821E+04  0.7818608E-02  0.8210319E-01
          1   -1    0    0  501    0  0.00000000000E+00  0.00000000000E+00  0.24644076170E+04  0.24644076170E+04  0.00000000000E+00 0. -1.
         -1   -1    0    0    0  501 -0.00000000000E+00 -0.00000000000E+00 -0.98738547126E+03  0.98738547126E+03  0.00000000000E+00 0.  1.
         23    2    1    2    0    0 -0.79319009074E+03 -0.13093420089E+04  0.41610795516E+03  0.15892502200E+04  0.95096871452E+02 0.  0.
         13    1    3    3    0    0 -0.74543866577E+03 -0.12571508387E+04  0.41146698807E+03  0.15183583628E+04  0.00000000000E+00 0. -1.
        -13    1    3    3    0    0 -0.47751424969E+02 -0.52191170269E+02  0.46409670863E+01  0.70891857192E+02  0.00000000000E+00 0.  1.
         22    1    1    2    0    0  0.79319009074E+03  0.13093420089E+04  0.10609141906E+04  0.18625428683E+04  0.00000000000E+00 0. -1.
<mgrwt>
<rscale>  0 0.31198207E+04</rscale>
<asrwt>0</asrwt>
<pdfrwt beam="1">  1        1 0.37913963E+00 0.31198207E+04</pdfrwt>
<pdfrwt beam="2">  1       -1 0.15190546E+00 0.31198207E+04</pdfrwt>
<totfact> 0.40716538E-01</totfact>
</mgrwt>
</event>
<event>
 6    1  0.1831439E-005  0.3624516E+04  0.7818608E-02  0.8084899E-01
         -2   -1    0    0    0  501 -0.00000000000E+00  0.00000000000E+00  0.14968578710E+04  0.14968578710E+04  0.00000000000E+00 0. -1.
          2   -1    0    0  501    0  0.00000000000E+00 -0.00000000000E+00 -0.21941151411E+04  0.21941151411E+04  0.00000000000E+00 0.  1.
         23    2    1    2    0    0 -0.12296110046E+04 -0.59249680410E+03  0.86377406589E+03  0.16173736011E+04  0.82438116591E+02 0.  0.
         11    1    3    3    0    0 -0.59781007946E+03 -0.24320950767E+03  0.41697045815E+03  0.76836977992E+03  0.00000000000E+00 0. -1.
        -11    1    3    3    0    0 -0.63180092513E+03 -0.34928729643E+03  0.44680360774E+03  0.84900382116E+03  0.00000000000E+00 0.  1.
         22    1    1    2    0    0  0.12296110046E+04  0.59249680410E+03 -0.15610313360E+04  0.20735994110E+04  0.00000000000E+00 0.  1.
<mgrwt>
<rscale>  0 0.36245157E+04</rscale>
<asrwt>0</asrwt>
<pdfrwt beam="1">  1        2 0.33755617E+00 0.36245157E+04</pdfrwt>
<pdfrwt beam="2">  1       -2 0.23028583E+00 0.36245157E+04</pdfrwt>
<totfact> 0.36039594E-01</totfact>
</mgrwt>
</event>
<event>
 6    1  0.1831439E-005  0.1907752E+04  0.7818608E-02  0.8651007E-01
         -2   -1    0    0    0  501 -0.00000000000E+00  0.00000000000E+00  0.31858350560E+04  0.31858350560E+04  0.00000000000E+00 0.  1.
          2   -1    0    0  501    0  0.00000000000E+00 -0.00000000000E+00 -0.28560167969E+03  0.28560167969E+03  0.00000000000E+00 0. -1.
         23    2    1    2    0    0 -0.75281778977E+03 -0.24712381718E+03  0.49472829121E+03  0.93879789053E+03  0.93704810586E+02 0.  0.
         11    1    3    3    0    0 -0.56466946946E+03 -0.16412814143E+03  0.32316557278E+03  0.67098855726E+03  0.00000000000E+00 0. -1.
        -11    1    3    3    0    0 -0.18814832031E+03 -0.82995675756E+02  0.17156271843E+03  0.26780933327E+03  0.00000000000E+00 0.  1.
         22    1    1    2    0    0  0.75281778977E+03  0.24712381718E+03  0.24055050851E+04  0.25326388452E+04  0.00000000000E+00 0.  1.
<mgrwt>
<rscale>  0 0.19077524E+04</rscale>
<asrwt>0</asrwt>
<pdfrwt beam="1">  1        2 0.43938722E-01 0.19077524E+04</pdfrwt>
<pdfrwt beam="2">  1       -2 0.49012844E+00 0.19077524E+04</pdfrwt>
<totfact> 0.20624485E-01</totfact>
</mgrwt>
</event>
<event>
 6    1  0.1831439E-005  0.1096444E+04  0.7818608E-02  0.9208665E-01
          1   -1    0    0  501    0  0.00000000000E+00  0.00000000000E+00  0.11685304138E+04  0.11685304138E+04  0.00000000000E+00 0. -1.
         -1   -1    0    0    0  501 -0.00000000000E+00 -0.00000000000E+00 -0.25720114114E+03  0.25720114114E+03  0.00000000000E+00 0.  1.
         23    2    1    2    0    0  0.47888140780E+03 -0.90777008294E+02  0.77424185925E+03  0.91941068150E+03  0.91091583951E+02 0.  0.
         11    1    3    3    0    0  0.34848546144E+03 -0.99732431402E+02  0.60921005480E+03  0.70889037628E+03  0.00000000000E+00 0. -1.
        -11    1    3    3    0    0  0.13039594636E+03  0.89554231083E+01  0.16503180445E+03  0.21052030522E+03  0.00000000000E+00 0.  1.
         22    1    1    2    0    0 -0.47888140780E+03  0.90777008294E+02  0.13708741342E+03  0.50632087345E+03  0.00000000000E+00 0. -1.
<mgrwt>
<rscale>  0 0.10964440E+04</rscale>
<asrwt>0</asrwt>
<pdfrwt beam="1">  1        1 0.17977391E+00 0.10964440E+04</pdfrwt>
<pdfrwt beam="2">  1       -1 0.39569407E-01 0.10964440E+04</pdfrwt>
<totfact> 0.69741579E+01</totfact>
</mgrwt>
</event>
<event>
 6    1  0.1831439E-005  0.2214450E+04  0.7818608E-02  0.8512438E-01
          2   -1    0    0  501    0  0.00000000000E+00  0.00000000000E+00  0.16357274365E+04  0.16357274365E+04  0.00000000000E+00 0.  1.
         -2   -1    0    0    0  501 -0.00000000000E+00 -0.00000000000E+00 -0.74948116207E+03  0.74948116207E+03  0.00000000000E+00 0. -1.
         23    2    1    2    0    0  0.10341462904E+04 -0.15351369379E+03  0.83037802144E+03  0.13382385581E+04  0.91267605215E+02 0.  0.
         13    1    3    3    0    0  0.65644909467E+03 -0.94704301571E+02  0.46997898995E+03  0.81288041533E+03  0.00000000000E+00 0. -1.
        -13    1    3    3    0    0  0.37769719570E+03 -0.58809392221E+02  0.36039903148E+03  0.52535814274E+03  0.00000000000E+00 0.  1.
         22    1    1    2    0    0 -0.10341462904E+04  0.15351369379E+03  0.55868253018E+02  0.10469700405E+04  0.00000000000E+00 0. -1.
<mgrwt>
<rscale>  0 0.22144497E+04</rscale>
<asrwt>0</asrwt>
<pdfrwt beam="1">  1        2 0.25165037E+00 0.22144497E+04</pdfrwt>
<pdfrwt beam="2">  1       -2 0.11530479E+00 0.22144497E+04</pdfrwt>
<totfact> 0.56971187E+00</totfact>
</mgrwt>
</event>
<event>
 6    1  0.1831439E-005  0.1898655E+04  0.7818608E-02  0.8655526E-01
         -2   -1    0    0    0  501 -0.00000000000E+00  0.00000000000E+00  0.10369684193E+04  0.10369684193E+04  0.00000000000E+00 0.  1.
          2   -1    0    0  501    0  0.00000000000E+00 -0.00000000000E+00 -0.86909394043E+03  0.86909394043E+03  0.00000000000E+00 0. -1.
         23    2    1    2    0    0 -0.71213634374E+02 -0.92891755035E+03 -0.87292445957E+02  0.94010720726E+03  0.90677411443E+02 0.  0.
         11    1    3    3    0    0 -0.86671397116E+02 -0.55564340011E+03 -0.58803107823E+02  0.56542844344E+03  0.00000000000E+00 0. -1.
        -11    1    3    3    0    0  0.15457762742E+02 -0.37327415024E+03 -0.28489338134E+02  0.37467876382E+03  0.00000000000E+00 0.  1.
         22    1    1    2    0    0  0.71213634374E+02  0.92891755035E+03  0.25516692485E+03  0.96595515249E+03  0.00000000000E+00 0. -1.
<mgrwt>
<rscale>  0 0.18986553E+04</rscale>
<asrwt>0</asrwt>
<pdfrwt beam="1">  1        2 0.13370676E+00 0.18986553E+04</pdfrwt>
<pdfrwt beam="2">  1       -2 0.15953360E+00 0.18986553E+04</pdfrwt>
<totfact> 0.73186761E+00</totfact>
</mgrwt>
</event>
<event>
 6    1  0.1831439E-005  0.1596333E+04  0.7818608E-02  0.8822804E-01
          2   -1    0    0  501    0  0.00000000000E+00  0.00000000000E+00  0.14167532344E+04  0.14167532344E+04  0.00000000000E+00 0. -1.
         -2   -1    0    0    0  501 -0.00000000000E+00 -0.00000000000E+00 -0.44966905316E+03  0.44966905316E+03  0.00000000000E+00 0.  1.
         23    2    1    2    0    0 -0.66932198498E+03  0.23156056915E+03  0.90860244694E+03  0.11557660204E+04  0.92868028093E+02 0.  0.
         11    1    3    3    0    0 -0.53510765484E+03  0.20455991298E+03  0.67834315437E+03  0.88788197152E+03  0.00000000000E+00 0.  1.
        -11    1    3    3    0    0 -0.13421433014E+03  0.27000656172E+02  0.23025929257E+03  0.26788404892E+03  0.00000000000E+00 0. -1.
         22    1    1    2    0    0  0.66932198498E+03 -0.23156056915E+03  0.58481734302E+02  0.71065626713E+03  0.00000000000E+00 0. -1.
<mgrwt>
<rscale>  0 0.15963334E+04</rscale>
<asrwt>0</asrwt>
<pdfrwt beam="1">  1        2 0.21796203E+00 0.15963334E+04</pdfrwt>
<pdfrwt beam="2">  1       -2 0.69179855E-01 0.15963334E+04</pdfrwt>
<totfact> 0.25895808E+01</totfact>
</mgrwt>
</event>
<event>
 6    1  0.1831439E-005  0.2854227E+04  0.7818608E-02  0.8286628E-01
         -1   -1    0    0    0  501 -0.00000000000E+00  0.00000000000E+00  0.27871653228E+04  0.27871653228E+04  0.00000000000E+00 0.  1.
          1   -1    0    0  501    0  0.00000000000E+00 -0.00000000000E+00 -0.73072576249E+03  0.73072576249E+03  0.00000000000E+00 0. -1.
         23    2    1    2    0    0  0.68272719435E+03 -0.31114990035E+03 -0.46464315774E+03  0.88753203116E+03  0.94282341448E+02 0.  0.
         11    1    3    3    0    0  0.53133346536E+03 -0.21886183055E+03 -0.31379097036E+03  0.65473698945E+03  0.00000000000E+00 0. -1.
        -11    1    3    3    0    0  0.15139372900E+03 -0.92288069803E+02 -0.15085218738E+03  0.23279504171E+03  0.00000000000E+00 0.  1.
         22    1    1    2    0    0 -0.68272719435E+03  0.31114990035E+03  0.25210827180E+04  0.26303590541E+04  0.00000000000E+00 0.  1.
<mgrwt>
<rscale>  0 0.28542274E+04</rscale>
<asrwt>0</asrwt>
<pdfrwt beam="1">  1        1 0.11241935E+00 0.28542274E+04</pdfrwt>
<pdfrwt beam="2">  1       -1 0.42879466E+00 0.28542274E+04</pdfrwt>
<totfact> 0.99560735E-02</totfact>
</mgrwt>
</event>
<event>
 6    1  0.1831439E-005  0.2076798E+04  0.7818608E-02  0.8571533E-01
          2   -1    0    0  501    0  0.00000000000E+00  0.00000000000E+00  0.97053835704E+03  0.97053835704E+03  0.00000000000E+00 0. -1.
         -2   -1    0    0    0  501 -0.00000000000E+00 -0.00000000000E+00 -0.11110044703E+04  0.11110044703E+04  0.00000000000E+00 0.  1.
         23    2    1    2    0    0 -0.23692668717E+03  0.91189964512E+03 -0.50311216322E+03  0.10719848174E+04  0.91292837073E+02 0.  0.
         11    1    3    3    0    0 -0.18312997939E+03  0.65244108846E+03 -0.40482499909E+03  0.78936635547E+03  0.00000000000E+00 0. -1.
        -11    1    3    3    0    0 -0.53796707786E+02  0.25945855667E+03 -0.98287164131E+02  0.28261846194E+03  0.00000000000E+00 0.  1.
         22    1    1    2    0    0  0.23692668717E+03 -0.91189964512E+03  0.36264604995E+03  0.10095580099E+04  0.00000000000E+00 0. -1.
<mgrwt>
<rscale>  0 0.20767980E+04</rscale>
<asrwt>0</asrwt>
<pdfrwt beam="1">  1        2 0.14931359E+00 0.20767980E+04</pdfrwt>
<pdfrwt beam="2">  1       -2 0.17092376E+00 0.20767980E+04</pdfrwt>
<totfact> 0.51005759E+00</totfact>
</mgrwt>
</event>
<event>
 6    1  0.1831439E-005  0.1393451E+04  0.7818608E-02  0.8958572E-01
          1   -1    0    0  501    0  0.00000000000E+00  0.00000000000E+00  0.94428663397E+03  0.94428663397E+03  0.00000000000E+00 0. -1.
         -1   -1    0    0    0  501 -0.00000000000E+00 -0.00000000000E+00 -0.51406713903E+03  0.51406713903E+03  0.00000000000E+00 0.  1.
         23    2    1    2    0    0  0.87208576169E+02 -0.31338752980E+03  0.85738138427E+03  0.92143258764E+03  0.90100476593E+02 0.  0.
         13    1    3    3    0    0  0.36061007454E+02 -0.11225992858E+03  0.43683368931E+03  0.45246697110E+03  0.00000000000E+00 0.  1.
        -13    1    3    3    0    0  0.51147568716E+02 -0.20112760122E+03  0.42054769496E+03  0.46896561654E+03  0.00000000000E+00 0. -1.
         22    1    1    2    0    0 -0.87208576169E+02  0.31338752980E+03 -0.42716188933E+03  0.53692118536E+03  0.00000000000E+00 0.  1.
<mgrwt>
<rscale>  0 0.13934514E+04</rscale>
<asrwt>0</asrwt>
<pdfrwt beam="1">  1        1 0.14527487E+00 0.13934514E+04</pdfrwt>
<pdfrwt beam="2">  1       -1 0.79087252E-01 0.13934514E+04</pdfrwt>
<totfact> 0.26128247E+01</totfact>
</mgrwt>
</event>
<event>
 6    1  0.1831439E-005  0.2667486E+04  0.7818608E-02  0.8345632E-01
          2   -1    0    0  501    0  0.00000000000E+00  0.00000000000E+00  0.16241891833E+04  0.16241891833E+04  0.00000000000E+00 0. -1.
         -2   -1    0    0    0  501 -0.00000000000E+00 -0.00000000000E+00 -0.10952361769E+04  0.10952361769E+04  0.00000000000E+00 0.  1.
         23    2    1    2    0    0  0.98839883762E+03 -0.27740185188E+03 -0.60081506523E+03  0.11929064623E+04  0.90349519136E+02 0.  0.
         13    1    3    3    0    0  0.95731878187E+03 -0.25232207593E+03 -0.58511973017E+03  0.11499959908E+04  0.00000000000E+00 0. -1.
        -13    1    3    3    0    0  0.31080055745E+02 -0.25079775955E+02 -0.15695335059E+02  0.42910471562E+02  0.00000000000E+00 0.  1.
         22    1    1    2    0    0 -0.98839883762E+03  0.27740185188E+03  0.11297680716E+04  0.15265188978E+04  0.00000000000E+00 0. -1.
<mgrwt>
<rscale>  0 0.26674863E+04</rscale>
<asrwt>0</asrwt>
<pdfrwt beam="1">  1        2 0.24987526E+00 0.26674863E+04</pdfrwt>
<pdfrwt beam="2">  1       -2 0.16849787E+00 0.26674863E+04</pdfrwt>
<totfact> 0.20776472E+00</totfact>
</mgrwt>
</event>
<event>
 6    1  0.1831439E-005  0.1131084E+04  0.7818608E-02  0.9175414E-01
         -1   -1    0    0    0  501 -0.00000000000E+00  0.00000000000E+00  0.48573725230E+03  0.48573725230E+03  0.00000000000E+00 0.  1.
          1   -1    0    0  501    0  0.00000000000E+00 -0.00000000000E+00 -0.65845784897E+03  0.65845784897E+03  0.00000000000E+00 0. -1.
         23    2    1    2    0    0 -0.27979666118E+03  0.43503981857E+03 -0.30916361350E+03  0.60925350428E+03  0.89787956945E+02 0.  0.
         11    1    3    3    0    0 -0.26569629047E+03  0.35543733356E+03 -0.25306678115E+03  0.51085517769E+03  0.00000000000E+00 0. -1.
        -11    1    3    3    0    0 -0.14100370708E+02  0.79602485015E+02 -0.56096832346E+02  0.98398326581E+02  0.00000000000E+00 0.  1.
         22    1    1    2    0    0  0.27979666118E+03 -0.43503981857E+03  0.13644301683E+03  0.53494159699E+03  0.00000000000E+00 0.  1.
<mgrwt>
<rscale>  0 0.11310836E+04</rscale>
<asrwt>0</asrwt>
<pdfrwt beam="1">  1        1 0.10130121E+00 0.11310836E+04</pdfrwt>
<pdfrwt beam="2">  1       -1 0.74728809E-01 0.11310836E+04</pdfrwt>
<totfact> 0.53547794E+01</totfact>
</mgrwt>
</event>
<event>
 6    1  0.1831439E-005  0.5104742E+04  0.7818608E-02  0.7812550E-01
         -1   -1    0    0    0  501 -0.00000000000E+00  0.00000000000E+00  0.16343356302E+04  0.16343356302E+04  0.00000000000E+00 0. -1.
          1   -1    0    0  501    0  0.00000000000E+00 -0.00000000000E+00 -0.39860829745E+04  0.39860829745E+04  0.00000000000E+00 0.  1.
         23    2    1    2    0    0  0.61648514619E+02  0.13655592961E+04 -0.35483554182E+04  0.38037118003E+04  0.94045496130E+02 0.  0.
         13    1    3    3    0    0 -0.43620059570E+01  0.45336362851E+03 -0.12797746810E+04  0.13577116191E+04  0.00000000000E+00 0.  1.
        -13    1    3    3    0    0  0.66010520576E+02  0.91219566760E+03 -0.22685807372E+04  0.24460001811E+04  0.00000000000E+00 0. -1.
         22    1    1    2    0    0 -0.61648514619E+02 -0.13655592961E+04  0.11966080739E+04  0.18167068043E+04  0.00000000000E+00 0. -1.
<mgrwt>
<rscale>  0 0.51047419E+04</rscale>
<asrwt>0</asrwt>
<pdfrwt beam="1">  1        1 0.61324352E+00 0.51047419E+04</pdfrwt>
<pdfrwt beam="2">  1       -1 0.25143625E+00 0.51047419E+04</pdfrwt>
<totfact> 0.48051413E-03</totfact>
</mgrwt>
</event>
<event>
 6    1  0.1831439E-005  0.6950789E+03  0.7818608E-02  0.9725685E-01
          2   -1    0    0  501    0  0.00000000000E+00  0.00000000000E+00  0.31317613308E+04  0.31317613308E+04  0.00000000000E+00 0. -1.
         -2   -1    0    0    0  501 -0.00000000000E+00 -0.00000000000E+00 -0.38567334033E+02  0.38567334033E+02  0.00000000000E+00 0.  1.
         23    2    1    2    0    0  0.22723777946E+03 -0.55154902766E+02  0.27094823775E+04  0.27209806055E+04  0.88100110894E+02 0.  0.
         13    1    3    3    0    0  0.35866973064E+02 -0.30626831262E+02  0.90150138286E+03  0.90273428308E+03  0.00000000000E+00 0.  1.
        -13    1    3    3    0    0  0.19137080639E+03 -0.24528071504E+02  0.18079809947E+04  0.18182463224E+04  0.00000000000E+00 0. -1.
         22    1    1    2    0    0 -0.22723777946E+03  0.55154902766E+02  0.38371161927E+03  0.44934805939E+03  0.00000000000E+00 0.  1.
<mgrwt>
<rscale>  0 0.69507895E+03</rscale>
<asrwt>0</asrwt>
<pdfrwt beam="1">  1        2 0.48180924E+00 0.69507895E+03</pdfrwt>
<pdfrwt beam="2">  1       -2 0.59334384E-02 0.69507895E+03</pdfrwt>
<totfact> 0.24215203E+02</totfact>
</mgrwt>
</event>
<event>
 6    1  0.1831439E-005  0.1757233E+04  0.7818608E-02  0.8729379E-01
         -1   -1    0    0    0  501 -0.00000000000E+00  0.00000000000E+00  0.13369466893E+04  0.13369466893E+04  0.00000000000E+00 0.  1.
          1   -1    0    0  501    0  0.00000000000E+00 -0.00000000000E+00 -0.57741020376E+03  0.57741020376E+03  0.00000000000E+00 0. -1.
         23    2    1    2    0    0  0.21384805613E+03 -0.54539956225E+03 -0.32912409527E+03  0.67808284019E+03  0.91005463865E+02 0.  0.
         11    1    3    3    0    0  0.74995941637E+02 -0.20675122574E+03 -0.74463987629E+02  0.23219678305E+03  0.00000000000E+00 0. -1.
        -11    1    3    3    0    0  0.13885211449E+03 -0.33864833651E+03 -0.25466010764E+03  0.44588605713E+03  0.00000000000E+00 0.  1.
         22    1    1    2    0    0 -0.21384805613E+03  0.54539956225E+03  0.10886605808E+04  0.12362740529E+04  0.00000000000E+00 0.  1.
<mgrwt>
<rscale>  0 0.17572327E+04</rscale>
<asrwt>0</asrwt>
<pdfrwt beam="1">  1        1 0.88832339E-01 0.17572327E+04</pdfrwt>
<pdfrwt beam="2">  1       -1 0.20568411E+00 0.17572327E+04</pdfrwt>
<totfact> 0.47145773E+00</totfact>
</mgrwt>
</event>
<event>
 6    1  0.1831439E-005  0.1171104E+04  0.7818608E-02  0.9138532E-01
         -2   -1    0    0    0  501 -0.00000000000E+00  0.00000000000E+00  0.16621543722E+03  0.16621543722E+03  0.00000000000E+00 0. -1.
          2   -1    0    0  501    0  0.00000000000E+00 -0.00000000000E+00 -0.20628113415E+04  0.20628113415E+04  0.00000000000E+00 0.  1.
         23    2    1    2    0    0 -0.49671676588E+03  0.30393704771E+03 -0.96423949904E+03  0.11297571390E+04  0.86533849166E+02 0.  0.
         11    1    3    3    0    0 -0.33672076621E+03  0.19441558000E+03 -0.71611381794E+03  0.81486029010E+03  0.00000000000E+00 0.  1.
        -11    1    3    3    0    0 -0.15999599967E+03  0.10952146771E+03 -0.24812568110E+03  0.31489684886E+03  0.00000000000E+00 0. -1.
         22    1    1    2    0    0  0.49671676588E+03 -0.30393704771E+03 -0.93235640525E+03  0.10992696398E+04  0.00000000000E+00 0.  1.
<mgrwt>
<rscale>  0 0.11711039E+04</rscale>
<asrwt>0</asrwt>
<pdfrwt beam="1">  1        2 0.31735558E+00 0.11711039E+04</pdfrwt>
<pdfrwt beam="2">  1       -2 0.25571606E-01 0.11711039E+04</pdfrwt>
<totfact> 0.84066601E+01</totfact>
</mgrwt>
</event>
<event>
 6    1  0.1831439E-005  0.2838616E+04  0.7818608E-02  0.8291379E-01
          2   -1    0    0  501    0  0.00000000000E+00  0.00000000000E+00  0.11656334472E+04  0.11656334472E+04  0.00000000000E+00 0.  1.
         -2   -1    0    0    0  501 -0.00000000000E+00 -0.00000000000E+00 -0.17281887554E+04  0.17281887554E+04  0.00000000000E+00 0. -1.
         23    2    1    2    0    0  0.59114983078E+03  0.63245642022E+03 -0.14262766720E+04  0.16709265243E+04  0.90945360814E+02 0.  0.
         11    1    3    3    0    0  0.70503380811E+02  0.12218704929E+03 -0.25045862188E+03  0.28745421025E+03  0.00000000000E+00 0. -1.
        -11    1    3    3    0    0  0.52064644997E+03  0.51026937094E+03 -0.11758180501E+04  0.13834723140E+04  0.00000000000E+00 0.  1.
         22    1    1    2    0    0 -0.59114983078E+03 -0.63245642022E+03  0.86372136378E+03  0.12228956784E+04  0.00000000000E+00 0.  1.
<mgrwt>
<rscale>  0 0.28386156E+04</rscale>
<asrwt>0</asrwt>
<pdfrwt beam="1">  1        2 0.17932822E+00 0.28386156E+04</pdfrwt>
<pdfrwt beam="2">  1       -2 0.26587519E+00 0.28386156E+04</pdfrwt>
<totfact> 0.88499626E-01</totfact>
</mgrwt>
</event>
<event>
 6    1  0.1831439E-005  0.2329171E+04  0.7818608E-02  0.8466507E-01
         -1   -1    0    0    0  501 -0.00000000000E+00  0.00000000000E+00  0.49792595640E+03  0.49792595640E+03  0.00000000000E+00 0.  1.
          1   -1    0    0  501    0  0.00000000000E+00 -0.00000000000E+00 -0.27238178821E+04  0.27238178821E+04  0.00000000000E+00 0. -1.
         23    2    1    2    0    0  0.55373845536E+03  0.14717754982E+03  0.28460837264E+03  0.64669058545E+03  0.94441936717E+02 0.  0.
         11    1    3    3    0    0  0.17417045390E+02  0.49904205164E+01  0.32591588802E+02  0.37288998749E+02  0.00000000000E+00 0.  1.
        -11    1    3    3    0    0  0.53632140997E+03  0.14218712931E+03  0.25201678384E+03  0.60940158670E+03  0.00000000000E+00 0. -1.
         22    1    1    2    0    0 -0.55373845536E+03 -0.14717754982E+03 -0.25105002984E+04  0.25750532531E+04  0.00000000000E+00 0. -1.
<mgrwt>
<rscale>  0 0.23291712E+04</rscale>
<asrwt>0</asrwt>
<pdfrwt beam="1">  1        1 0.41904890E+00 0.23291712E+04</pdfrwt>
<pdfrwt beam="2">  1       -1 0.76603993E-01 0.23291712E+04</pdfrwt>
<totfact> 0.14556916E+00</totfact>
</mgrwt>
</event>
<event>
 6    1  0.1831439E-005  0.1740366E+04  0.7818608E-02  0.8738671E-01
          1   -1    0    0  501    0  0.00000000000E+00  0.00000000000E+00  0.79521857458E+03  0.79521857458E+03  0.00000000000E+00 0. -1.
         -1   -1    0    0    0  501 -0.00000000000E+00 -0.00000000000E+00 -0.95221451229E+03  0.95221451229E+03  0.00000000000E+00 0.  1.
         23    2    1    2    0    0 -0.62948870982E+03 -0.33818728696E+03  0.41604295988E+03  0.83146351586E+03  0.87253406212E+02 0.  0.
         11    1    3    3    0    0 -0.32584229996E+03 -0.17769497649E+03  0.26624451012E+03  0.45676563824E+03  0.00000000000E+00 0. -1.
        -11    1    3    3    0    0 -0.30364640986E+03 -0.16049231047E+03  0.14979844976E+03  0.37469787762E+03  0.00000000000E+00 0.  1.
         22    1    1    2    0    0  0.62948870982E+03  0.33818728696E+03 -0.57303889759E+03  0.91596957100E+03  0.00000000000E+00 0.  1.
<mgrwt>
<rscale>  0 0.17403662E+04</rscale>
<asrwt>0</asrwt>
<pdfrwt beam="1">  1        1 0.12234132E+00 0.17403662E+04</pdfrwt>
<pdfrwt beam="2">  1       -1 0.14649454E+00 0.17403662E+04</pdfrwt>
<totfact> 0.78718389E+00</totfact>
</mgrwt>
</event>
<event>
 6    1  0.1831439E-005  0.1513717E+04  0.7818608E-02  0.8875382E-01
         -2   -1    0    0    0  501 -0.00000000000E+00  0.00000000000E+00  0.38032157373E+03  0.38032157373E+03  0.00000000000E+00 0.  1.
          2   -1    0    0  501    0  0.00000000000E+00 -0.00000000000E+00 -0.15061850770E+04  0.15061850770E+04  0.00000000000E+00 0. -1.
         23    2    1    2    0    0 -0.33277352982E+03 -0.54496050833E+03 -0.10649732696E+04  0.12450802727E+04  0.91305217445E+02 0.  0.
         11    1    3    3    0    0 -0.71478664968E+02 -0.71129489872E+02 -0.12633964297E+03  0.16164872181E+03  0.00000000000E+00 0.  1.
        -11    1    3    3    0    0 -0.26129486485E+03 -0.47383101846E+03 -0.93863362667E+03  0.10834315509E+04  0.00000000000E+00 0. -1.
         22    1    1    2    0    0  0.33277352982E+03  0.54496050833E+03 -0.60890233599E+02  0.64142637796E+03  0.00000000000E+00 0.  1.
<mgrwt>
<rscale>  0 0.15137169E+04</rscale>
<asrwt>0</asrwt>
<pdfrwt beam="1">  1        2 0.23172078E+00 0.15137169E+04</pdfrwt>
<pdfrwt beam="2">  1       -2 0.58511011E-01 0.15137169E+04</pdfrwt>
<totfact> 0.33188663E+01</totfact>
</mgrwt>
</event>
<event>
 6    1  0.1831439E-005  0.3276164E+04  0.7818608E-02  0.8168987E-01
         -2   -1    0    0    0  501 -0.00000000000E+00  0.00000000000E+00  0.10027745565E+04  0.10027745565E+04  0.00000000000E+00 0.  1.
          2   -1    0    0  501    0  0.00000000000E+00 -0.00000000000E+00 -0.26758887124E+04  0.26758887124E+04  0.00000000000E+00 0. -1.
         23    2    1    2    0    0  0.16056782937E+04  0.18506567513E+03 -0.54627762101E+03  0.17083301339E+04  0.86720933844E+02 0.  0.
         13    1    3    3    0    0  0.31272871077E+03  0.25895712465E+02 -0.14111104975E+03  0.34406709058E+03  0.00000000000E+00 0. -1.
        -13    1    3    3    0    0  0.12929495829E+04  0.15916996266E+03 -0.40516657127E+03  0.13642630433E+04  0.00000000000E+00 0.  1.
         22    1    1    2    0    0 -0.16056782937E+04 -0.18506567513E+03 -0.11268365349E+04  0.19703331351E+04  0.00000000000E+00 0. -1.
<mgrwt>
<rscale>  0 0.32761643E+04</rscale>
<asrwt>0</asrwt>
<pdfrwt beam="1">  1        2 0.41167518E+00 0.32761643E+04</pdfrwt>
<pdfrwt beam="2">  1       -2 0.15427301E+00 0.32761643E+04</pdfrwt>
<totfact> 0.63831924E-01</totfact>
</mgrwt>
</event>
<event>
 6    1  0.1831439E-005  0.1864458E+04  0.7818608E-02  0.8672753E-01
         -2   -1    0    0    0  501 -0.00000000000E+00  0.00000000000E+00  0.67446353563E+03  0.67446353563E+03  0.00000000000E+00 0.  1.
          2   -1    0    0  501    0  0.00000000000E+00 -0.00000000000E+00 -0.12885066307E+04  0.12885066307E+04  0.00000000000E+00 0. -1.
         23    2    1    2    0    0  0.17522462122E+03  0.77829078556E+02 -0.12659176189E+04  0.12834840163E+04  0.89569910194E+02 0.  0.
         13    1    3    3    0    0  0.58574279229E+02  0.54035867077E+02 -0.73899707707E+03  0.74328157588E+03  0.00000000000E+00 0.  1.
        -13    1    3    3    0    0  0.11665034199E+03  0.23793211478E+02 -0.52692054185E+03  0.54020244041E+03  0.00000000000E+00 0. -1.
         22    1    1    2    0    0 -0.17522462122E+03 -0.77829078556E+02  0.65187452382E+03  0.67948615009E+03  0.00000000000E+00 0.  1.
<mgrwt>
<rscale>  0 0.18644578E+04</rscale>
<asrwt>0</asrwt>
<pdfrwt beam="1">  1        2 0.19823179E+00 0.18644578E+04</pdfrwt>
<pdfrwt beam="2">  1       -2 0.10376362E+00 0.18644578E+04</pdfrwt>
<totfact> 0.11927648E+01</totfact>
</mgrwt>
</event>
<event>
 6    1  0.1831439E-005  0.1730962E+04  0.7818608E-02  0.8743900E-01
         -2   -1    0    0    0  501 -0.00000000000E+00  0.00000000000E+00  0.47005973319E+03  0.47005973319E+03  0.00000000000E+00 0.  1.
          2   -1    0    0  501    0  0.00000000000E+00 -0.00000000000E+00 -0.15935357056E+04  0.15935357056E+04  0.00000000000E+00 0. -1.
         23    2    1    2    0    0 -0.67463393701E+03 -0.52030378209E+03 -0.39888051413E+03  0.94516548891E+03  0.91570531593E+02 0.  0.
         13    1    3    3    0    0 -0.43456510737E+03 -0.29109175173E+03 -0.21314171583E+03  0.56481026150E+03  0.00000000000E+00 0.  1.
        -13    1    3    3    0    0 -0.24006882964E+03 -0.22921203037E+03 -0.18573879829E+03  0.38035522741E+03  0.00000000000E+00 0. -1.
         22    1    1    2    0    0  0.67463393701E+03  0.52030378209E+03 -0.72459545831E+03  0.11184299499E+04  0.00000000000E+00 0. -1.
<mgrwt>
<rscale>  0 0.17309615E+04</rscale>
<asrwt>0</asrwt>
<pdfrwt beam="1">  1        2 0.24515934E+00 0.17309615E+04</pdfrwt>
<pdfrwt beam="2">  1       -2 0.72316882E-01 0.17309615E+04</pdfrwt>
<totfact> 0.18473213E+01</totfact>
</mgrwt>
</event>
<event>
 6    1  0.1831439E-005  0.4219801E+04  0.7818608E-02  0.7961616E-01
          2   -1    0    0  501    0  0.00000000000E+00  0.00000000000E+00  0.31602228645E+04  0.31602228645E+04  0.00000000000E+00 0. -1.
         -2   -1    0    0    0  501 -0.00000000000E+00 -0.00000000000E+00 -0.14086602907E+04  0.14086602907E+04  0.00000000000E+00 0.  1.
         23    2    1    2    0    0 -0.24226708335E+03 -0.45991362435E+03  0.30891041633E+04  0.31338809305E+04  0.91821966089E+02 0.  0.
         11    1    3    3    0    0 -0.39802403218E+02 -0.16598796117E+03  0.10464802250E+04  0.10603099056E+04  0.00000000000E+00 0.  1.
        -11    1    3    3    0    0 -0.20246468014E+03 -0.29392566318E+03  0.20426239383E+04  0.20735710249E+04  0.00000000000E+00 0. -1.
         22    1    1    2    0    0  0.24226708335E+03  0.45991362435E+03 -0.13375415894E+04  0.14350022247E+04  0.00000000000E+00 0.  1.
<mgrwt>
<rscale>  0 0.42198012E+04</rscale>
<asrwt>0</asrwt>
<pdfrwt beam="1">  1        2 0.48618813E+00 0.42198012E+04</pdfrwt>
<pdfrwt beam="2">  1       -2 0.21671697E+00 0.42198012E+04</pdfrwt>
<totfact> 0.11051948E-01</totfact>
</mgrwt>
</event>
<event>
 6    1  0.1831439E-005  0.6311398E+04  0.7818608E-02  0.7652947E-01
          2   -1    0    0  501    0  0.00000000000E+00  0.00000000000E+00  0.32834012143E+04  0.32834012143E+04  0.00000000000E+00 0.  1.
         -2   -1    0    0    0  501 -0.00000000000E+00 -0.00000000000E+00 -0.30329639367E+04  0.30329639367E+04  0.00000000000E+00 0. -1.
         23    2    1    2    0    0 -0.20100209182E+04 -0.21484412541E+04 -0.10150627313E+04  0.31136359732E+04  0.91611740858E+02 0.  0.
         11    1    3    3    0    0 -0.49735201480E+03 -0.59001726513E+03 -0.27193544618E+03  0.81818597315E+03  0.00000000000E+00 0. -1.
        -11    1    3    3    0    0 -0.15126689034E+04 -0.15584239889E+04 -0.74312728515E+03  0.22954500000E+04  0.00000000000E+00 0.  1.
         22    1    1    2    0    0  0.20100209182E+04  0.21484412541E+04  0.12655000090E+04  0.32027291778E+04  0.00000000000E+00 0.  1.
<mgrwt>
<rscale>  0 0.63113984E+04</rscale>
<asrwt>0</asrwt>
<pdfrwt beam="1">  1        2 0.50513864E+00 0.63113984E+04</pdfrwt>
<pdfrwt beam="2">  1       -2 0.46660984E+00 0.63113984E+04</pdfrwt>
<totfact> 0.20385803E-03</totfact>
</mgrwt>
</event>
<event>
 6    1  0.1831439E-005  0.1555637E+04  0.7818608E-02  0.8848275E-01
         -2   -1    0    0    0  501 -0.00000000000E+00  0.00000000000E+00  0.99034508614E+03  0.99034508614E+03  0.00000000000E+00 0. -1.
          2   -1    0    0  501    0  0.00000000000E+00 -0.00000000000E+00 -0.61089970568E+03  0.61089970568E+03  0.00000000000E+00 0.  1.
         23    2    1    2    0    0 -0.31199895381E+03 -0.69139647909E+03  0.26663637660E+02  0.76468792195E+03  0.93081845288E+02 0.  0.
         11    1    3    3    0    0 -0.15243948291E+03 -0.43481104078E+03  0.38011036029E+02  0.46232377831E+03  0.00000000000E+00 0.  1.
        -11    1    3    3    0    0 -0.15955947089E+03 -0.25658543832E+03 -0.11347398369E+02  0.30236414364E+03  0.00000000000E+00 0. -1.
         22    1    1    2    0    0  0.31199895381E+03  0.69139647909E+03  0.35278174280E+03  0.83655686987E+03  0.00000000000E+00 0. -1.
<mgrwt>
<rscale>  0 0.15556369E+04</rscale>
<asrwt>0</asrwt>
<pdfrwt beam="1">  1        2 0.93984570E-01 0.15556369E+04</pdfrwt>
<pdfrwt beam="2">  1       -2 0.15236078E+00 0.15556369E+04</pdfrwt>
<totfact> 0.13409280E+01</totfact>
</mgrwt>
</event>
<event>
 6    1  0.1831439E-005  0.2077883E+04  0.7818608E-02  0.8571049E-01
         -2   -1    0    0    0  501 -0.00000000000E+00  0.00000000000E+00  0.41022498040E+04  0.41022498040E+04  0.00000000000E+00 0. -1.
          2   -1    0    0  501    0  0.00000000000E+00 -0.00000000000E+00 -0.26312368781E+03  0.26312368781E+03  0.00000000000E+00 0.  1.
         23    2    1    2    0    0 -0.74042175794E+03 -0.49305752102E+03  0.30426430708E+04  0.31713402677E+04  0.91608616274E+02 0.  0.
         11    1    3    3    0    0 -0.19243035825E+03 -0.16809819442E+03  0.96078078457E+03  0.99417612209E+03  0.00000000000E+00 0. -1.
        -11    1    3    3    0    0 -0.54799139969E+03 -0.32495932660E+03  0.20818622863E+04  0.21771641456E+04  0.00000000000E+00 0.  1.
         22    1    1    2    0    0  0.74042175794E+03  0.49305752102E+03  0.79648304534E+03  0.11940332241E+04  0.00000000000E+00 0.  1.
<mgrwt>
<rscale>  0 0.20778827E+04</rscale>
<asrwt>0</asrwt>
<pdfrwt beam="1">  1        2 0.40480570E-01 0.20778827E+04</pdfrwt>
<pdfrwt beam="2">  1       -2 0.63111531E+00 0.20778827E+04</pdfrwt>
<totfact> 0.44797371E-02</totfact>
</mgrwt>
</event>
<event>
 6    1  0.1831439E-005  0.3492724E+04  0.7818608E-02  0.8115516E-01
         -2   -1    0    0    0  501 -0.00000000000E+00  0.00000000000E+00  0.11770222153E+04  0.11770222153E+04  0.00000000000E+00 0.  1.
          2   -1    0    0  501    0  0.00000000000E+00 -0.00000000000E+00 -0.25910979659E+04  0.25910979659E+04  0.00000000000E+00 0. -1.
         23    2    1    2    0    0 -0.12896549355E+04 -0.29313723733E+02 -0.19755946349E+04  0.23612184063E+04  0.91154010043E+02 0.  0.
         13    1    3    3    0    0 -0.82287960133E+03 -0.61933128392E+02 -0.12477654687E+04  0.14959562880E+04  0.00000000000E+00 0. -1.
        -13    1    3    3    0    0 -0.46677533418E+03  0.32619404659E+02 -0.72782916617E+03  0.86526211825E+03  0.00000000000E+00 0.  1.
         22    1    1    2    0    0  0.12896549355E+04  0.29313723733E+02  0.56151888425E+03  0.14069017750E+04  0.00000000000E+00 0.  1.
<mgrwt>
<rscale>  0 0.34927238E+04</rscale>
<asrwt>0</asrwt>
<pdfrwt beam="1">  1        2 0.39863045E+00 0.34927238E+04</pdfrwt>
<pdfrwt beam="2">  1       -2 0.18108034E+00 0.34927238E+04</pdfrwt>
<totfact> 0.45129609E-01</totfact>
</mgrwt>
</event>
<event>
 6    1  0.1831439E-005  0.1771164E+04  0.7818608E-02  0.8721786E-01
          2   -1    0    0  501    0  0.00000000000E+00  0.00000000000E+00  0.31031670850E+04  0.31031670850E+04  0.00000000000E+00 0. -1.
         -2   -1    0    0    0  501 -0.00000000000E+00 -0.00000000000E+00 -0.25272735125E+03  0.25272735125E+03  0.00000000000E+00 0.  1.
         23    2    1    2    0    0  0.53388898603E+03  0.60964055512E+02  0.27571336748E+04  0.28104954207E+04  0.91347378416E+02 0.  0.
         11    1    3    3    0    0  0.35999853010E+03  0.12857844775E+02  0.16610942858E+04  0.16997054134E+04  0.00000000000E+00 0.  1.
        -11    1    3    3    0    0  0.17389045592E+03  0.48106210737E+02  0.10960393890E+04  0.11107900073E+04  0.00000000000E+00 0. -1.
         22    1    1    2    0    0 -0.53388898603E+03 -0.60964055512E+02  0.93306058865E+02  0.54539901548E+03  0.00000000000E+00 0.  1.
<mgrwt>
<rscale>  0 0.17711637E+04</rscale>
<asrwt>0</asrwt>
<pdfrwt beam="1">  1        2 0.47741029E+00 0.17711637E+04</pdfrwt>
<pdfrwt beam="2">  1       -2 0.38881133E-01 0.17711637E+04</pdfrwt>
<totfact> 0.89043384E+00</totfact>
</mgrwt>
</event>
<event>
 6    1  0.1831439E-005  0.2377541E+04  0.7818608E-02  0.8447960E-01
          2   -1    0    0  501    0  0.00000000000E+00  0.00000000000E+00  0.20730175487E+04  0.20730175487E+04  0.00000000000E+00 0. -1.
         -2   -1    0    0    0  501 -0.00000000000E+00 -0.00000000000E+00 -0.68169976105E+03  0.68169976105E+03  0.00000000000E+00 0.  1.
         23    2    1    2    0    0  0.70028507390E+03 -0.90789009310E+03  0.10511588556E+04  0.15587358279E+04  0.10029374650E+03 0.  0.
         13    1    3    3    0    0  0.42743190418E+03 -0.47416695954E+03  0.59651417933E+03  0.87370561654E+03  0.00000000000E+00 0.  1.
        -13    1    3    3    0    0  0.27285316972E+03 -0.43372313356E+03  0.45464467625E+03  0.68503021134E+03  0.00000000000E+00 0. -1.
         22    1    1    2    0    0 -0.70028507390E+03  0.90789009310E+03  0.34015893207E+03  0.11959814819E+04  0.00000000000E+00 0.  1.
<mgrwt>
<rscale>  0 0.23775412E+04</rscale>
<asrwt>0</asrwt>
<pdfrwt beam="1">  1        2 0.31892577E+00 0.23775412E+04</pdfrwt>
<pdfrwt beam="2">  1       -2 0.10487689E+00 0.23775412E+04</pdfrwt>
<totfact> 0.40396761E+00</totfact>
</mgrwt>
</event>
<event>
 6    1  0.1831439E-005  0.1213221E+04  0.7818608E-02  0.9101362E-01
          2   -1    0    0  501    0  0.00000000000E+00  0.00000000000E+00  0.36540021860E+03  0.36540021860E+03  0.00000000000E+00 0.  1.
         -2   -1    0    0    0  501 -0.00000000000E+00 -0.00000000000E+00 -0.10070507200E+04  0.10070507200E+04  0.00000000000E+00 0. -1.
         23    2    1    2    0    0  0.43227668921E+03  0.59286292138E+02 -0.79371848188E+03  0.91038744601E+03  0.91860072342E+02 0.  0.
         11    1    3    3    0    0  0.21525040661E+03  0.33164725203E+02 -0.30267341841E+03  0.37288582000E+03  0.00000000000E+00 0. -1.
        -11    1    3    3    0    0  0.21702628260E+03  0.26121566934E+02 -0.49104506348E+03  0.53750162601E+03  0.00000000000E+00 0.  1.
         22    1    1    2    0    0 -0.43227668921E+03 -0.59286292138E+02  0.15206798050E+03  0.46206349257E+03  0.00000000000E+00 0.  1.
<mgrwt>
<rscale>  0 0.12132214E+04</rscale>
<asrwt>0</asrwt>
<pdfrwt beam="1">  1        2 0.56215419E-01 0.12132214E+04</pdfrwt>
<pdfrwt beam="2">  1       -2 0.15493088E+00 0.12132214E+04</pdfrwt>
<totfact> 0.23832156E+01</totfact>
</mgrwt>
</event>
<event>
 6    1  0.1831439E-005  0.3021644E+04  0.7818608E-02  0.8237577E-01
         -1   -1    0    0    0  501 -0.00000000000E+00  0.00000000000E+00  0.12238836084E+04  0.12238836084E+04  0.00000000000E+00 0.  1.
          1   -1    0    0  501    0  0.00000000000E+00 -0.00000000000E+00 -0.18650330964E+04  0.18650330964E+04  0.00000000000E+00 0. -1.
         23    2    1    2    0    0  0.12606628765E+03 -0.13473367371E+04 -0.10045670764E+04  0.16877452893E+04  0.90111921241E+02 0.  0.
         11    1    3    3    0    0  0.81180699200E+02 -0.11489788377E+04 -0.83010695034E+03  0.14197958390E+04  0.00000000000E+00 0. -1.
        -11    1    3    3    0    0  0.44885588451E+02 -0.19835789939E+03 -0.17446012609E+03  0.26794945026E+03  0.00000000000E+00 0.  1.
         22    1    1    2    0    0 -0.12606628765E+03  0.13473367371E+04  0.36341758842E+03  0.14011714155E+04  0.00000000000E+00 0.  1.
<mgrwt>
<rscale>  0 0.30216442E+04</rscale>
<asrwt>0</asrwt>
<pdfrwt beam="1">  1        1 0.28692817E+00 0.30216442E+04</pdfrwt>
<pdfrwt beam="2">  1       -1 0.18828979E+00 0.30216442E+04</pdfrwt>
<totfact> 0.56790702E-01</totfact>
</mgrwt>
</event>
<event>
 6    1  0.1831439E-005  0.2588856E+04  0.7818608E-02  0.8371997E-01
          2   -1    0    0  501    0  0.00000000000E+00  0.00000000000E+00  0.15686115751E+04  0.15686115751E+04  0.00000000000E+00 0. -1.
         -2   -1    0    0    0  501 -0.00000000000E+00 -0.00000000000E+00 -0.10681696966E+04  0.10681696966E+04  0.00000000000E+00 0.  1.
         23    2    1    2    0    0 -0.50710955443E+03  0.88535587330E+03 -0.55774291298E+03  0.11668254303E+04  0.96898427525E+02 0.  0.
         11    1    3    3    0    0 -0.31414336108E+03  0.54008367072E+03 -0.28742522237E+03  0.68774245262E+03  0.00000000000E+00 0.  1.
        -11    1    3    3    0    0 -0.19296619335E+03  0.34527220258E+03 -0.27031769061E+03  0.47908297768E+03  0.00000000000E+00 0. -1.
         22    1    1    2    0    0  0.50710955443E+03 -0.88535587330E+03  0.10581847915E+04  0.14699558413E+04  0.00000000000E+00 0. -1.
<mgrwt>
<rscale>  0 0.25888556E+04</rscale>
<asrwt>0</asrwt>
<pdfrwt beam="1">  1        2 0.24132486E+00 0.25888556E+04</pdfrwt>
<pdfrwt beam="2">  1       -2 0.16433380E+00 0.25888556E+04</pdfrwt>
<totfact> 0.24075220E+00</totfact>
</mgrwt>
</event>
<event>
 6    1  0.1831439E-005  0.2029021E+04  0.7818608E-02  0.8593171E-01
          1   -1    0    0  501    0  0.00000000000E+00  0.00000000000E+00  0.11517910833E+04  0.11517910833E+04  0.00000000000E+00 0. -1.
         -1   -1    0    0    0  501 -0.00000000000E+00 -0.00000000000E+00 -0.89359229027E+03  0.89359229027E+03  0.00000000000E+00 0.  1.
         23    2    1    2    0    0  0.10647566263E+03  0.69044584761E+03  0.86802728441E+03  0.11180520822E+04  0.92285192350E+02 0.  0.
         11    1    3    3    0    0  0.95202306322E+02  0.31796833389E+03  0.41896169400E+03  0.53450560476E+03  0.00000000000E+00 0. -1.
        -11    1    3    3    0    0  0.11273356311E+02  0.37247751373E+03  0.44906559041E+03  0.58354647740E+03  0.00000000000E+00 0.  1.
         22    1    1    2    0    0 -0.10647566263E+03 -0.69044584761E+03 -0.60982849135E+03  0.92733129144E+03  0.00000000000E+00 0.  1.
<mgrwt>
<rscale>  0 0.20290211E+04</rscale>
<asrwt>0</asrwt>
<pdfrwt beam="1">  1        1 0.17719863E+00 0.20290211E+04</pdfrwt>
<pdfrwt beam="2">  1       -1 0.13747574E+00 0.20290211E+04</pdfrwt>
<totfact> 0.47170876E+00</totfact>
</mgrwt>
</event>
<event>
 6    1  0.1831439E-005  0.2677494E+04  0.7818608E-02  0.8342345E-01
          1   -1    0    0  501    0  0.00000000000E+00  0.00000000000E+00  0.16570140236E+04  0.16570140236E+04  0.00000000000E+00 0. -1.
         -1   -1    0    0    0  501 -0.00000000000E+00 -0.00000000000E+00 -0.10816101302E+04  0.10816101302E+04  0.00000000000E+00 0.  1.
         23    2    1    2    0    0 -0.36342209019E+03  0.67515040607E+03 -0.83246884022E+03  0.11354992927E+04  0.91927076391E+02 0.  0.
         11    1    3    3    0    0 -0.72843227558E+02  0.22346400160E+03 -0.26272160609E+03  0.35251232336E+03  0.00000000000E+00 0.  1.
        -11    1    3    3    0    0 -0.29057886263E+03  0.45168640446E+03 -0.56974723412E+03  0.78298696935E+03  0.00000000000E+00 0. -1.
         22    1    1    2    0    0  0.36342209019E+03 -0.67515040607E+03  0.14078727336E+04  0.16031248611E+04  0.00000000000E+00 0. -1.
<mgrwt>
<rscale>  0 0.26774937E+04</rscale>
<asrwt>0</asrwt>
<pdfrwt beam="1">  1        1 0.25492523E+00 0.26774937E+04</pdfrwt>
<pdfrwt beam="2">  1       -1 0.16640156E+00 0.26774937E+04</pdfrwt>
<totfact> 0.11672117E+00</totfact>
</mgrwt>
</event>
<event>
 6    1  0.1831439E-005  0.4008644E+04  0.7818608E-02  0.8002805E-01
         -1   -1    0    0    0  501 -0.00000000000E+00  0.00000000000E+00  0.13341319737E+04  0.13341319737E+04  0.00000000000E+00 0.  1.
          1   -1    0    0  501    0  0.00000000000E+00 -0.00000000000E+00 -0.30111760036E+04  0.30111760036E+04  0.00000000000E+00 0. -1.
         23    2    1    2    0    0 -0.14878169553E+04 -0.11481833688E+04 -0.15905790460E+04  0.24639785180E+04  0.96561353188E+02 0.  0.
         11    1    3    3    0    0 -0.63607618799E+03 -0.55108869824E+03 -0.71884540526E+03  0.11068109084E+04  0.00000000000E+00 0. -1.
        -11    1    3    3    0    0 -0.85174076727E+03 -0.59709467060E+03 -0.87173364071E+03  0.13571676096E+04  0.00000000000E+00 0.  1.
         22    1    1    2    0    0  0.14878169553E+04  0.11481833688E+04 -0.86464983996E+02  0.18813294593E+04  0.00000000000E+00 0.  1.
<mgrwt>
<rscale>  0 0.40086438E+04</rscale>
<asrwt>0</asrwt>
<pdfrwt beam="1">  1        1 0.46325784E+00 0.40086438E+04</pdfrwt>
<pdfrwt beam="2">  1       -1 0.20525107E+00 0.40086438E+04</pdfrwt>
<totfact> 0.63509308E-02</totfact>
</mgrwt>
</event>
<event>
 6    1  0.1831439E-005  0.2732185E+04  0.7818608E-02  0.8324637E-01
         -1   -1    0    0    0  501 -0.00000000000E+00  0.00000000000E+00  0.17795169060E+04  0.17795169060E+04  0.00000000000E+00 0.  1.
          1   -1    0    0  501    0  0.00000000000E+00 -0.00000000000E+00 -0.10487164998E+04  0.10487164998E+04  0.00000000000E+00 0. -1.
         23    2    1    2    0    0  0.12115243294E+04 -0.59534421732E+03  0.15915325548E+03  0.13622844289E+04  0.90901972275E+02 0.  0.
         13    1    3    3    0    0  0.35272396735E+03 -0.19347625433E+03  0.98239543924E+01  0.40242237539E+03  0.00000000000E+00 0. -1.
        -13    1    3    3    0    0  0.85880036207E+03 -0.40186796299E+03  0.14932930109E+03  0.95986205349E+03  0.00000000000E+00 0.  1.
         22    1    1    2    0    0 -0.12115243294E+04  0.59534421732E+03  0.57164715074E+03  0.14659489769E+04  0.00000000000E+00 0. -1.
<mgrwt>
<rscale>  0 0.27321850E+04</rscale>
<asrwt>0</asrwt>
<pdfrwt beam="1">  1        1 0.16134100E+00 0.27321850E+04</pdfrwt>
<pdfrwt beam="2">  1       -1 0.27377183E+00 0.27321850E+04</pdfrwt>
<totfact> 0.58984691E-01</totfact>
</mgrwt>
</event>
<event>
 6    1  0.1831439E-005  0.1994861E+04  0.7818608E-02  0.8609027E-01
         -2   -1    0    0    0  501 -0.00000000000E+00  0.00000000000E+00  0.10447744742E+04  0.10447744742E+04  0.00000000000E+00 0.  1.
          2   -1    0    0  501    0  0.00000000000E+00 -0.00000000000E+00 -0.95223173099E+03  0.95223173099E+03  0.00000000000E+00 0. -1.
         23    2    1    2    0    0 -0.93136306533E+03  0.38447656525E+00 -0.30547539976E+03  0.98416083231E+03  0.88430858293E+02 0.  0.
         13    1    3    3    0    0 -0.52612672274E+03  0.10696292109E+02 -0.21717326821E+03  0.56928724513E+03  0.00000000000E+00 0.  1.
        -13    1    3    3    0    0 -0.40523634260E+03 -0.10311815544E+02 -0.88302131551E+02  0.41487358718E+03  0.00000000000E+00 0. -1.
         22    1    1    2    0    0  0.93136306533E+03 -0.38447656525E+00  0.39801814301E+03  0.10128453729E+04  0.00000000000E+00 0.  1.
<mgrwt>
<rscale>  0 0.19948608E+04</rscale>
<asrwt>0</asrwt>
<pdfrwt beam="1">  1        2 0.14649719E+00 0.19948608E+04</pdfrwt>
<pdfrwt beam="2">  1       -2 0.16073453E+00 0.19948608E+04</pdfrwt>
<totfact> 0.62548245E+00</totfact>
</mgrwt>
</event>
<event>
 6    1  0.1831439E-005  0.1888406E+04  0.7818608E-02  0.8660649E-01
          1   -1    0    0  501    0  0.00000000000E+00  0.00000000000E+00  0.20320918723E+04  0.20320918723E+04  0.00000000000E+00 0. -1.
         -1   -1    0    0    0  501 -0.00000000000E+00 -0.00000000000E+00 -0.43872020727E+03  0.43872020727E+03  0.00000000000E+00 0.  1.
         23    2    1    2    0    0  0.75260361113E+02 -0.33269692375E+03 -0.35024543496E+03  0.49749031250E+03  0.92050971175E+02 0.  0.
         11    1    3    3    0    0  0.60480215447E+02 -0.19655695661E+03 -0.26778053958E+03  0.33763724769E+03  0.00000000000E+00 0. -1.
        -11    1    3    3    0    0  0.14780145666E+02 -0.13613996713E+03 -0.82464895379E+02  0.15985306480E+03  0.00000000000E+00 0.  1.
         22    1    1    2    0    0 -0.75260361113E+02  0.33269692375E+03  0.19436171000E+04  0.19733217671E+04  0.00000000000E+00 0. -1.
<mgrwt>
<rscale>  0 0.18884065E+04</rscale>
<asrwt>0</asrwt>
<pdfrwt beam="1">  1        1 0.31262951E+00 0.18884065E+04</pdfrwt>
<pdfrwt beam="2">  1       -1 0.67495418E-01 0.18884065E+04</pdfrwt>
<totfact> 0.59009703E+00</totfact>
</mgrwt>
</event>
<event>
 6    1  0.1831439E-005  0.1569187E+04  0.7818608E-02  0.8839704E-01
         -1   -1    0    0    0  501 -0.00000000000E+00  0.00000000000E+00  0.55448133371E+03  0.55448133371E+03  0.00000000000E+00 0.  1.
          1   -1    0    0  501    0  0.00000000000E+00 -0.00000000000E+00 -0.11102030742E+04  0.11102030742E+04  0.00000000000E+00 0. -1.
         23    2    1    2    0    0 -0.38392604028E+03  0.66917354483E+03 -0.41441786292E+03  0.88036354031E+03  0.90029775646E+02 0.  0.
         13    1    3    3    0    0 -0.55821386216E+02  0.66584549183E+02 -0.75454097626E+02  0.11507758338E+03  0.00000000000E+00 0.  1.
        -13    1    3    3    0    0 -0.32810465407E+03  0.60258899564E+03 -0.33896376530E+03  0.76528595693E+03  0.00000000000E+00 0. -1.
         22    1    1    2    0    0  0.38392604028E+03 -0.66917354483E+03 -0.14130387756E+03  0.78432086757E+03  0.00000000000E+00 0.  1.
<mgrwt>
<rscale>  0 0.15691869E+04</rscale>
<asrwt>0</asrwt>
<pdfrwt beam="1">  1        1 0.17080047E+00 0.15691869E+04</pdfrwt>
<pdfrwt beam="2">  1       -1 0.85304821E-01 0.15691869E+04</pdfrwt>
<totfact> 0.16280557E+01</totfact>
</mgrwt>
</event>
<event>
 6    1  0.1831439E-005  0.2719830E+04  0.7818608E-02  0.8328599E-01
          2   -1    0    0  501    0  0.00000000000E+00  0.00000000000E+00  0.23333274932E+04  0.23333274932E+04  0.00000000000E+00 0. -1.
         -2   -1    0    0    0  501 -0.00000000000E+00 -0.00000000000E+00 -0.79258847490E+03  0.79258847490E+03  0.00000000000E+00 0.  1.
         23    2    1    2    0    0  0.67933436394E+03 -0.29759409646E+03 -0.53676154135E+03  0.91999983197E+03  0.90715567912E+02 0.  0.
         11    1    3    3    0    0  0.21274648906E+03 -0.66886551024E+02 -0.20377946704E+03  0.30209427420E+03  0.00000000000E+00 0. -1.
        -11    1    3    3    0    0  0.46658787488E+03 -0.23070754544E+03 -0.33298207431E+03  0.61790555777E+03  0.00000000000E+00 0.  1.
         22    1    1    2    0    0 -0.67933436394E+03  0.29759409646E+03  0.20775005597E+04  0.22059161361E+04  0.00000000000E+00 0. -1.
<mgrwt>
<rscale>  0 0.27198298E+04</rscale>
<asrwt>0</asrwt>
<pdfrwt beam="1">  1        2 0.35897346E+00 0.27198298E+04</pdfrwt>
<pdfrwt beam="2">  1       -2 0.12193669E+00 0.27198298E+04</pdfrwt>
<totfact> 0.19392528E+00</totfact>
</mgrwt>
</event>
<event>
 6    1  0.1831439E-005  0.2186638E+04  0.7818608E-02  0.8524010E-01
         -1   -1    0    0    0  501 -0.00000000000E+00  0.00000000000E+00  0.91066764199E+03  0.91066764199E+03  0.00000000000E+00 0.  1.
          1   -1    0    0  501    0  0.00000000000E+00 -0.00000000000E+00 -0.13126041765E+04  0.13126041765E+04  0.00000000000E+00 0. -1.
         23    2    1    2    0    0 -0.77110985582E+03 -0.76117272837E+03 -0.65162704546E+02  0.10886304899E+04  0.82920644209E+02 0.  0.
         13    1    3    3    0    0 -0.45608303500E+03 -0.45944256208E+03  0.13125695762E+01  0.64738004720E+03  0.00000000000E+00 0. -1.
        -13    1    3    3    0    0 -0.31502682081E+03 -0.30173016629E+03 -0.66475274122E+02  0.44125044266E+03  0.00000000000E+00 0.  1.
         22    1    1    2    0    0  0.77110985582E+03  0.76117272837E+03 -0.33677383000E+03  0.11346413287E+04  0.00000000000E+00 0. -1.
<mgrwt>
<rscale>  0 0.21866377E+04</rscale>
<asrwt>0</asrwt>
<pdfrwt beam="1">  1        1 0.20193910E+00 0.21866377E+04</pdfrwt>
<pdfrwt beam="2">  1       -1 0.14010271E+00 0.21866377E+04</pdfrwt>
<totfact> 0.33835581E+00</totfact>
</mgrwt>
</event>
<event>
 6    1  0.1831439E-005  0.1314244E+04  0.7818608E-02  0.9018346E-01
         -1   -1    0    0    0  501 -0.00000000000E+00  0.00000000000E+00  0.11529443457E+04  0.11529443457E+04  0.00000000000E+00 0.  1.
          1   -1    0    0  501    0  0.00000000000E+00 -0.00000000000E+00 -0.37452723514E+03  0.37452723514E+03  0.00000000000E+00 0. -1.
         23    2    1    2    0    0 -0.24691974892E+03  0.39381414056E+03 -0.14485731678E+03  0.49379145242E+03  0.82385778780E+02 0.  0.
         13    1    3    3    0    0 -0.82705443225E+02  0.15435946349E+03 -0.94870922068E+02  0.19916708102E+03  0.00000000000E+00 0.  1.
        -13    1    3    3    0    0 -0.16421430570E+03  0.23945467706E+03 -0.49986394711E+02  0.29462437139E+03  0.00000000000E+00 0. -1.
         22    1    1    2    0    0  0.24691974892E+03 -0.39381414056E+03  0.92327442731E+03  0.10336801284E+04  0.00000000000E+00 0.  1.
<mgrwt>
<rscale>  0 0.13142436E+04</rscale>
<asrwt>0</asrwt>
<pdfrwt beam="1">  1        1 0.57619575E-01 0.13142436E+04</pdfrwt>
<pdfrwt beam="2">  1       -1 0.17737605E+00 0.13142436E+04</pdfrwt>
<totfact> 0.13970241E+01</totfact>
</mgrwt>
</event>
<event>
 6    1  0.1831439E-005  0.2248562E+04  0.7818608E-02  0.8498483E-01
          1   -1    0    0  501    0  0.00000000000E+00  0.00000000000E+00  0.12098701970E+04  0.12098701970E+04  0.00000000000E+00 0. -1.
         -1   -1    0    0    0  501 -0.00000000000E+00 -0.00000000000E+00 -0.10447464459E+04  0.10447464459E+04  0.00000000000E+00 0.  1.
         23    2    1    2    0    0  0.82868229074E+03 -0.20966426629E+03  0.81215782836E+03  0.11825501614E+04  0.90283456803E+02 0.  0.
         13    1    3    3    0    0  0.54743175535E+03 -0.17239673101E+03  0.57991575543E+03  0.81590712892E+03  0.00000000000E+00 0. -1.
        -13    1    3    3    0    0  0.28125053539E+03 -0.37267535276E+02  0.23224207292E+03  0.36664303250E+03  0.00000000000E+00 0.  1.
         22    1    1    2    0    0 -0.82868229074E+03  0.20966426629E+03 -0.64703407723E+03  0.10720664814E+04  0.00000000000E+00 0.  1.
<mgrwt>
<rscale>  0 0.22485618E+04</rscale>
<asrwt>0</asrwt>
<pdfrwt beam="1">  1        1 0.18613388E+00 0.22485618E+04</pdfrwt>
<pdfrwt beam="2">  1       -1 0.16073022E+00 0.22485618E+04</pdfrwt>
<totfact> 0.27533442E+00</totfact>
</mgrwt>
</event>
<event>
 6    1  0.1831439E-005  0.4271927E+03  0.7818608E-02  0.1034750E+00
         -2   -1    0    0    0  501 -0.00000000000E+00  0.00000000000E+00  0.11708739586E+03  0.11708739586E+03  0.00000000000E+00 0.  1.
          2   -1    0    0  501    0  0.00000000000E+00 -0.00000000000E+00 -0.38965247192E+03  0.38965247192E+03  0.00000000000E+00 0. -1.
         23    2    1    2    0    0 -0.84491371844E+02 -0.15637758877E+03 -0.25125098092E+02  0.20207729232E+03  0.92796655814E+02 0.  0.
         11    1    3    3    0    0 -0.42038683445E+02 -0.51319180095E+02  0.33697738911E+02  0.74407303131E+02  0.00000000000E+00 0. -1.
        -11    1    3    3    0    0 -0.42452688399E+02 -0.10505840868E+03 -0.58822837003E+02  0.12766998919E+03  0.00000000000E+00 0.  1.
         22    1    1    2    0    0  0.84491371844E+02  0.15637758877E+03 -0.24743997797E+03  0.30466257546E+03  0.00000000000E+00 0. -1.
<mgrwt>
<rscale>  0 0.42719266E+03</rscale>
<asrwt>0</asrwt>
<pdfrwt beam="1">  1        2 0.59946536E-01 0.42719266E+03</pdfrwt>
<pdfrwt beam="2">  1       -2 0.18013445E-01 0.42719266E+03</pdfrwt>
<totfact> 0.20801325E+03</totfact>
</mgrwt>
</event>
<event>
 6    1  0.1831439E-005  0.2547544E+04  0.7818608E-02  0.8386241E-01
         -2   -1    0    0    0  501 -0.00000000000E+00  0.00000000000E+00  0.90272275137E+03  0.90272275137E+03  0.00000000000E+00 0.  1.
          2   -1    0    0  501    0  0.00000000000E+00 -0.00000000000E+00 -0.17973343648E+04  0.17973343648E+04  0.00000000000E+00 0. -1.
         23    2    1    2    0    0 -0.46448192047E+03 -0.42347435784E+03  0.72435941931E+03  0.96335299887E+03  0.90985965455E+02 0.  0.
         13    1    3    3    0    0 -0.26329758645E+03 -0.20586302332E+03  0.44085579565E+03  0.55322602611E+03  0.00000000000E+00 0. -1.
        -13    1    3    3    0    0 -0.20118433402E+03 -0.21761133452E+03  0.28350362365E+03  0.41012697277E+03  0.00000000000E+00 0.  1.
         22    1    1    2    0    0  0.46448192047E+03  0.42347435784E+03 -0.16189710328E+04  0.17367041173E+04  0.00000000000E+00 0. -1.
<mgrwt>
<rscale>  0 0.25475436E+04</rscale>
<asrwt>0</asrwt>
<pdfrwt beam="1">  1        2 0.27651298E+00 0.25475436E+04</pdfrwt>
<pdfrwt beam="2">  1       -2 0.13888042E+00 0.25475436E+04</pdfrwt>
<totfact> 0.28212368E+00</totfact>
</mgrwt>
</event>
<event>
 6    1  0.1831439E-005  0.2048273E+04  0.7818608E-02  0.8584378E-01
         -1   -1    0    0    0  501 -0.00000000000E+00  0.00000000000E+00  0.34468970119E+03  0.34468970119E+03  0.00000000000E+00 0.  1.
          1   -1    0    0  501    0  0.00000000000E+00 -0.00000000000E+00 -0.30428968885E+04  0.30428968885E+04  0.00000000000E+00 0. -1.
         23    2    1    2    0    0  0.58657732595E+03  0.19020543191E+03 -0.32107356321E+01  0.62294250045E+03  0.88294871887E+02 0.  0.
         11    1    3    3    0    0  0.52557978577E+03  0.19530625377E+03 -0.13583968586E+02  0.56085931228E+03  0.00000000000E+00 0.  1.
        -11    1    3    3    0    0  0.60997540176E+02 -0.51008218583E+01  0.10373232954E+02  0.62083188167E+02  0.00000000000E+00 0. -1.
         22    1    1    2    0    0 -0.58657732595E+03 -0.19020543191E+03 -0.26949964517E+04  0.27646440893E+04  0.00000000000E+00 0. -1.
<mgrwt>
<rscale>  0 0.20482727E+04</rscale>
<asrwt>0</asrwt>
<pdfrwt beam="1">  1        1 0.46813797E+00 0.20482727E+04</pdfrwt>
<pdfrwt beam="2">  1       -1 0.53029187E-01 0.20482727E+04</pdfrwt>
<totfact> 0.18451486E+00</totfact>
</mgrwt>
</event>
<event>
 6    1  0.1831439E-005  0.1981951E+04  0.7818608E-02  0.8615106E-01
          1   -1    0    0  501    0  0.00000000000E+00  0.00000000000E+00  0.12412708558E+04  0.12412708558E+04  0.00000000000E+00 0. -1.
         -1   -1    0    0    0  501 -0.00000000000E+00 -0.00000000000E+00 -0.79115100915E+03  0.79115100915E+03  0.00000000000E+00 0.  1.
         23    2    1    2    0    0  0.79374212580E+03 -0.39005932026E+03  0.67899239845E+03  0.11188817834E+04  0.93235896800E+02 0.  0.
         11    1    3    3    0    0  0.58882784497E+03 -0.28583354248E+03  0.44933669912E+03  0.79392853217E+03  0.00000000000E+00 0.  1.
        -11    1    3    3    0    0  0.20491428083E+03 -0.10422577779E+03  0.22965569933E+03  0.32495325122E+03  0.00000000000E+00 0. -1.
         22    1    1    2    0    0 -0.79374212580E+03  0.39005932026E+03 -0.22887255183E+03  0.91354008154E+03  0.00000000000E+00 0.  1.
<mgrwt>
<rscale>  0 0.19819513E+04</rscale>
<asrwt>0</asrwt>
<pdfrwt beam="1">  1        1 0.19096475E+00 0.19819513E+04</pdfrwt>
<pdfrwt beam="2">  1       -1 0.12171554E+00 0.19819513E+04</pdfrwt>
<totfact> 0.55386661E+00</totfact>
</mgrwt>
</event>
<event>
 6    1  0.1831439E-005  0.1082209E+04  0.7818608E-02  0.9222708E-01
         -2   -1    0    0    0  501 -0.00000000000E+00  0.00000000000E+00  0.41414860593E+03  0.41414860593E+03  0.00000000000E+00 0.  1.
          2   -1    0    0  501    0  0.00000000000E+00 -0.00000000000E+00 -0.70697777247E+03  0.70697777247E+03  0.00000000000E+00 0. -1.
         23    2    1    2    0    0  0.33844550453E+03 -0.25487965243E+03  0.19468869333E+03  0.47522959063E+03  0.91817643920E+02 0.  0.
         11    1    3    3    0    0  0.14488989305E+03 -0.69210085906E+02  0.39501699785E+02  0.16535870520E+03  0.00000000000E+00 0. -1.
        -11    1    3    3    0    0  0.19355561148E+03 -0.18566956652E+03  0.15518699355E+03  0.30987088543E+03  0.00000000000E+00 0.  1.
         22    1    1    2    0    0 -0.33844550453E+03  0.25487965243E+03 -0.48751785987E+03  0.64589678777E+03  0.00000000000E+00 0. -1.
<mgrwt>
<rscale>  0 0.10822086E+04</rscale>
<asrwt>0</asrwt>
<pdfrwt beam="1">  1        2 0.10876581E+00 0.10822086E+04</pdfrwt>
<pdfrwt beam="2">  1       -2 0.63715171E-01 0.10822086E+04</pdfrwt>
<totfact> 0.91685998E+01</totfact>
</mgrwt>
</event>
<event>
 6    1  0.1831439E-005  0.2126927E+04  0.7818608E-02  0.8549474E-01
         -2   -1    0    0    0  501 -0.00000000000E+00  0.00000000000E+00  0.16337620976E+04  0.16337620976E+04  0.00000000000E+00 0.  1.
          2   -1    0    0  501    0  0.00000000000E+00 -0.00000000000E+00 -0.69223918082E+03  0.69223918082E+03  0.00000000000E+00 0. -1.
         23    2    1    2    0    0 -0.64765006553E+02  0.73727529903E+03  0.13038100882E+04  0.15019737502E+04  0.90747053134E+02 0.  0.
         13    1    3    3    0    0  0.23216022176E+02  0.14188727603E+03  0.24616338487E+03  0.28507436720E+03  0.00000000000E+00 0.  1.
        -13    1    3    3    0    0 -0.87981028729E+02  0.59538802300E+03  0.10576467033E+04  0.12168993830E+04  0.00000000000E+00 0. -1.
         22    1    1    2    0    0  0.64765006553E+02 -0.73727529903E+03 -0.36228717141E+03  0.82402752819E+03  0.00000000000E+00 0. -1.
<mgrwt>
<rscale>  0 0.21269265E+04</rscale>
<asrwt>0</asrwt>
<pdfrwt beam="1">  1        2 0.10649834E+00 0.21269265E+04</pdfrwt>
<pdfrwt beam="2">  1       -2 0.25134801E+00 0.21269265E+04</pdfrwt>
<totfact> 0.24086327E+00</totfact>
</mgrwt>
</event>
<event>
 6    1  0.1831439E-005  0.1767534E+04  0.7818608E-02  0.8723757E-01
         -2   -1    0    0    0  501 -0.00000000000E+00  0.00000000000E+00  0.23025317538E+03  0.23025317538E+03  0.00000000000E+00 0.  1.
          2   -1    0    0  501    0  0.00000000000E+00 -0.00000000000E+00 -0.33921108668E+04  0.33921108668E+04  0.00000000000E+00 0. -1.
         23    2    1    2    0    0 -0.33632132039E+03 -0.76932988299E+03 -0.10357997635E+04  0.13365156630E+04  0.91719507818E+02 0.  0.
         13    1    3    3    0    0 -0.22972255002E+03 -0.61968318843E+03 -0.80969017629E+03  0.10451688311E+04  0.00000000000E+00 0. -1.
        -13    1    3    3    0    0 -0.10659877037E+03 -0.14964669456E+03 -0.22610958716E+03  0.29134683188E+03  0.00000000000E+00 0.  1.
         22    1    1    2    0    0  0.33632132039E+03  0.76932988299E+03 -0.21260579279E+04  0.22858483791E+04  0.00000000000E+00 0. -1.
<mgrwt>
<rscale>  0 0.17675342E+04</rscale>
<asrwt>0</asrwt>
<pdfrwt beam="1">  1        2 0.52186319E+00 0.17675342E+04</pdfrwt>
<pdfrwt beam="2">  1       -2 0.35423567E-01 0.17675342E+04</pdfrwt>
<totfact> 0.68921477E+00</totfact>
</mgrwt>
</event>
<event>
 6    1  0.1831439E-005  0.2517551E+03  0.7818608E-02  0.1112201E+00
         -1   -1    0    0    0  501 -0.00000000000E+00  0.00000000000E+00  0.87077436575E+02  0.87077436575E+02  0.00000000000E+00 0.  1.
          1   -1    0    0  501    0  0.00000000000E+00 -0.00000000000E+00 -0.18196625927E+03  0.18196625927E+03  0.00000000000E+00 0. -1.
         23    2    1    2    0    0 -0.62018822380E+02 -0.68822659086E+02 -0.11510914508E+03  0.17421883534E+03  0.92299483055E+02 0.  0.
         13    1    3    3    0    0 -0.46884369635E+01 -0.21908200451E+02 -0.94792408637E+02  0.97404062664E+02  0.00000000000E+00 0. -1.
        -13    1    3    3    0    0 -0.57330385417E+02 -0.46914458635E+02 -0.20316736440E+02  0.76814772672E+02  0.00000000000E+00 0.  1.
         22    1    1    2    0    0  0.62018822380E+02  0.68822659086E+02  0.20220322384E+02  0.94824860508E+02  0.00000000000E+00 0.  1.
<mgrwt>
<rscale>  0 0.25175508E+03</rscale>
<asrwt>0</asrwt>
<pdfrwt beam="1">  1        1 0.27994809E-01 0.25175508E+03</pdfrwt>
<pdfrwt beam="2">  1       -1 0.13396529E-01 0.25175508E+03</pdfrwt>
<totfact> 0.62882498E+03</totfact>
</mgrwt>
</event>
<event>
 6    1  0.1831439E-005  0.2206830E+04  0.7818608E-02  0.8515591E-01
         -2   -1    0    0    0  501 -0.00000000000E+00  0.00000000000E+00  0.93053381251E+03  0.93053381251E+03  0.00000000000E+00 0.  1.
          2   -1    0    0  501    0  0.00000000000E+00 -0.00000000000E+00 -0.13084158157E+04  0.13084158157E+04  0.00000000000E+00 0. -1.
         23    2    1    2    0    0  0.65936135674E+03  0.79280176046E+03  0.20386006690E+03  0.10550088078E+04  0.90513134587E+02 0.  0.
         11    1    3    3    0    0  0.26138391052E+03  0.28805415835E+03  0.35699195627E+02  0.39060360903E+03  0.00000000000E+00 0. -1.
        -11    1    3    3    0    0  0.39797744622E+03  0.50474760211E+03  0.16816087127E+03  0.66440519878E+03  0.00000000000E+00 0.  1.
         22    1    1    2    0    0 -0.65936135674E+03 -0.79280176046E+03 -0.58174207013E+03  0.11839408204E+04  0.00000000000E+00 0. -1.
<mgrwt>
<rscale>  0 0.22068304E+04</rscale>
<asrwt>0</asrwt>
<pdfrwt beam="1">  1        2 0.20129474E+00 0.22068304E+04</pdfrwt>
<pdfrwt beam="2">  1       -2 0.14315905E+00 0.22068304E+04</pdfrwt>
<totfact> 0.50604504E+00</totfact>
</mgrwt>
</event>
<event>
 6    1  0.1831439E-005  0.2909932E+04  0.7818608E-02  0.8269929E-01
          2   -1    0    0  501    0  0.00000000000E+00  0.00000000000E+00  0.19534551948E+04  0.19534551948E+04  0.00000000000E+00 0. -1.
         -2   -1    0    0    0  501 -0.00000000000E+00 -0.00000000000E+00 -0.10836826143E+04  0.10836826143E+04  0.00000000000E+00 0.  1.
         23    2    1    2    0    0  0.12885759419E+04  0.67204186991E+03  0.45944791902E+03  0.15270270315E+04  0.93010384627E+02 0.  0.
         11    1    3    3    0    0  0.83801102904E+03  0.38981847302E+03  0.30824518319E+03  0.97428744201E+03  0.00000000000E+00 0. -1.
        -11    1    3    3    0    0  0.45056491285E+03  0.28222339689E+03  0.15120273583E+03  0.55273958947E+03  0.00000000000E+00 0.  1.
         22    1    1    2    0    0 -0.12885759419E+04 -0.67204186991E+03  0.41032466140E+03  0.15101107776E+04  0.00000000000E+00 0.  1.
<mgrwt>
<rscale>  0 0.29099316E+04</rscale>
<asrwt>0</asrwt>
<pdfrwt beam="1">  1        2 0.30053157E+00 0.29099316E+04</pdfrwt>
<pdfrwt beam="2">  1       -2 0.16672040E+00 0.29099316E+04</pdfrwt>
<totfact> 0.13760075E+00</totfact>
</mgrwt>
</event>
<event>
 6    1  0.1831439E-005  0.1701917E+04  0.7818608E-02  0.8760272E-01
          2   -1    0    0  501    0  0.00000000000E+00  0.00000000000E+00  0.72974635285E+03  0.72974635285E+03  0.00000000000E+00 0. -1.
         -2   -1    0    0    0  501 -0.00000000000E+00 -0.00000000000E+00 -0.99230394152E+03  0.99230394152E+03  0.00000000000E+00 0.  1.
         23    2    1    2    0    0 -0.37211947598E+03  0.76049077603E+03 -0.17509628319E+03  0.87089307929E+03  0.10477080858E+03 0.  0.
         13    1    3    3    0    0 -0.22913083255E+03  0.38486880908E+03 -0.13034475093E+03  0.46649189995E+03  0.00000000000E+00 0.  1.
        -13    1    3    3    0    0 -0.14298864343E+03  0.37562196695E+03 -0.44751532258E+02  0.40440117934E+03  0.00000000000E+00 0. -1.
         22    1    1    2    0    0  0.37211947598E+03 -0.76049077603E+03 -0.87461305487E+02  0.85115721508E+03  0.00000000000E+00 0. -1.
<mgrwt>
<rscale>  0 0.17019168E+04</rscale>
<asrwt>0</asrwt>
<pdfrwt beam="1">  1        2 0.11226867E+00 0.17019168E+04</pdfrwt>
<pdfrwt beam="2">  1       -2 0.15266215E+00 0.17019168E+04</pdfrwt>
<totfact> 0.10562783E+01</totfact>
</mgrwt>
</event>
<event>
 6    1  0.1831439E-005  0.1178975E+04  0.7818608E-02  0.9131461E-01
         -2   -1    0    0    0  501 -0.00000000000E+00  0.00000000000E+00  0.38690965192E+03  0.38690965192E+03  0.00000000000E+00 0.  1.
          2   -1    0    0  501    0  0.00000000000E+00 -0.00000000000E+00 -0.89813125175E+03  0.89813125175E+03  0.00000000000E+00 0. -1.
         23    2    1    2    0    0  0.43048116045E+02 -0.44528412766E+03 -0.66941953492E+03  0.81053307306E+03  0.93328742389E+02 0.  0.
         13    1    3    3    0    0  0.50145109517E+02 -0.32528485048E+03 -0.55085985421E+03  0.64169412101E+03  0.00000000000E+00 0.  1.
        -13    1    3    3    0    0 -0.70969934722E+01 -0.11999927718E+03 -0.11855968071E+03  0.16883895206E+03  0.00000000000E+00 0. -1.
         22    1    1    2    0    0 -0.43048116045E+02  0.44528412766E+03  0.15819793509E+03  0.47450783061E+03  0.00000000000E+00 0.  1.
<mgrwt>
<rscale>  0 0.11789752E+04</rscale>
<asrwt>0</asrwt>
<pdfrwt beam="1">  1        2 0.13817404E+00 0.11789752E+04</pdfrwt>
<pdfrwt beam="2">  1       -2 0.59524562E-01 0.11789752E+04</pdfrwt>
<totfact> 0.76547763E+01</totfact>
</mgrwt>
</event>
<event>
 6    1  0.1831439E-005  0.6849022E+04  0.7818608E-02  0.7593209E-01
         -2   -1    0    0    0  501 -0.00000000000E+00  0.00000000000E+00  0.27463181010E+04  0.27463181010E+04  0.00000000000E+00 0. -1.
          2   -1    0    0  501    0  0.00000000000E+00 -0.00000000000E+00 -0.42701808107E+04  0.42701808107E+04  0.00000000000E+00 0.  1.
         23    2    1    2    0    0  0.30616319568E+04  0.12511025631E+04 -0.16693439718E+04  0.37059079282E+04  0.90534050002E+02 0.  0.
         11    1    3    3    0    0  0.12389655299E+04  0.55141716611E+03 -0.66701090256E+03  0.15112908454E+04  0.00000000000E+00 0. -1.
        -11    1    3    3    0    0  0.18226664269E+04  0.69968539704E+03 -0.10023330693E+04  0.21946170828E+04  0.00000000000E+00 0.  1.
         22    1    1    2    0    0 -0.30616319568E+04 -0.12511025631E+04  0.14548126209E+03  0.33105909835E+04  0.00000000000E+00 0. -1.
<mgrwt>
<rscale>  0 0.68490218E+04</rscale>
<asrwt>0</asrwt>
<pdfrwt beam="1">  1        2 0.65695089E+00 0.68490218E+04</pdfrwt>
<pdfrwt beam="2">  1       -2 0.42251048E+00 0.68490218E+04</pdfrwt>
<totfact> 0.66734926E-04</totfact>
</mgrwt>
</event>
<event>
 6    1  0.1831439E-005  0.1454370E+04  0.7818608E-02  0.8915376E-01
         -2   -1    0    0    0  501 -0.00000000000E+00  0.00000000000E+00  0.31193988036E+03  0.31193988036E+03  0.00000000000E+00 0.  1.
          2   -1    0    0  501    0  0.00000000000E+00 -0.00000000000E+00 -0.16951921819E+04  0.16951921819E+04  0.00000000000E+00 0. -1.
         23    2    1    2    0    0  0.41328198632E+03  0.33589311933E+03 -0.16251417885E+02  0.54005414895E+03  0.88137321195E+02 0.  0.
         13    1    3    3    0    0  0.34362067282E+03  0.23326976906E+03 -0.31518249105E+01  0.41533105584E+03  0.00000000000E+00 0. -1.
        -13    1    3    3    0    0  0.69661313500E+02  0.10262335027E+03 -0.13099592975E+02  0.12472309311E+03  0.00000000000E+00 0.  1.
         22    1    1    2    0    0 -0.41328198632E+03 -0.33589311933E+03 -0.13670008836E+04  0.14670779133E+04  0.00000000000E+00 0. -1.
<mgrwt>
<rscale>  0 0.14543700E+04</rscale>
<asrwt>0</asrwt>
<pdfrwt beam="1">  1        2 0.26079880E+00 0.14543700E+04</pdfrwt>
<pdfrwt beam="2">  1       -2 0.47990751E-01 0.14543700E+04</pdfrwt>
<totfact> 0.39347617E+01</totfact>
</mgrwt>
</event>
<event>
 6    1  0.1831439E-005  0.4368742E+04  0.7818608E-02  0.7934028E-01
         -2   -1    0    0    0  501 -0.00000000000E+00  0.00000000000E+00  0.23525302019E+04  0.23525302019E+04  0.00000000000E+00 0. -1.
          2   -1    0    0  501    0  0.00000000000E+00 -0.00000000000E+00 -0.20282320276E+04  0.20282320276E+04  0.00000000000E+00 0.  1.
         23    2    1    2    0    0  0.20433266187E+04  0.20393330756E+02 -0.60984331762E+03  0.21339378293E+04  0.78627149628E+02 0.  0.
         13    1    3    3    0    0  0.92235266429E+03  0.23116537614E+02 -0.31353071987E+03  0.97445899038E+03  0.00000000000E+00 0.  1.
        -13    1    3    3    0    0  0.11209739544E+04 -0.27232068579E+01 -0.29631259775E+03  0.11594788389E+04  0.00000000000E+00 0. -1.
         22    1    1    2    0    0 -0.20433266187E+04 -0.20393330756E+02  0.93414149193E+03  0.22468244003E+04  0.00000000000E+00 0.  1.
<mgrwt>
<rscale>  0 0.43687422E+04</rscale>
<asrwt>0</asrwt>
<pdfrwt beam="1">  1        2 0.31203570E+00 0.43687422E+04</pdfrwt>
<pdfrwt beam="2">  1       -2 0.36192772E+00 0.43687422E+04</pdfrwt>
<totfact> 0.64501089E-02</totfact>
</mgrwt>
</event>
<event>
 6    1  0.1831439E-005  0.4327098E+04  0.7818608E-02  0.7941626E-01
         -1   -1    0    0    0  501 -0.00000000000E+00  0.00000000000E+00  0.16570053331E+04  0.16570053331E+04  0.00000000000E+00 0.  1.
          1   -1    0    0  501    0  0.00000000000E+00 -0.00000000000E+00 -0.28249421436E+04  0.28249421436E+04  0.00000000000E+00 0. -1.
         23    2    1    2    0    0  0.21225440406E+04  0.37255396136E+03 -0.77200878716E+03  0.22908863963E+04  0.90406055267E+02 0.  0.
         11    1    3    3    0    0  0.18649537027E+04  0.33015623041E+03 -0.64674985849E+03  0.20013347619E+04  0.00000000000E+00 0.  1.
        -11    1    3    3    0    0  0.25759033786E+03  0.42397730956E+02 -0.12525892867E+03  0.28955163436E+03  0.00000000000E+00 0. -1.
         22    1    1    2    0    0 -0.21225440406E+04 -0.37255396136E+03 -0.39592802332E+03  0.21910610804E+04  0.00000000000E+00 0.  1.
<mgrwt>
<rscale>  0 0.43270980E+04</rscale>
<asrwt>0</asrwt>
<pdfrwt beam="1">  1        1 0.43460648E+00 0.43270980E+04</pdfrwt>
<pdfrwt beam="2">  1       -1 0.25492390E+00 0.43270980E+04</pdfrwt>
<totfact> 0.39461439E-02</totfact>
</mgrwt>
</event>
<event>
 6    1  0.1831439E-005  0.7393636E+03  0.7818608E-02  0.9652187E-01
         -1   -1    0    0    0  501 -0.00000000000E+00  0.00000000000E+00  0.12570722950E+04  0.12570722950E+04  0.00000000000E+00 0.  1.
          1   -1    0    0  501    0  0.00000000000E+00 -0.00000000000E+00 -0.10871660358E+03  0.10871660358E+03  0.00000000000E+00 0. -1.
         23    2    1    2    0    0  0.29981164523E+03  0.12409434401E+03  0.88881617276E+03  0.95028054658E+03  0.88048278849E+02 0.  0.
         11    1    3    3    0    0  0.15600022236E+03  0.82461397744E+02  0.36379893964E+03  0.40433355040E+03  0.00000000000E+00 0.  1.
        -11    1    3    3    0    0  0.14381142288E+03  0.41632946269E+02  0.52501723312E+03  0.54594699618E+03  0.00000000000E+00 0. -1.
         22    1    1    2    0    0 -0.29981164523E+03 -0.12409434401E+03  0.25953951866E+03  0.41550835200E+03  0.00000000000E+00 0. -1.
<mgrwt>
<rscale>  0 0.73936359E+03</rscale>
<asrwt>0</asrwt>
<pdfrwt beam="1">  1        1 0.16725632E-01 0.73936359E+03</pdfrwt>
<pdfrwt beam="2">  1       -1 0.19339573E+00 0.73936359E+03</pdfrwt>
<totfact> 0.56976321E+01</totfact>
</mgrwt>
</event>
<event>
 6    1  0.1831439E-005  0.2370940E+04  0.7818608E-02  0.8450464E-01
          1   -1    0    0  501    0  0.00000000000E+00  0.00000000000E+00  0.35336030513E+04  0.35336030513E+04  0.00000000000E+00 0. -1.
         -1   -1    0    0    0  501 -0.00000000000E+00 -0.00000000000E+00 -0.39770703403E+03  0.39770703403E+03  0.00000000000E+00 0.  1.
         23    2    1    2    0    0  0.10229382741E+03 -0.32564421430E+03  0.34496146784E+04  0.34677072599E+04  0.92973271222E+02 0.  0.
         11    1    3    3    0    0  0.71741026678E+02 -0.12737693849E+03  0.18031399771E+04  0.18090565044E+04  0.00000000000E+00 0.  1.
        -11    1    3    3    0    0  0.30552800728E+02 -0.19826727581E+03  0.16464747014E+04  0.16586507554E+04  0.00000000000E+00 0. -1.
         22    1    1    2    0    0 -0.10229382741E+03  0.32564421430E+03 -0.31371866115E+03  0.46360282547E+03  0.00000000000E+00 0.  1.
<mgrwt>
<rscale>  0 0.23709397E+04</rscale>
<asrwt>0</asrwt>
<pdfrwt beam="1">  1        1 0.54363122E+00 0.23709397E+04</pdfrwt>
<pdfrwt beam="2">  1       -1 0.61185700E-01 0.23709397E+04</pdfrwt>
<totfact> 0.57306517E-01</totfact>
</mgrwt>
</event>
<event>
 6    1  0.1831439E-005  0.2671883E+04  0.7818608E-02  0.8344186E-01
         -1   -1    0    0    0  501 -0.00000000000E+00  0.00000000000E+00  0.16528715881E+04  0.16528715881E+04  0.00000000000E+00 0.  1.
          1   -1    0    0  501    0  0.00000000000E+00 -0.00000000000E+00 -0.10797811448E+04  0.10797811448E+04  0.00000000000E+00 0. -1.
         23    2    1    2    0    0 -0.61280176692E+03 -0.93618891833E+03 -0.45688007537E+03  0.12118585437E+04  0.88803324332E+02 0.  0.
         13    1    3    3    0    0 -0.85907972275E+02 -0.18776384519E+03 -0.10039337307E+03  0.22959588545E+03  0.00000000000E+00 0.  1.
        -13    1    3    3    0    0 -0.52689379465E+03 -0.74842507314E+03 -0.35648670230E+03  0.98226265828E+03  0.00000000000E+00 0. -1.
         22    1    1    2    0    0  0.61280176692E+03  0.93618891833E+03  0.10299705187E+04  0.15207941891E+04  0.00000000000E+00 0.  1.
<mgrwt>
<rscale>  0 0.26718829E+04</rscale>
<asrwt>0</asrwt>
<pdfrwt beam="1">  1        1 0.16612018E+00 0.26718829E+04</pdfrwt>
<pdfrwt beam="2">  1       -1 0.25428794E+00 0.26718829E+04</pdfrwt>
<totfact> 0.75136378E-01</totfact>
</mgrwt>
</event>
<event>
 6    1  0.1831439E-005  0.4303684E+04  0.7818608E-02  0.7945937E-01
         -1   -1    0    0    0  501 -0.00000000000E+00  0.00000000000E+00  0.13410317533E+04  0.13410317533E+04  0.00000000000E+00 0.  1.
          1   -1    0    0  501    0  0.00000000000E+00 -0.00000000000E+00 -0.34528809054E+04  0.34528809054E+04  0.00000000000E+00 0. -1.
         23    2    1    2    0    0  0.62662935355E+03 -0.18477661415E+04 -0.48287774210E+02  0.19539849095E+04  0.93921545511E+02 0.  0.
         13    1    3    3    0    0  0.68579091518E+02 -0.14071581072E+03  0.12226863288E+02  0.15701441770E+03  0.00000000000E+00 0.  1.
        -13    1    3    3    0    0  0.55805026204E+03 -0.17070503308E+04 -0.60514637498E+02  0.17969704918E+04  0.00000000000E+00 0. -1.
         22    1    1    2    0    0 -0.62662935355E+03  0.18477661415E+04 -0.20635613779E+04  0.28399277493E+04  0.00000000000E+00 0. -1.
<mgrwt>
<rscale>  0 0.43036835E+04</rscale>
<asrwt>0</asrwt>
<pdfrwt beam="1">  1        1 0.53121244E+00 0.43036835E+04</pdfrwt>
<pdfrwt beam="2">  1       -1 0.20631258E+00 0.43036835E+04</pdfrwt>
<totfact> 0.28263820E-02</totfact>
</mgrwt>
</event>
<event>
 6    1  0.1831439E-005  0.4582781E+04  0.7818608E-02  0.7896302E-01
         -1   -1    0    0    0  501 -0.00000000000E+00  0.00000000000E+00  0.18497588714E+04  0.18497588714E+04  0.00000000000E+00 0.  1.
          1   -1    0    0  501    0  0.00000000000E+00 -0.00000000000E+00 -0.28384621099E+04  0.28384621099E+04  0.00000000000E+00 0. -1.
         23    2    1    2    0    0 -0.27911153858E+02 -0.22251789939E+04  0.60121708736E+02  0.22280920503E+04  0.92622767763E+02 0.  0.
         13    1    3    3    0    0 -0.13179961237E+02 -0.13982877381E+04  0.82330558680E+02  0.14007714413E+04  0.00000000000E+00 0.  1.
        -13    1    3    3    0    0 -0.14731192622E+02 -0.82689125582E+03 -0.22208849944E+02  0.82732060896E+03  0.00000000000E+00 0. -1.
         22    1    1    2    0    0  0.27911153858E+02  0.22251789939E+04 -0.10488249472E+04  0.24601289311E+04  0.00000000000E+00 0. -1.
<mgrwt>
<rscale>  0 0.45827810E+04</rscale>
<asrwt>0</asrwt>
<pdfrwt beam="1">  1        1 0.43668648E+00 0.45827810E+04</pdfrwt>
<pdfrwt beam="2">  1       -1 0.28457829E+00 0.45827810E+04</pdfrwt>
<totfact> 0.24270951E-02</totfact>
</mgrwt>
</event>
<event>
 6    1  0.1831439E-005  0.2742577E+04  0.7818608E-02  0.8321321E-01
         -1   -1    0    0    0  501 -0.00000000000E+00  0.00000000000E+00  0.63529030249E+03  0.63529030249E+03  0.00000000000E+00 0.  1.
          1   -1    0    0  501    0  0.00000000000E+00 -0.00000000000E+00 -0.29599566626E+04  0.29599566626E+04  0.00000000000E+00 0. -1.
         23    2    1    2    0    0  0.35478567962E+02  0.90766427947E+03 -0.25077009649E+04  0.26686322450E+04  0.88998633370E+02 0.  0.
         13    1    3    3    0    0  0.60552606272E+02  0.41658500954E+03 -0.11467783079E+04  0.12216014800E+04  0.00000000000E+00 0.  1.
        -13    1    3    3    0    0 -0.25074038310E+02  0.49107926993E+03 -0.13609226570E+04  0.14470307650E+04  0.00000000000E+00 0. -1.
         22    1    1    2    0    0 -0.35478567962E+02 -0.90766427947E+03  0.18303460474E+03  0.92661472012E+03  0.00000000000E+00 0.  1.
<mgrwt>
<rscale>  0 0.27425767E+04</rscale>
<asrwt>0</asrwt>
<pdfrwt beam="1">  1        1 0.45537795E+00 0.27425767E+04</pdfrwt>
<pdfrwt beam="2">  1       -1 0.97736969E-01 0.27425767E+04</pdfrwt>
<totfact> 0.55819382E-01</totfact>
</mgrwt>
</event>
<event>
 6    1  0.1831439E-005  0.1729054E+04  0.7818608E-02  0.8744965E-01
          1   -1    0    0  501    0  0.00000000000E+00  0.00000000000E+00  0.69905586972E+03  0.69905586972E+03  0.00000000000E+00 0. -1.
         -1   -1    0    0    0  501 -0.00000000000E+00 -0.00000000000E+00 -0.10691656784E+04  0.10691656784E+04  0.00000000000E+00 0.  1.
         23    2    1    2    0    0 -0.57912817976E+02 -0.81773021133E+03 -0.45849036072E+03  0.94369276456E+03  0.91137423675E+02 0.  0.
         11    1    3    3    0    0 -0.19103989028E+02 -0.70869473433E+03 -0.40014083470E+03  0.81407977279E+03  0.00000000000E+00 0. -1.
        -11    1    3    3    0    0 -0.38808828949E+02 -0.10903547700E+03 -0.58349526026E+02  0.12961299177E+03  0.00000000000E+00 0.  1.
         22    1    1    2    0    0  0.57912817976E+02  0.81773021133E+03  0.88380552011E+02  0.82452878360E+03  0.00000000000E+00 0. -1.
<mgrwt>
<rscale>  0 0.17290535E+04</rscale>
<asrwt>0</asrwt>
<pdfrwt beam="1">  1        1 0.10754706E+00 0.17290535E+04</pdfrwt>
<pdfrwt beam="2">  1       -1 0.16448703E+00 0.17290535E+04</pdfrwt>
<totfact> 0.70065494E+00</totfact>
</mgrwt>
</event>
<event>
 6    1  0.1831439E-005  0.7095359E+03  0.7818608E-02  0.9701062E-01
          1   -1    0    0  501    0  0.00000000000E+00  0.00000000000E+00  0.16176838510E+03  0.16176838510E+03  0.00000000000E+00 0. -1.
         -1   -1    0    0    0  501 -0.00000000000E+00 -0.00000000000E+00 -0.77802778792E+03  0.77802778792E+03  0.00000000000E+00 0.  1.
         23    2    1    2    0    0  0.11893370238E+03  0.25658695088E+03 -0.41777448725E+02  0.29947468774E+03  0.89205630158E+02 0.  0.
         11    1    3    3    0    0  0.11523468368E+03  0.17726678887E+03 -0.56194555075E+02  0.21877014143E+03  0.00000000000E+00 0.  1.
        -11    1    3    3    0    0  0.36990187014E+01  0.79320162006E+02  0.14417106350E+02  0.80704546313E+02  0.00000000000E+00 0. -1.
         22    1    1    2    0    0 -0.11893370238E+03 -0.25658695088E+03 -0.57448195410E+03  0.64032148528E+03  0.00000000000E+00 0.  1.
<mgrwt>
<rscale>  0 0.70953590E+03</rscale>
<asrwt>0</asrwt>
<pdfrwt beam="1">  1        1 0.24887444E-01 0.70953590E+03</pdfrwt>
<pdfrwt beam="2">  1       -1 0.11969658E+00 0.70953590E+03</pdfrwt>
<totfact> 0.12441831E+02</totfact>
</mgrwt>
</event>
<event>
 6    1  0.1831439E-005  0.7049696E+03  0.7818608E-02  0.9708771E-01
          1   -1    0    0  501    0  0.00000000000E+00  0.00000000000E+00  0.11969069123E+04  0.11969069123E+04  0.00000000000E+00 0. -1.
         -1   -1    0    0    0  501 -0.00000000000E+00 -0.00000000000E+00 -0.10380549862E+03  0.10380549862E+03  0.00000000000E+00 0.  1.
         23    2    1    2    0    0  0.13255361289E+03  0.16781402810E+03  0.10592348625E+04  0.10841969343E+04  0.88161726319E+02 0.  0.
         11    1    3    3    0    0  0.13573069661E+03  0.17320986525E+03  0.96579754566E+03  0.99055003843E+03  0.00000000000E+00 0.  1.
        -11    1    3    3    0    0 -0.31770837200E+01 -0.53958371484E+01  0.93437316869E+02  0.93646895854E+02  0.00000000000E+00 0. -1.
         22    1    1    2    0    0 -0.13255361289E+03 -0.16781402810E+03  0.33866551106E+02  0.21651547659E+03  0.00000000000E+00 0.  1.
<mgrwt>
<rscale>  0 0.70496956E+03</rscale>
<asrwt>0</asrwt>
<pdfrwt beam="1">  1        1 0.18413952E+00 0.70496956E+03</pdfrwt>
<pdfrwt beam="2">  1       -1 0.15970078E-01 0.70496956E+03</pdfrwt>
<totfact> 0.32380109E+02</totfact>
</mgrwt>
</event>
<event>
 6    1  0.1831439E-005  0.4386687E+04  0.7818608E-02  0.7930781E-01
         -2   -1    0    0    0  501 -0.00000000000E+00  0.00000000000E+00  0.19584258844E+04  0.19584258844E+04  0.00000000000E+00 0.  1.
          2   -1    0    0  501    0  0.00000000000E+00 -0.00000000000E+00 -0.24564394586E+04  0.24564394586E+04  0.00000000000E+00 0. -1.
         23    2    1    2    0    0  0.26409290184E+03  0.12029882428E+04  0.15762745395E+04  0.20024812625E+04  0.91454959914E+02 0.  0.
         13    1    3    3    0    0  0.16057767033E+03  0.55570472889E+03  0.78073526425E+03  0.97166891829E+03  0.00000000000E+00 0.  1.
        -13    1    3    3    0    0  0.10351523151E+03  0.64728351387E+03  0.79553927528E+03  0.10308123442E+04  0.00000000000E+00 0. -1.
         22    1    1    2    0    0 -0.26409290184E+03 -0.12029882428E+04 -0.20742881137E+04  0.24123840805E+04  0.00000000000E+00 0. -1.
<mgrwt>
<rscale>  0 0.43866865E+04</rscale>
<asrwt>0</asrwt>
<pdfrwt beam="1">  1        2 0.37791376E+00 0.43866865E+04</pdfrwt>
<pdfrwt beam="2">  1       -2 0.30129629E+00 0.43866865E+04</pdfrwt>
<totfact> 0.88037780E-02</totfact>
</mgrwt>
</event>
<event>
 6    1  0.1831439E-005  0.2354239E+04  0.7818608E-02  0.8456837E-01
         -1   -1    0    0    0  501 -0.00000000000E+00  0.00000000000E+00  0.17158267276E+04  0.17158267276E+04  0.00000000000E+00 0.  1.
          1   -1    0    0  501    0  0.00000000000E+00 -0.00000000000E+00 -0.80754698734E+03  0.80754698734E+03  0.00000000000E+00 0. -1.
         23    2    1    2    0    0 -0.11146666531E+03  0.11142301713E+04  0.72099305350E+02  0.11258289351E+04  0.91426414017E+02 0.  0.
         11    1    3    3    0    0 -0.28224224208E+02  0.65590380987E+03  0.67609392755E+02  0.65998291237E+03  0.00000000000E+00 0. -1.
        -11    1    3    3    0    0 -0.83242441100E+02  0.45832636139E+03  0.44899125950E+01  0.46584602269E+03  0.00000000000E+00 0.  1.
         22    1    1    2    0    0  0.11146666531E+03 -0.11142301713E+04  0.83618043488E+03  0.13975447799E+04  0.00000000000E+00 0.  1.
<mgrwt>
<rscale>  0 0.23542393E+04</rscale>
<asrwt>0</asrwt>
<pdfrwt beam="1">  1        1 0.12423800E+00 0.23542393E+04</pdfrwt>
<pdfrwt beam="2">  1       -1 0.26397334E+00 0.23542393E+04</pdfrwt>
<totfact> 0.11077295E+00</totfact>
</mgrwt>
</event>
<event>
 6    1  0.1831439E-005  0.2616449E+04  0.7818608E-02  0.8362635E-01
          1   -1    0    0  501    0  0.00000000000E+00  0.00000000000E+00  0.10767191886E+04  0.10767191886E+04  0.00000000000E+00 0. -1.
         -1   -1    0    0    0  501 -0.00000000000E+00 -0.00000000000E+00 -0.15895062519E+04  0.15895062519E+04  0.00000000000E+00 0.  1.
         23    2    1    2    0    0  0.49722101439E+03  0.96581563612E+02 -0.14843424967E+04  0.15705627663E+04  0.82692318700E+02 0.  0.
         11    1    3    3    0    0  0.14499877736E+03  0.64744043995E+02 -0.50044997801E+03  0.52503963389E+03  0.00000000000E+00 0. -1.
        -11    1    3    3    0    0  0.35222223702E+03  0.31837519617E+02 -0.98389251874E+03  0.10455231324E+04  0.00000000000E+00 0.  1.
         22    1    1    2    0    0 -0.49722101439E+03 -0.96581563612E+02  0.97155543340E+03  0.10956626743E+04  0.00000000000E+00 0. -1.
<mgrwt>
<rscale>  0 0.26164494E+04</rscale>
<asrwt>0</asrwt>
<pdfrwt beam="1">  1        1 0.16564911E+00 0.26164494E+04</pdfrwt>
<pdfrwt beam="2">  1       -1 0.24453942E+00 0.26164494E+04</pdfrwt>
<totfact> 0.87902447E-01</totfact>
</mgrwt>
</event>
<event>
 6    1  0.1831439E-005  0.2056884E+04  0.7818608E-02  0.8580478E-01
         -2   -1    0    0    0  501 -0.00000000000E+00  0.00000000000E+00  0.33877074991E+03  0.33877074991E+03  0.00000000000E+00 0.  1.
          2   -1    0    0  501    0  0.00000000000E+00 -0.00000000000E+00 -0.31221500923E+04  0.31221500923E+04  0.00000000000E+00 0. -1.
         23    2    1    2    0    0 -0.57949917150E+03 -0.30508097136E+03 -0.64611752539E+02  0.66438890130E+03  0.91346837674E+02 0.  0.
         13    1    3    3    0    0 -0.49847131298E+03 -0.25956867976E+03 -0.87248081044E+02  0.56873700163E+03  0.00000000000E+00 0.  1.
        -13    1    3    3    0    0 -0.81027858524E+02 -0.45512291601E+02  0.22636328505E+02  0.95651899677E+02  0.00000000000E+00 0. -1.
         22    1    1    2    0    0  0.57949917150E+03  0.30508097136E+03 -0.27187675899E+04  0.27965319409E+04  0.00000000000E+00 0. -1.
<mgrwt>
<rscale>  0 0.20568842E+04</rscale>
<asrwt>0</asrwt>
<pdfrwt beam="1">  1        2 0.48033078E+00 0.20568842E+04</pdfrwt>
<pdfrwt beam="2">  1       -2 0.52118577E-01 0.20568842E+04</pdfrwt>
<totfact> 0.46934009E+00</totfact>
</mgrwt>
</event>
<event>
 6    1  0.1831439E-005  0.8050765E+03  0.7818608E-02  0.9552698E-01
         -1   -1    0    0    0  501 -0.00000000000E+00  0.00000000000E+00  0.11135505277E+04  0.11135505277E+04  0.00000000000E+00 0.  1.
          1   -1    0    0  501    0  0.00000000000E+00 -0.00000000000E+00 -0.14551388297E+03  0.14551388297E+03  0.00000000000E+00 0. -1.
         23    2    1    2    0    0 -0.38687585442E+03 -0.84364653379E+02  0.54403642774E+03  0.67892088922E+03  0.90374872823E+02 0.  0.
         13    1    3    3    0    0 -0.25842289940E+03 -0.40728399568E+02  0.42162719615E+03  0.49619622127E+03  0.00000000000E+00 0.  1.
        -13    1    3    3    0    0 -0.12845295502E+03 -0.43636253811E+02  0.12240923159E+03  0.18272466796E+03  0.00000000000E+00 0. -1.
         22    1    1    2    0    0  0.38687585442E+03  0.84364653379E+02  0.42400021703E+03  0.58014352148E+03  0.00000000000E+00 0.  1.
<mgrwt>
<rscale>  0 0.80507655E+03</rscale>
<asrwt>0</asrwt>
<pdfrwt beam="1">  1        1 0.22386752E-01 0.80507655E+03</pdfrwt>
<pdfrwt beam="2">  1       -1 0.17131546E+00 0.80507655E+03</pdfrwt>
<totfact> 0.55225583E+01</totfact>
</mgrwt>
</event>
<event>
 6    1  0.1831439E-005  0.4586857E+04  0.7818608E-02  0.7895605E-01
         -2   -1    0    0    0  501 -0.00000000000E+00  0.00000000000E+00  0.15928371325E+04  0.15928371325E+04  0.00000000000E+00 0.  1.
          2   -1    0    0  501    0  0.00000000000E+00 -0.00000000000E+00 -0.33021673362E+04  0.33021673362E+04  0.00000000000E+00 0. -1.
         23    2    1    2    0    0 -0.14736209534E+04 -0.16915651664E+04 -0.34987400199E+03  0.22718246061E+04  0.76313807000E+02 0.  0.
         11    1    3    3    0    0 -0.26945723308E+03 -0.30716125436E+03 -0.34065103591E+02  0.41001910678E+03  0.00000000000E+00 0.  1.
        -11    1    3    3    0    0 -0.12041637204E+04 -0.13844039121E+04 -0.31580889839E+03  0.18618054994E+04  0.00000000000E+00 0. -1.
         22    1    1    2    0    0  0.14736209534E+04  0.16915651664E+04 -0.13594562018E+04  0.26231798625E+04  0.00000000000E+00 0. -1.
<mgrwt>
<rscale>  0 0.45868572E+04</rscale>
<asrwt>0</asrwt>
<pdfrwt beam="1">  1        2 0.50802574E+00 0.45868572E+04</pdfrwt>
<pdfrwt beam="2">  1       -2 0.24505187E+00 0.45868572E+04</pdfrwt>
<totfact> 0.57509028E-02</totfact>
</mgrwt>
</event>
<event>
 6    1  0.1831439E-005  0.5434963E+04  0.7818608E-02  0.7764702E-01
         -2   -1    0    0    0  501 -0.00000000000E+00  0.00000000000E+00  0.17750211853E+04  0.17750211853E+04  0.00000000000E+00 0.  1.
          2   -1    0    0  501    0  0.00000000000E+00 -0.00000000000E+00 -0.41603484209E+04  0.41603484209E+04  0.00000000000E+00 0. -1.
         23    2    1    2    0    0  0.20114327809E+04  0.11947109386E+04  0.31544263482E+03  0.23622261788E+04  0.86095326220E+02 0.  0.
         13    1    3    3    0    0  0.10837953459E+04  0.65608102367E+03  0.12885863465E+03  0.12734438382E+04  0.00000000000E+00 0.  1.
        -13    1    3    3    0    0  0.92763743509E+03  0.53862991489E+03  0.18658400017E+03  0.10887823406E+04  0.00000000000E+00 0. -1.
         22    1    1    2    0    0 -0.20114327809E+04 -0.11947109386E+04 -0.27007698705E+04  0.35731434273E+04  0.00000000000E+00 0. -1.
<mgrwt>
<rscale>  0 0.54349633E+04</rscale>
<asrwt>0</asrwt>
<pdfrwt beam="1">  1        2 0.64005359E+00 0.54349633E+04</pdfrwt>
<pdfrwt beam="2">  1       -2 0.27308019E+00 0.54349633E+04</pdfrwt>
<totfact> 0.81600337E-03</totfact>
</mgrwt>
</event>
<event>
 6    1  0.1831439E-005  0.1906337E+04  0.7818608E-02  0.8651708E-01
         -1   -1    0    0    0  501 -0.00000000000E+00  0.00000000000E+00  0.70563761615E+03  0.70563761615E+03  0.00000000000E+00 0.  1.
          1   -1    0    0  501    0  0.00000000000E+00 -0.00000000000E+00 -0.12875309520E+04  0.12875309520E+04  0.00000000000E+00 0. -1.
         23    2    1    2    0    0  0.63245894592E+03  0.44230319509E+03  0.28919743872E+03  0.82936636321E+03  0.92611938747E+02 0.  0.
         11    1    3    3    0    0  0.27158015852E+03  0.16796156113E+03  0.16453796046E+03  0.35922083591E+03  0.00000000000E+00 0. -1.
        -11    1    3    3    0    0  0.36087878740E+03  0.27434163396E+03  0.12465947826E+03  0.47014552730E+03  0.00000000000E+00 0.  1.
         22    1    1    2    0    0 -0.63245894592E+03 -0.44230319509E+03 -0.87109077453E+03  0.11638022049E+04  0.00000000000E+00 0. -1.
<mgrwt>
<rscale>  0 0.19063371E+04</rscale>
<asrwt>0</asrwt>
<pdfrwt beam="1">  1        1 0.19808168E+00 0.19063371E+04</pdfrwt>
<pdfrwt beam="2">  1       -1 0.10855963E+00 0.19063371E+04</pdfrwt>
<totfact> 0.67985904E+00</totfact>
</mgrwt>
</event>
<event>
 6    1  0.1831439E-005  0.2188948E+04  0.7818608E-02  0.8523042E-01
          1   -1    0    0  501    0  0.00000000000E+00  0.00000000000E+00  0.74944831906E+03  0.74944831906E+03  0.00000000000E+00 0. -1.
         -1   -1    0    0    0  501 -0.00000000000E+00 -0.00000000000E+00 -0.15983395093E+04  0.15983395093E+04  0.00000000000E+00 0.  1.
         23    2    1    2    0    0 -0.10244058531E+04  0.37087098791E+03 -0.51640070783E+03  0.12087081286E+04  0.85749680622E+02 0.  0.
         11    1    3    3    0    0 -0.62128285855E+03  0.24609174782E+03 -0.35686138382E+03  0.75756424542E+03  0.00000000000E+00 0.  1.
        -11    1    3    3    0    0 -0.40312299450E+03  0.12477924009E+03 -0.15953932401E+03  0.45114388321E+03  0.00000000000E+00 0. -1.
         22    1    1    2    0    0  0.10244058531E+04 -0.37087098791E+03 -0.33249048241E+03  0.11390796997E+04  0.00000000000E+00 0.  1.
<mgrwt>
<rscale>  0 0.21889476E+04</rscale>
<asrwt>0</asrwt>
<pdfrwt beam="1">  1        1 0.11529974E+00 0.21889476E+04</pdfrwt>
<pdfrwt beam="2">  1       -1 0.24589838E+00 0.21889476E+04</pdfrwt>
<totfact> 0.16595023E+00</totfact>
</mgrwt>
</event>
<event>
 6    1  0.1831439E-005  0.1996766E+04  0.7818608E-02  0.8608134E-01
         -1   -1    0    0    0  501 -0.00000000000E+00  0.00000000000E+00  0.12475370489E+04  0.12475370489E+04  0.00000000000E+00 0.  1.
          1   -1    0    0  501    0  0.00000000000E+00 -0.00000000000E+00 -0.79898928075E+03  0.79898928075E+03  0.00000000000E+00 0. -1.
         23    2    1    2    0    0 -0.28151342903E+03  0.86209374403E+03 -0.19741985247E+03  0.93309487639E+03  0.96104193374E+02 0.  0.
         13    1    3    3    0    0 -0.13867911568E+03  0.29885680256E+03 -0.96712693094E+02  0.34336661249E+03  0.00000000000E+00 0. -1.
        -13    1    3    3    0    0 -0.14283431335E+03  0.56323694146E+03 -0.10070715937E+03  0.58972826390E+03  0.00000000000E+00 0.  1.
         22    1    1    2    0    0  0.28151342903E+03 -0.86209374403E+03  0.64596762061E+03  0.11134314532E+04  0.00000000000E+00 0.  1.
<mgrwt>
<rscale>  0 0.19967661E+04</rscale>
<asrwt>0</asrwt>
<pdfrwt beam="1">  1        1 0.12292143E+00 0.19967661E+04</pdfrwt>
<pdfrwt beam="2">  1       -1 0.19192878E+00 0.19967661E+04</pdfrwt>
<totfact> 0.35207368E+00</totfact>
</mgrwt>
</event>
<event>
 6    1  0.1831439E-005  0.3515026E+04  0.7818608E-02  0.8110238E-01
          2   -1    0    0  501    0  0.00000000000E+00  0.00000000000E+00  0.23295329301E+04  0.23295329301E+04  0.00000000000E+00 0. -1.
         -2   -1    0    0    0  501 -0.00000000000E+00 -0.00000000000E+00 -0.13259530528E+04  0.13259530528E+04  0.00000000000E+00 0.  1.
         23    2    1    2    0    0  0.55928522731E+03  0.12890804276E+04  0.15979521776E+04  0.21297708241E+04  0.89130730185E+02 0.  0.
         11    1    3    3    0    0  0.46398771834E+03  0.97992774225E+03  0.12481486049E+04  0.16533051511E+04  0.00000000000E+00 0.  1.
        -11    1    3    3    0    0  0.95297508969E+02  0.30915268534E+03  0.34980357275E+03  0.47646567303E+03  0.00000000000E+00 0. -1.
         22    1    1    2    0    0 -0.55928522731E+03 -0.12890804276E+04 -0.59437230036E+03  0.15257151588E+04  0.00000000000E+00 0.  1.
<mgrwt>
<rscale>  0 0.35150256E+04</rscale>
<asrwt>0</asrwt>
<pdfrwt beam="1">  1        2 0.35838968E+00 0.35150256E+04</pdfrwt>
<pdfrwt beam="2">  1       -2 0.20399278E+00 0.35150256E+04</pdfrwt>
<totfact> 0.44829356E-01</totfact>
</mgrwt>
</event>
<event>
 6    1  0.2194078E-005  0.3287940E+04  0.7818608E-02  0.8165971E-01
         -2   -1    0    0    0  501 -0.00000000000E+00  0.00000000000E+00  0.22258907514E+04  0.22258907514E+04  0.00000000000E+00 0.  1.
          2   -1    0    0  501    0  0.00000000000E+00 -0.00000000000E+00 -0.12141821008E+04  0.12141821008E+04  0.00000000000E+00 0. -1.
         23    2    1    2    0    0  0.33118794920E+03  0.14602034043E+04  0.12132550790E+04  0.19292782260E+04  0.90813804136E+02 0.  0.
         11    1    3    3    0    0  0.20911691385E+03  0.81444408739E+03  0.73003170205E+03  0.11135507807E+04  0.00000000000E+00 0. -1.
        -11    1    3    3    0    0  0.12207103535E+03  0.64575931689E+03  0.48322337695E+03  0.81572744532E+03  0.00000000000E+00 0.  1.
         22    1    1    2    0    0 -0.33118794920E+03 -0.14602034043E+04 -0.20154642843E+03  0.15107946261E+04  0.00000000000E+00 0. -1.
<mgrwt>
<rscale>  0 0.32879396E+04</rscale>
<asrwt>0</asrwt>
<pdfrwt beam="1">  1        2 0.18679725E+00 0.32879396E+04</pdfrwt>
<pdfrwt beam="2">  1       -2 0.34244473E+00 0.32879396E+04</pdfrwt>
<totfact> 0.26944829E-01</totfact>
</mgrwt>
</event>
<event>
 6    1  0.1831439E-005  0.3095082E+04  0.7818608E-02  0.8217089E-01
          2   -1    0    0  501    0  0.00000000000E+00  0.00000000000E+00  0.19108505988E+04  0.19108505988E+04  0.00000000000E+00 0. -1.
         -2   -1    0    0    0  501 -0.00000000000E+00 -0.00000000000E+00 -0.12533071088E+04  0.12533071088E+04  0.00000000000E+00 0.  1.
         23    2    1    2    0    0  0.11661625210E+04 -0.78519800430E+03  0.98706216011E+03  0.17201862794E+04  0.90984596193E+02 0.  0.
         13    1    3    3    0    0  0.90098612288E+03 -0.59651231166E+03  0.71177630894E+03  0.12939197987E+04  0.00000000000E+00 0. -1.
        -13    1    3    3    0    0  0.26517639810E+03 -0.18868569264E+03  0.27528585118E+03  0.42626648071E+03  0.00000000000E+00 0.  1.
         22    1    1    2    0    0 -0.11661625210E+04  0.78519800430E+03 -0.32951867009E+03  0.14439714281E+04  0.00000000000E+00 0.  1.
<mgrwt>
<rscale>  0 0.30950817E+04</rscale>
<asrwt>0</asrwt>
<pdfrwt beam="1">  1        2 0.29397702E+00 0.30950817E+04</pdfrwt>
<pdfrwt beam="2">  1       -2 0.19281648E+00 0.30950817E+04</pdfrwt>
<totfact> 0.94409906E-01</totfact>
</mgrwt>
</event>
<event>
 6    1  0.1831439E-005  0.2719906E+04  0.7818608E-02  0.8328575E-01
         -2   -1    0    0    0  501 -0.00000000000E+00  0.00000000000E+00  0.10386382709E+04  0.10386382709E+04  0.00000000000E+00 0.  1.
          2   -1    0    0  501    0  0.00000000000E+00 -0.00000000000E+00 -0.17806695797E+04  0.17806695797E+04  0.00000000000E+00 0. -1.
         23    2    1    2    0    0 -0.59750683611E+03  0.72377016909E+03 -0.13893879887E+04  0.16791638475E+04  0.91293848264E+02 0.  0.
         11    1    3    3    0    0 -0.53676049613E+03  0.68462509540E+03 -0.12640696774E+04  0.15345017109E+04  0.00000000000E+00 0.  1.
        -11    1    3    3    0    0 -0.60746339984E+02  0.39145073689E+02 -0.12531831129E+03  0.14466213658E+03  0.00000000000E+00 0. -1.
         22    1    1    2    0    0  0.59750683611E+03 -0.72377016909E+03  0.64735667989E+03  0.11401440031E+04  0.00000000000E+00 0.  1.
<mgrwt>
<rscale>  0 0.27199056E+04</rscale>
<asrwt>0</asrwt>
<pdfrwt beam="1">  1        2 0.27394916E+00 0.27199056E+04</pdfrwt>
<pdfrwt beam="2">  1       -2 0.15979050E+00 0.27199056E+04</pdfrwt>
<totfact> 0.19586404E+00</totfact>
</mgrwt>
</event>
<event>
 6    1  0.1831439E-005  0.2828964E+04  0.7818608E-02  0.8294332E-01
          1   -1    0    0  501    0  0.00000000000E+00  0.00000000000E+00  0.27109523356E+04  0.27109523356E+04  0.00000000000E+00 0. -1.
         -1   -1    0    0    0  501 -0.00000000000E+00 -0.00000000000E+00 -0.73802832431E+03  0.73802832431E+03  0.00000000000E+00 0.  1.
         23    2    1    2    0    0  0.46041849942E+03  0.57389323673E+03 -0.48341711485E+03  0.88481405655E+03  0.88685770972E+02 0.  0.
         13    1    3    3    0    0  0.55530614977E+02  0.30267237237E+02 -0.41820038510E+02  0.75819987277E+02  0.00000000000E+00 0. -1.
        -13    1    3    3    0    0  0.40488788444E+03  0.54362599949E+03 -0.44159707634E+03  0.80899406928E+03  0.00000000000E+00 0.  1.
         22    1    1    2    0    0 -0.46041849942E+03 -0.57389323673E+03  0.24563411261E+04  0.25641666033E+04  0.00000000000E+00 0. -1.
<mgrwt>
<rscale>  0 0.28289642E+04</rscale>
<asrwt>0</asrwt>
<pdfrwt beam="1">  1        1 0.41706959E+00 0.28289642E+04</pdfrwt>
<pdfrwt beam="2">  1       -1 0.11354282E+00 0.28289642E+04</pdfrwt>
<totfact> 0.58887442E-01</totfact>
</mgrwt>
</event>
<event>
 6    1  0.1831439E-005  0.9520066E+03  0.7818608E-02  0.9362808E-01
          2   -1    0    0  501    0  0.00000000000E+00  0.00000000000E+00  0.12517449102E+04  0.12517449102E+04  0.00000000000E+00 0. -1.
         -2   -1    0    0    0  501 -0.00000000000E+00 -0.00000000000E+00 -0.18101063864E+03  0.18101063864E+03  0.00000000000E+00 0.  1.
         23    2    1    2    0    0  0.43148523201E+03  0.17238481082E+03  0.41743585033E+03  0.63107303337E+03  0.90024751375E+02 0.  0.
         11    1    3    3    0    0  0.25741032345E+03  0.11433905674E+03  0.19430694149E+03  0.34218223511E+03  0.00000000000E+00 0.  1.
        -11    1    3    3    0    0  0.17407490856E+03  0.58045754080E+02  0.22312890884E+03  0.28889079826E+03  0.00000000000E+00 0. -1.
         22    1    1    2    0    0 -0.43148523201E+03 -0.17238481082E+03  0.65329842125E+03  0.80168251550E+03  0.00000000000E+00 0. -1.
<mgrwt>
<rscale>  0 0.95200661E+03</rscale>
<asrwt>0</asrwt>
<pdfrwt beam="1">  1        2 0.19257613E+00 0.95200661E+03</pdfrwt>
<pdfrwt beam="2">  1       -2 0.27847791E-01 0.95200661E+03</pdfrwt>
<totfact> 0.20759089E+02</totfact>
</mgrwt>
</event>
<event>
 6    1  0.1831439E-005  0.5490306E+04  0.7818608E-02  0.7757025E-01
         -2   -1    0    0    0  501 -0.00000000000E+00  0.00000000000E+00  0.16020089950E+04  0.16020089950E+04  0.00000000000E+00 0.  1.
          2   -1    0    0  501    0  0.00000000000E+00 -0.00000000000E+00 -0.47040087593E+04  0.47040087593E+04  0.00000000000E+00 0. -1.
         23    2    1    2    0    0  0.61964566485E+03  0.66866210531E+03  0.14216060528E+04  0.16914669257E+04  0.95009633358E+02 0.  0.
         13    1    3    3    0    0  0.44645175887E+03  0.44628130346E+03  0.10484418276E+04  0.12238122571E+04  0.00000000000E+00 0. -1.
        -13    1    3    3    0    0  0.17319390598E+03  0.22238080185E+03  0.37316422516E+03  0.46765466858E+03  0.00000000000E+00 0.  1.
         22    1    1    2    0    0 -0.61964566485E+03 -0.66866210531E+03 -0.45236058171E+04  0.46145508286E+04  0.00000000000E+00 0. -1.
<mgrwt>
<rscale>  0 0.54903058E+04</rscale>
<asrwt>0</asrwt>
<pdfrwt beam="1">  1        2 0.72369365E+00 0.54903058E+04</pdfrwt>
<pdfrwt beam="2">  1       -2 0.24646292E+00 0.54903058E+04</pdfrwt>
<totfact> 0.35457450E-03</totfact>
</mgrwt>
</event>
<event>
 6    1  0.1831439E-005  0.2611472E+04  0.7818608E-02  0.8364315E-01
         -2   -1    0    0    0  501 -0.00000000000E+00  0.00000000000E+00  0.54227780393E+03  0.54227780393E+03  0.00000000000E+00 0.  1.
          2   -1    0    0  501    0  0.00000000000E+00 -0.00000000000E+00 -0.31440454238E+04  0.31440454238E+04  0.00000000000E+00 0. -1.
         23    2    1    2    0    0 -0.12715758298E+04  0.28683667816E+03 -0.13592282546E+04  0.18854666413E+04  0.91118803288E+02 0.  0.
         11    1    3    3    0    0 -0.50678345430E+03  0.73889531700E+02 -0.50346362006E+03  0.71816763306E+03  0.00000000000E+00 0. -1.
        -11    1    3    3    0    0 -0.76479237548E+03  0.21294714646E+03 -0.85576463457E+03  0.11672990082E+04  0.00000000000E+00 0.  1.
         22    1    1    2    0    0  0.12715758298E+04 -0.28683667816E+03 -0.12425393652E+04  0.18008565865E+04  0.00000000000E+00 0. -1.
<mgrwt>
<rscale>  0 0.26114717E+04</rscale>
<asrwt>0</asrwt>
<pdfrwt beam="1">  1        2 0.48369928E+00 0.26114717E+04</pdfrwt>
<pdfrwt beam="2">  1       -2 0.83427358E-01 0.26114717E+04</pdfrwt>
<totfact> 0.15664840E+00</totfact>
</mgrwt>
</event>
<event>
 6    1  0.1831439E-005  0.1642588E+04  0.7818608E-02  0.8794804E-01
         -2   -1    0    0    0  501 -0.00000000000E+00  0.00000000000E+00  0.46755438141E+03  0.46755438141E+03  0.00000000000E+00 0.  1.
          2   -1    0    0  501    0  0.00000000000E+00 -0.00000000000E+00 -0.14426631898E+04  0.14426631898E+04  0.00000000000E+00 0. -1.
         23    2    1    2    0    0  0.48736480450E+03 -0.38214470218E+03  0.13378682640E+03  0.64009609869E+03  0.90912455561E+02 0.  0.
         11    1    3    3    0    0  0.10038269410E+03 -0.12798172325E+03  0.43817071509E+02  0.16845160289E+03  0.00000000000E+00 0. -1.
        -11    1    3    3    0    0  0.38698211039E+03 -0.25416297893E+03  0.89969754891E+02  0.47164449580E+03  0.00000000000E+00 0.  1.
         22    1    1    2    0    0 -0.48736480450E+03  0.38214470218E+03 -0.11088956348E+04  0.12701214725E+04  0.00000000000E+00 0. -1.
<mgrwt>
<rscale>  0 0.16425876E+04</rscale>
<asrwt>0</asrwt>
<pdfrwt beam="1">  1        2 0.22194818E+00 0.16425876E+04</pdfrwt>
<pdfrwt beam="2">  1       -2 0.71931444E-01 0.16425876E+04</pdfrwt>
<totfact> 0.22898615E+01</totfact>
</mgrwt>
</event>
<event>
 6    1  0.1831439E-005  0.2844936E+04  0.7818608E-02  0.8289452E-01
         -2   -1    0    0    0  501 -0.00000000000E+00  0.00000000000E+00  0.83256302800E+03  0.83256302800E+03  0.00000000000E+00 0.  1.
          2   -1    0    0  501    0  0.00000000000E+00 -0.00000000000E+00 -0.24303453464E+04  0.24303453464E+04  0.00000000000E+00 0. -1.
         23    2    1    2    0    0  0.88611344183E+03 -0.10491933373E+04 -0.12183495944E+04  0.18381372058E+04  0.91482032192E+02 0.  0.
         11    1    3    3    0    0  0.18587538408E+03 -0.17576770540E+03 -0.25550687090E+03  0.36156286555E+03  0.00000000000E+00 0.  1.
        -11    1    3    3    0    0  0.70023805775E+03 -0.87342563189E+03 -0.96284272354E+03  0.14765743402E+04  0.00000000000E+00 0. -1.
         22    1    1    2    0    0 -0.88611344183E+03  0.10491933373E+04 -0.37943272392E+03  0.14247711686E+04  0.00000000000E+00 0.  1.
<mgrwt>
<rscale>  0 0.28449363E+04</rscale>
<asrwt>0</asrwt>
<pdfrwt beam="1">  1        2 0.37389928E+00 0.28449363E+04</pdfrwt>
<pdfrwt beam="2">  1       -2 0.12808662E+00 0.28449363E+04</pdfrwt>
<totfact> 0.14926744E+00</totfact>
</mgrwt>
</event>
<event>
 6    1  0.1831439E-005  0.1049649E+04  0.7818608E-02  0.9255707E-01
         -3   -1    0    0    0  501 -0.00000000000E+00  0.00000000000E+00  0.12315625947E+04  0.12315625947E+04  0.00000000000E+00 0.  1.
          3   -1    0    0  501    0  0.00000000000E+00 -0.00000000000E+00 -0.22365142735E+03  0.22365142735E+03  0.00000000000E+00 0. -1.
         23    2    1    2    0    0  0.21976160509E+03  0.38596636396E+03  0.13126633836E+03  0.47247735672E+03  0.93481569587E+02 0.  0.
         13    1    3    3    0    0  0.24041161223E+02  0.41722705751E+01  0.11880165079E+02  0.27138968237E+02  0.00000000000E+00 0. -1.
        -13    1    3    3    0    0  0.19572044386E+03  0.38179409338E+03  0.11938617328E+03  0.44533838849E+03  0.00000000000E+00 0.  1.
         22    1    1    2    0    0 -0.21976160509E+03 -0.38596636396E+03  0.87664482900E+03  0.98273666533E+03  0.00000000000E+00 0.  1.
<mgrwt>
<rscale>  0 0.10496490E+04</rscale>
<asrwt>0</asrwt>
<pdfrwt beam="1">  1        3 0.34407913E-01 0.10496490E+04</pdfrwt>
<pdfrwt beam="2">  1       -3 0.18947116E+00 0.10496490E+04</pdfrwt>
<totfact> 0.37314295E+00</totfact>
</mgrwt>
</event>
<event>
 6    1  0.1831439E-005  0.3129458E+04  0.7818608E-02  0.8207700E-01
          1   -1    0    0  501    0  0.00000000000E+00  0.00000000000E+00  0.15150223091E+04  0.15150223091E+04  0.00000000000E+00 0. -1.
         -1   -1    0    0    0  501 -0.00000000000E+00 -0.00000000000E+00 -0.16160660937E+04  0.16160660937E+04  0.00000000000E+00 0.  1.
         23    2    1    2    0    0 -0.96304667344E+03  0.77299580876E+03  0.90864116327E+03  0.15359567124E+04  0.92481582849E+02 0.  0.
         13    1    3    3    0    0 -0.40883937869E+03  0.38180704887E+03  0.43448726720E+03  0.70831168668E+03  0.00000000000E+00 0. -1.
        -13    1    3    3    0    0 -0.55420729475E+03  0.39118875988E+03  0.47415389608E+03  0.82764502571E+03  0.00000000000E+00 0.  1.
         22    1    1    2    0    0  0.96304667344E+03 -0.77299580876E+03 -0.10096849479E+04  0.15951316904E+04  0.00000000000E+00 0.  1.
<mgrwt>
<rscale>  0 0.31294576E+04</rscale>
<asrwt>0</asrwt>
<pdfrwt beam="1">  1        1 0.23308036E+00 0.31294576E+04</pdfrwt>
<pdfrwt beam="2">  1       -1 0.24862555E+00 0.31294576E+04</pdfrwt>
<totfact> 0.38262499E-01</totfact>
</mgrwt>
</event>
<event>
 6    1  0.1831439E-005  0.2491315E+04  0.7818608E-02  0.8406086E-01
         -2   -1    0    0    0  501 -0.00000000000E+00  0.00000000000E+00  0.78515171587E+03  0.78515171587E+03  0.00000000000E+00 0.  1.
          2   -1    0    0  501    0  0.00000000000E+00 -0.00000000000E+00 -0.19762586996E+04  0.19762586996E+04  0.00000000000E+00 0. -1.
         23    2    1    2    0    0  0.10378845136E+04 -0.72708220591E+02 -0.13523516276E+04  0.17085616210E+04  0.88527618005E+02 0.  0.
         11    1    3    3    0    0  0.46142957852E+03 -0.44596726140E+02 -0.53372800658E+03  0.70694533659E+03  0.00000000000E+00 0. -1.
        -11    1    3    3    0    0  0.57645493511E+03 -0.28111494451E+02 -0.81862362099E+03  0.10016162844E+04  0.00000000000E+00 0.  1.
         22    1    1    2    0    0 -0.10378845136E+04  0.72708220591E+02  0.16124464380E+03  0.10528487945E+04  0.00000000000E+00 0.  1.
<mgrwt>
<rscale>  0 0.24913152E+04</rscale>
<asrwt>0</asrwt>
<pdfrwt beam="1">  1        2 0.30403980E+00 0.24913152E+04</pdfrwt>
<pdfrwt beam="2">  1       -2 0.12079257E+00 0.24913152E+04</pdfrwt>
<totfact> 0.32111845E+00</totfact>
</mgrwt>
</event>
<event>
 6    1  0.1831439E-005  0.2747892E+04  0.7818608E-02  0.8319631E-01
          1   -1    0    0  501    0  0.00000000000E+00  0.00000000000E+00  0.23102833023E+04  0.23102833023E+04  0.00000000000E+00 0. -1.
         -1   -1    0    0    0  501 -0.00000000000E+00 -0.00000000000E+00 -0.81709800368E+03  0.81709800368E+03  0.00000000000E+00 0.  1.
         23    2    1    2    0    0  0.76117874911E+03  0.84609440323E+03  0.16203706090E+04  0.19821979449E+04  0.90768689622E+02 0.  0.
         11    1    3    3    0    0  0.71795437955E+03  0.77777099974E+03  0.14694442028E+04  0.18109810833E+04  0.00000000000E+00 0.  1.
        -11    1    3    3    0    0  0.43224369555E+02  0.68323403484E+02  0.15092640624E+03  0.17121686157E+03  0.00000000000E+00 0. -1.
         22    1    1    2    0    0 -0.76117874911E+03 -0.84609440323E+03 -0.12718531039E+03  0.11451833611E+04  0.00000000000E+00 0.  1.
<mgrwt>
<rscale>  0 0.27478922E+04</rscale>
<asrwt>0</asrwt>
<pdfrwt beam="1">  1        1 0.35542820E+00 0.27478922E+04</pdfrwt>
<pdfrwt beam="2">  1       -1 0.12570739E+00 0.27478922E+04</pdfrwt>
<totfact> 0.87839693E-01</totfact>
</mgrwt>
</event>
<event>
 6    1  0.1831439E-005  0.2690162E+04  0.7818608E-02  0.8338204E-01
          2   -1    0    0  501    0  0.00000000000E+00  0.00000000000E+00  0.19364006648E+04  0.19364006648E+04  0.00000000000E+00 0. -1.
         -2   -1    0    0    0  501 -0.00000000000E+00 -0.00000000000E+00 -0.93433325295E+03  0.93433325295E+03  0.00000000000E+00 0.  1.
         23    2    1    2    0    0 -0.34214310834E+03 -0.50298735420E+03  0.17798838883E+04  0.18832843462E+04  0.93354634261E+02 0.  0.
         13    1    3    3    0    0 -0.20883107493E+03 -0.37177544062E+03  0.13044893891E+04  0.13724139180E+04  0.00000000000E+00 0.  1.
        -13    1    3    3    0    0 -0.13331203341E+03 -0.13121191358E+03  0.47539449924E+03  0.51087042822E+03  0.00000000000E+00 0. -1.
         22    1    1    2    0    0  0.34214310834E+03  0.50298735420E+03 -0.77781647653E+03  0.98744957148E+03  0.00000000000E+00 0.  1.
<mgrwt>
<rscale>  0 0.26901625E+04</rscale>
<asrwt>0</asrwt>
<pdfrwt beam="1">  1        2 0.29790779E+00 0.26901625E+04</pdfrwt>
<pdfrwt beam="2">  1       -2 0.14374358E+00 0.26901625E+04</pdfrwt>
<totfact> 0.21336358E+00</totfact>
</mgrwt>
</event>
<event>
 6    1  0.1831439E-005  0.1878408E+04  0.7818608E-02  0.8665679E-01
         -2   -1    0    0    0  501 -0.00000000000E+00  0.00000000000E+00  0.32903309355E+03  0.32903309355E+03  0.00000000000E+00 0.  1.
          2   -1    0    0  501    0  0.00000000000E+00 -0.00000000000E+00 -0.26808991419E+04  0.26808991419E+04  0.00000000000E+00 0. -1.
         23    2    1    2    0    0 -0.69937298569E+03 -0.53837489009E+03 -0.67491162714E+03  0.11149002499E+04  0.92340497212E+02 0.  0.
         13    1    3    3    0    0 -0.44207281735E+03 -0.38744009319E+03 -0.47571004930E+03  0.75619987613E+03  0.00000000000E+00 0. -1.
        -13    1    3    3    0    0 -0.25730016834E+03 -0.15093479690E+03 -0.19920157784E+03  0.35870037379E+03  0.00000000000E+00 0.  1.
         22    1    1    2    0    0  0.69937298569E+03  0.53837489009E+03 -0.16769544212E+04  0.18950319855E+04  0.00000000000E+00 0.  1.
<mgrwt>
<rscale>  0 0.18784084E+04</rscale>
<asrwt>0</asrwt>
<pdfrwt beam="1">  1        2 0.41244600E+00 0.18784084E+04</pdfrwt>
<pdfrwt beam="2">  1       -2 0.50620479E-01 0.18784084E+04</pdfrwt>
<totfact> 0.94517195E+00</totfact>
</mgrwt>
</event>
<event>
 6    1  0.1831439E-005  0.2683281E+04  0.7818608E-02  0.8340450E-01
          2   -1    0    0  501    0  0.00000000000E+00  0.00000000000E+00  0.93189154280E+03  0.93189154280E+03  0.00000000000E+00 0. -1.
         -2   -1    0    0    0  501 -0.00000000000E+00 -0.00000000000E+00 -0.19315538667E+04  0.19315538667E+04  0.00000000000E+00 0.  1.
         23    2    1    2    0    0  0.12056855830E+04  0.54663976934E+03 -0.72264552860E+03  0.15109547192E+04  0.90966152175E+02 0.  0.
         13    1    3    3    0    0  0.40907977381E+03  0.14150183753E+03 -0.25254735546E+03  0.50114788049E+03  0.00000000000E+00 0. -1.
        -13    1    3    3    0    0  0.79660580921E+03  0.40513793181E+03 -0.47009817313E+03  0.10098068387E+04  0.00000000000E+00 0.  1.
         22    1    1    2    0    0 -0.12056855830E+04 -0.54663976934E+03 -0.27701679529E+03  0.13524906903E+04  0.00000000000E+00 0. -1.
<mgrwt>
<rscale>  0 0.26832806E+04</rscale>
<asrwt>0</asrwt>
<pdfrwt beam="1">  1        2 0.14336793E+00 0.26832806E+04</pdfrwt>
<pdfrwt beam="2">  1       -2 0.29716213E+00 0.26832806E+04</pdfrwt>
<totfact> 0.81113012E-01</totfact>
</mgrwt>
</event>
<event>
 6    1  0.1831439E-005  0.2772726E+04  0.7818608E-02  0.8311786E-01
         -2   -1    0    0    0  501 -0.00000000000E+00  0.00000000000E+00  0.85367932068E+03  0.85367932068E+03  0.00000000000E+00 0. -1.
          2   -1    0    0  501    0  0.00000000000E+00 -0.00000000000E+00 -0.22514344575E+04  0.22514344575E+04  0.00000000000E+00 0.  1.
         23    2    1    2    0    0 -0.25639827816E+03 -0.46183474911E+03  0.73399889647E+03  0.90888822715E+03  0.91060512355E+02 0.  0.
         11    1    3    3    0    0 -0.62878132213E+02 -0.17578519454E+03  0.31191376794E+03  0.36351656463E+03  0.00000000000E+00 0. -1.
        -11    1    3    3    0    0 -0.19352014595E+03 -0.28604955457E+03  0.42208512853E+03  0.54537166252E+03  0.00000000000E+00 0.  1.
         22    1    1    2    0    0  0.25639827816E+03  0.46183474911E+03 -0.21317540333E+04  0.21962255510E+04  0.00000000000E+00 0.  1.
<mgrwt>
<rscale>  0 0.27727265E+04</rscale>
<asrwt>0</asrwt>
<pdfrwt beam="1">  1        2 0.34637452E+00 0.27727265E+04</pdfrwt>
<pdfrwt beam="2">  1       -2 0.13133528E+00 0.27727265E+04</pdfrwt>
<totfact> 0.17824328E+00</totfact>
</mgrwt>
</event>
<event>
 6    1  0.1831439E-005  0.1127427E+04  0.7818608E-02  0.9178864E-01
          1   -1    0    0  501    0  0.00000000000E+00  0.00000000000E+00  0.78878089924E+03  0.78878089924E+03  0.00000000000E+00 0. -1.
         -1   -1    0    0    0  501 -0.00000000000E+00 -0.00000000000E+00 -0.40286603595E+03  0.40286603595E+03  0.00000000000E+00 0.  1.
         23    2    1    2    0    0  0.31374993099E+03  0.43927869777E+03  0.37659834696E+02  0.54924024279E+03  0.94030780272E+02 0.  0.
         11    1    3    3    0    0  0.80502511952E+01  0.47178463571E+02  0.19620871303E+02  0.51726130340E+02  0.00000000000E+00 0. -1.
        -11    1    3    3    0    0  0.30569967980E+03  0.39210023419E+03  0.18038963393E+02  0.49751411245E+03  0.00000000000E+00 0.  1.
         22    1    1    2    0    0 -0.31374993099E+03 -0.43927869777E+03  0.34825502860E+03  0.64240669241E+03  0.00000000000E+00 0. -1.
<mgrwt>
<rscale>  0 0.11274272E+04</rscale>
<asrwt>0</asrwt>
<pdfrwt beam="1">  1        1 0.12135091E+00 0.11274272E+04</pdfrwt>
<pdfrwt beam="2">  1       -1 0.61979390E-01 0.11274272E+04</pdfrwt>
<totfact> 0.59405266E+01</totfact>
</mgrwt>
</event>
<event>
 6    1  0.1831439E-005  0.2437565E+04  0.7818608E-02  0.8425572E-01
         -1   -1    0    0    0  501 -0.00000000000E+00  0.00000000000E+00  0.22455335295E+04  0.22455335295E+04  0.00000000000E+00 0.  1.
          1   -1    0    0  501    0  0.00000000000E+00 -0.00000000000E+00 -0.66150478108E+03  0.66150478108E+03  0.00000000000E+00 0. -1.
         23    2    1    2    0    0 -0.10427951866E+04  0.52969117683E+03  0.39229772291E+03  0.12372427000E+04  0.94220226694E+02 0.  0.
         13    1    3    3    0    0 -0.53161269124E+03  0.28805978782E+03  0.15602341660E+03  0.62444679628E+03  0.00000000000E+00 0. -1.
        -13    1    3    3    0    0 -0.51118249540E+03  0.24163138901E+03  0.23627430631E+03  0.61279590369E+03  0.00000000000E+00 0.  1.
         22    1    1    2    0    0  0.10427951866E+04 -0.52969117683E+03  0.11917310255E+04  0.16697956106E+04  0.00000000000E+00 0.  1.
<mgrwt>
<rscale>  0 0.24375653E+04</rscale>
<asrwt>0</asrwt>
<pdfrwt beam="1">  1        1 0.10176997E+00 0.24375653E+04</pdfrwt>
<pdfrwt beam="2">  1       -1 0.34546669E+00 0.24375653E+04</pdfrwt>
<totfact> 0.44143592E-01</totfact>
</mgrwt>
</event>
<event>
 6    1  0.1831439E-005  0.2044177E+04  0.7818608E-02  0.8586240E-01
          2   -1    0    0  501    0  0.00000000000E+00  0.00000000000E+00  0.55326578684E+03  0.55326578684E+03  0.00000000000E+00 0. -1.
         -2   -1    0    0    0  501 -0.00000000000E+00 -0.00000000000E+00 -0.18881798371E+04  0.18881798371E+04  0.00000000000E+00 0.  1.
         23    2    1    2    0    0  0.42637071535E+03 -0.85714724770E+03 -0.24829439320E+03  0.99326204780E+03  0.91793239148E+02 0.  0.
         11    1    3    3    0    0  0.27941688331E+03 -0.56370205030E+03 -0.11780978289E+03  0.64008822918E+03  0.00000000000E+00 0. -1.
        -11    1    3    3    0    0  0.14695383204E+03 -0.29344519740E+03 -0.13048461032E+03  0.35317381862E+03  0.00000000000E+00 0.  1.
         22    1    1    2    0    0 -0.42637071535E+03  0.85714724770E+03 -0.10866196571E+04  0.14481835762E+04  0.00000000000E+00 0.  1.
<mgrwt>
<rscale>  0 0.20441774E+04</rscale>
<asrwt>0</asrwt>
<pdfrwt beam="1">  1        2 0.85117813E-01 0.20441774E+04</pdfrwt>
<pdfrwt beam="2">  1       -2 0.29048921E+00 0.20441774E+04</pdfrwt>
<totfact> 0.18402133E+00</totfact>
</mgrwt>
</event>
<event>
 6    1  0.1831439E-005  0.1392598E+04  0.7818608E-02  0.8959194E-01
         -2   -1    0    0    0  501 -0.00000000000E+00  0.00000000000E+00  0.20616381562E+03  0.20616381562E+03  0.00000000000E+00 0.  1.
          2   -1    0    0  501    0  0.00000000000E+00 -0.00000000000E+00 -0.23516863768E+04  0.23516863768E+04  0.00000000000E+00 0. -1.
         23    2    1    2    0    0 -0.53221482347E+02 -0.36627294906E+03 -0.68007894940E-01  0.38070443716E+03  0.89148552754E+02 0.  0.
         11    1    3    3    0    0 -0.42022516532E+02 -0.58605874679E+02 -0.91933326562E+01  0.72698403063E+02  0.00000000000E+00 0. -1.
        -11    1    3    3    0    0 -0.11198965815E+02 -0.30766707438E+03  0.91253247613E+01  0.30800603410E+03  0.00000000000E+00 0.  1.
         22    1    1    2    0    0  0.53221482347E+02  0.36627294906E+03 -0.21454545533E+04  0.21771457552E+04  0.00000000000E+00 0. -1.
<mgrwt>
<rscale>  0 0.13925985E+04</rscale>
<asrwt>0</asrwt>
<pdfrwt beam="1">  1        2 0.36179791E+00 0.13925985E+04</pdfrwt>
<pdfrwt beam="2">  1       -2 0.31717510E-01 0.13925985E+04</pdfrwt>
<totfact> 0.38208988E+01</totfact>
</mgrwt>
</event>
<event>
 6    1  0.1831439E-005  0.1784293E+04  0.7818608E-02  0.8714697E-01
         -1   -1    0    0    0  501 -0.00000000000E+00  0.00000000000E+00  0.10428215968E+04  0.10428215968E+04  0.00000000000E+00 0.  1.
          1   -1    0    0  501    0  0.00000000000E+00 -0.00000000000E+00 -0.76324227170E+03  0.76324227170E+03  0.00000000000E+00 0. -1.
         23    2    1    2    0    0 -0.71430878435E+03 -0.52920313137E+03  0.10766660049E+03  0.90060985057E+03  0.95984438463E+02 0.  0.
         11    1    3    3    0    0 -0.16715695250E+03 -0.15332414416E+03  0.62369023667E+02  0.23524377795E+03  0.00000000000E+00 0. -1.
        -11    1    3    3    0    0 -0.54715183186E+03 -0.37587898721E+03  0.45297576825E+02  0.66536607262E+03  0.00000000000E+00 0.  1.
         22    1    1    2    0    0  0.71430878435E+03  0.52920313137E+03  0.17191272457E+03  0.90545401789E+03  0.00000000000E+00 0. -1.
<mgrwt>
<rscale>  0 0.17842932E+04</rscale>
<asrwt>0</asrwt>
<pdfrwt beam="1">  1        1 0.11742189E+00 0.17842932E+04</pdfrwt>
<pdfrwt beam="2">  1       -1 0.16043409E+00 0.17842932E+04</pdfrwt>
<totfact> 0.65303329E+00</totfact>
</mgrwt>
</event>
<event>
 6    1  0.1831439E-005  0.2948508E+04  0.7818608E-02  0.8258590E-01
         -2   -1    0    0    0  501 -0.00000000000E+00  0.00000000000E+00  0.50385086970E+03  0.50385086970E+03  0.00000000000E+00 0.  1.
          2   -1    0    0  501    0  0.00000000000E+00 -0.00000000000E+00 -0.43136259300E+04  0.43136259300E+04  0.00000000000E+00 0. -1.
         23    2    1    2    0    0 -0.43965181379E+03  0.77584997932E+03 -0.38218319393E+04  0.39256347307E+04  0.94719369100E+02 0.  0.
         11    1    3    3    0    0 -0.41841546155E+03  0.73419585558E+03 -0.35085601080E+04  0.36088930552E+04  0.00000000000E+00 0.  1.
        -11    1    3    3    0    0 -0.21236352238E+02  0.41654123739E+02 -0.31327183129E+03  0.31674167544E+03  0.00000000000E+00 0. -1.
         22    1    1    2    0    0  0.43965181379E+03 -0.77584997932E+03  0.12056878963E+02  0.89184206904E+03  0.00000000000E+00 0.  1.
<mgrwt>
<rscale>  0 0.29485075E+04</rscale>
<asrwt>0</asrwt>
<pdfrwt beam="1">  1        2 0.66363479E+00 0.29485075E+04</pdfrwt>
<pdfrwt beam="2">  1       -2 0.77515515E-01 0.29485075E+04</pdfrwt>
<totfact> 0.23510740E-01</totfact>
</mgrwt>
</event>
<event>
 6    1  0.1831439E-005  0.2212153E+04  0.7818608E-02  0.8513387E-01
         -1   -1    0    0    0  501 -0.00000000000E+00  0.00000000000E+00  0.10517465993E+04  0.10517465993E+04  0.00000000000E+00 0.  1.
          1   -1    0    0  501    0  0.00000000000E+00 -0.00000000000E+00 -0.11632128170E+04  0.11632128170E+04  0.00000000000E+00 0. -1.
         23    2    1    2    0    0 -0.68721945834E+02 -0.32429577933E+03  0.99881852011E+03  0.10562434642E+04  0.90118595872E+02 0.  0.
         11    1    3    3    0    0 -0.29167489561E+02 -0.20165509556E+03  0.47594249996E+03  0.51772268956E+03  0.00000000000E+00 0. -1.
        -11    1    3    3    0    0 -0.39554456273E+02 -0.12264068376E+03  0.52287602015E+03  0.53852077468E+03  0.00000000000E+00 0.  1.
         22    1    1    2    0    0  0.68721945834E+02  0.32429577933E+03 -0.11102847379E+04  0.11587159520E+04  0.00000000000E+00 0. -1.
<mgrwt>
<rscale>  0 0.22121529E+04</rscale>
<asrwt>0</asrwt>
<pdfrwt beam="1">  1        1 0.17895582E+00 0.22121529E+04</pdfrwt>
<pdfrwt beam="2">  1       -1 0.16180717E+00 0.22121529E+04</pdfrwt>
<totfact> 0.29334686E+00</totfact>
</mgrwt>
</event>
<event>
 6    1  0.1831439E-005  0.1144520E+04  0.7818608E-02  0.9162854E-01
         -1   -1    0    0    0  501 -0.00000000000E+00  0.00000000000E+00  0.65559244801E+03  0.65559244801E+03  0.00000000000E+00 0.  1.
          1   -1    0    0  501    0  0.00000000000E+00 -0.00000000000E+00 -0.49952010261E+03  0.49952010261E+03  0.00000000000E+00 0. -1.
         23    2    1    2    0    0 -0.27062345301E+03 -0.36434777893E+03 -0.26734390935E+03  0.53441320140E+03  0.90212785303E+02 0.  0.
         11    1    3    3    0    0 -0.92253304364E+02 -0.72370534624E+02 -0.97153375723E+02  0.15227260050E+03  0.00000000000E+00 0. -1.
        -11    1    3    3    0    0 -0.17837014864E+03 -0.29197724431E+03 -0.17019053363E+03  0.38214060090E+03  0.00000000000E+00 0.  1.
         22    1    1    2    0    0  0.27062345301E+03  0.36434777893E+03  0.42341625476E+03  0.62069934922E+03  0.00000000000E+00 0.  1.
<mgrwt>
<rscale>  0 0.11445202E+04</rscale>
<asrwt>0</asrwt>
<pdfrwt beam="1">  1        1 0.76849247E-01 0.11445202E+04</pdfrwt>
<pdfrwt beam="2">  1       -1 0.10086038E+00 0.11445202E+04</pdfrwt>
<totfact> 0.41231351E+01</totfact>
</mgrwt>
</event>
<event>
 6    1  0.1831439E-005  0.1598128E+04  0.7818608E-02  0.8821699E-01
         -1   -1    0    0    0  501 -0.00000000000E+00  0.00000000000E+00  0.10045548749E+04  0.10045548749E+04  0.00000000000E+00 0.  1.
          1   -1    0    0  501    0  0.00000000000E+00 -0.00000000000E+00 -0.63560799802E+03  0.63560799802E+03  0.00000000000E+00 0. -1.
         23    2    1    2    0    0  0.30242765632E+03 -0.10445702584E+03  0.93377140976E+03  0.99100918506E+03  0.88297234642E+02 0.  0.
         11    1    3    3    0    0  0.18899405092E+03 -0.10230725363E+03  0.53918222602E+03  0.58043345724E+03  0.00000000000E+00 0.  1.
        -11    1    3    3    0    0  0.11343360540E+03 -0.21497722102E+01  0.39458918374E+03  0.41057572783E+03  0.00000000000E+00 0. -1.
         22    1    1    2    0    0 -0.30242765632E+03  0.10445702584E+03 -0.56482453286E+03  0.64915368787E+03  0.00000000000E+00 0. -1.
<mgrwt>
<rscale>  0 0.15981278E+04</rscale>
<asrwt>0</asrwt>
<pdfrwt beam="1">  1        1 0.97785846E-01 0.15981278E+04</pdfrwt>
<pdfrwt beam="2">  1       -1 0.15454690E+00 0.15981278E+04</pdfrwt>
<totfact> 0.97196235E+00</totfact>
</mgrwt>
</event>
<event>
 6    1  0.1831439E-005  0.4791233E+04  0.7818608E-02  0.7861544E-01
         -1   -1    0    0    0  501 -0.00000000000E+00  0.00000000000E+00  0.50904676489E+04  0.50904676489E+04  0.00000000000E+00 0.  1.
          1   -1    0    0  501    0  0.00000000000E+00 -0.00000000000E+00 -0.11273970756E+04  0.11273970756E+04  0.00000000000E+00 0. -1.
         23    2    1    2    0    0  0.20005395307E+04 -0.13144123273E+04  0.19195930268E+04  0.30705422651E+04  0.11642264876E+03 0.  0.
         13    1    3    3    0    0  0.67121630881E+03 -0.43512526480E+03  0.57212899538E+03  0.98346170064E+03  0.00000000000E+00 0. -1.
        -13    1    3    3    0    0  0.13293232219E+04 -0.87928706246E+03  0.13474640314E+04  0.20870805644E+04  0.00000000000E+00 0.  1.
         22    1    1    2    0    0 -0.20005395307E+04  0.13144123273E+04  0.20434775465E+04  0.31473224594E+04  0.00000000000E+00 0. -1.
<mgrwt>
<rscale>  0 0.47912330E+04</rscale>
<asrwt>0</asrwt>
<pdfrwt beam="1">  1        1 0.17344571E+00 0.47912330E+04</pdfrwt>
<pdfrwt beam="2">  1       -1 0.78314886E+00 0.47912330E+04</pdfrwt>
<totfact> 0.77934760E-04</totfact>
</mgrwt>
</event>
<event>
 6    1  0.1831439E-005  0.1379318E+04  0.7818608E-02  0.8968926E-01
         -3   -1    0    0    0  501 -0.00000000000E+00  0.00000000000E+00  0.38056644234E+03  0.38056644234E+03  0.00000000000E+00 0.  1.
          3   -1    0    0  501    0  0.00000000000E+00 -0.00000000000E+00 -0.12497944888E+04  0.12497944888E+04  0.00000000000E+00 0. -1.
         23    2    1    2    0    0  0.40748018167E+03 -0.61424628424E+02  0.21289000985E+03  0.47243495285E+03  0.89774968361E+02 0.  0.
         13    1    3    3    0    0  0.97334267120E+02 -0.50667866786E+02  0.74571877525E+02  0.13267312161E+03  0.00000000000E+00 0.  1.
        -13    1    3    3    0    0  0.31014591455E+03 -0.10756761638E+02  0.13831813232E+03  0.33976183124E+03  0.00000000000E+00 0. -1.
         22    1    1    2    0    0 -0.40748018167E+03  0.61424628424E+02 -0.10821180563E+04  0.11579259783E+04  0.00000000000E+00 0. -1.
<mgrwt>
<rscale>  0 0.13793184E+04</rscale>
<asrwt>0</asrwt>
<pdfrwt beam="1">  1        3 0.19227608E+00 0.13793184E+04</pdfrwt>
<pdfrwt beam="2">  1       -3 0.58548683E-01 0.13793184E+04</pdfrwt>
<totfact> 0.12055449E+00</totfact>
</mgrwt>
</event>
<event>
 6    1  0.1831439E-005  0.6657024E+04  0.7818608E-02  0.7613879E-01
          2   -1    0    0  501    0  0.00000000000E+00  0.00000000000E+00  0.51709836841E+04  0.51709836841E+04  0.00000000000E+00 0.  1.
         -2   -1    0    0    0  501 -0.00000000000E+00 -0.00000000000E+00 -0.21425305940E+04  0.21425305940E+04  0.00000000000E+00 0. -1.
         23    2    1    2    0    0 -0.94192307049E+03  0.31830875983E+04  0.17724740025E+04  0.37643243427E+04  0.95958004427E+02 0.  0.
         11    1    3    3    0    0 -0.57568039849E+03  0.17861738849E+04  0.10185077002E+04  0.21352243450E+04  0.00000000000E+00 0. -1.
        -11    1    3    3    0    0 -0.36624267200E+03  0.13969137134E+04  0.75396630229E+03  0.16290999977E+04  0.00000000000E+00 0.  1.
         22    1    1    2    0    0  0.94192307049E+03 -0.31830875983E+04  0.12559790876E+04  0.35491899354E+04  0.00000000000E+00 0.  1.
<mgrwt>
<rscale>  0 0.66570236E+04</rscale>
<asrwt>0</asrwt>
<pdfrwt beam="1">  1        2 0.79553595E+00 0.66570236E+04</pdfrwt>
<pdfrwt beam="2">  1       -2 0.32962009E+00 0.66570236E+04</pdfrwt>
<totfact> 0.26327827E-04</totfact>
</mgrwt>
</event>
<event>
 6    1  0.1831439E-005  0.2445019E+04  0.7818608E-02  0.8422839E-01
          1   -1    0    0  501    0  0.00000000000E+00  0.00000000000E+00  0.74972870038E+03  0.74972870038E+03  0.00000000000E+00 0. -1.
         -1   -1    0    0    0  501 -0.00000000000E+00 -0.00000000000E+00 -0.19934276243E+04  0.19934276243E+04  0.00000000000E+00 0.  1.
         23    2    1    2    0    0  0.11390140217E+03 -0.10928839950E+04 -0.12194445663E+04  0.16440852488E+04  0.92748580467E+02 0.  0.
         13    1    3    3    0    0  0.51265153728E+02 -0.34908650361E+03 -0.33207495399E+03  0.48452376418E+03  0.00000000000E+00 0. -1.
        -13    1    3    3    0    0  0.62636248439E+02 -0.74379749142E+03 -0.88736961228E+03  0.11595614846E+04  0.00000000000E+00 0.  1.
         22    1    1    2    0    0 -0.11390140217E+03  0.10928839950E+04 -0.24254357684E+02  0.10990710759E+04  0.00000000000E+00 0. -1.
<mgrwt>
<rscale>  0 0.24450193E+04</rscale>
<asrwt>0</asrwt>
<pdfrwt beam="1">  1        1 0.11534288E+00 0.24450193E+04</pdfrwt>
<pdfrwt beam="2">  1       -1 0.30668117E+00 0.24450193E+04</pdfrwt>
<totfact> 0.65387217E-01</totfact>
</mgrwt>
</event>
<event>
 6    1  0.1831439E-005  0.5827612E+04  0.7818608E-02  0.7712151E-01
          2   -1    0    0  501    0  0.00000000000E+00  0.00000000000E+00  0.34883742153E+04  0.34883742153E+04  0.00000000000E+00 0.  1.
         -2   -1    0    0    0  501 -0.00000000000E+00 -0.00000000000E+00 -0.24338744440E+04  0.24338744440E+04  0.00000000000E+00 0. -1.
         23    2    1    2    0    0  0.21987647496E+04 -0.45789409157E+03 -0.13580177003E+04  0.26261185081E+04  0.89738069740E+02 0.  0.
         11    1    3    3    0    0  0.16999772998E+04 -0.36540141686E+03 -0.10088860084E+04  0.20102964938E+04  0.00000000000E+00 0. -1.
        -11    1    3    3    0    0  0.49878744982E+03 -0.92492674712E+02 -0.34913169190E+03  0.61582201427E+03  0.00000000000E+00 0.  1.
         22    1    1    2    0    0 -0.21987647496E+04  0.45789409157E+03  0.24125174716E+04  0.32961301512E+04  0.00000000000E+00 0.  1.
<mgrwt>
<rscale>  0 0.58276118E+04</rscale>
<asrwt>0</asrwt>
<pdfrwt beam="1">  1        2 0.53667295E+00 0.58276118E+04</pdfrwt>
<pdfrwt beam="2">  1       -2 0.37444222E+00 0.58276118E+04</pdfrwt>
<totfact> 0.61335965E-03</totfact>
</mgrwt>
</event>
<event>
 6    1  0.1831439E-005  0.1172503E+04  0.7818608E-02  0.9137271E-01
          1   -1    0    0  501    0  0.00000000000E+00  0.00000000000E+00  0.12109196108E+04  0.12109196108E+04  0.00000000000E+00 0. -1.
         -1   -1    0    0    0  501 -0.00000000000E+00 -0.00000000000E+00 -0.28382614076E+03  0.28382614076E+03  0.00000000000E+00 0.  1.
         23    2    1    2    0    0  0.19953719259E+03  0.10151873419E+03  0.11521096053E+04  0.11773289817E+04  0.92875420268E+02 0.  0.
         13    1    3    3    0    0  0.19928741720E+03  0.70729201072E+02  0.99286822472E+03  0.10151381217E+04  0.00000000000E+00 0.  1.
        -13    1    3    3    0    0  0.24977538785E+00  0.30789533117E+02  0.15924138063E+03  0.16219085992E+03  0.00000000000E+00 0. -1.
         22    1    1    2    0    0 -0.19953719259E+03 -0.10151873419E+03 -0.22501613535E+03  0.31741676986E+03  0.00000000000E+00 0.  1.
<mgrwt>
<rscale>  0 0.11725027E+04</rscale>
<asrwt>0</asrwt>
<pdfrwt beam="1">  1        1 0.18629532E+00 0.11725027E+04</pdfrwt>
<pdfrwt beam="2">  1       -1 0.43665561E-01 0.11725027E+04</pdfrwt>
<totfact> 0.53866266E+01</totfact>
</mgrwt>
</event>
<event>
 6    1  0.1831439E-005  0.3634716E+04  0.7818608E-02  0.8082586E-01
         -2   -1    0    0    0  501 -0.00000000000E+00  0.00000000000E+00  0.16448471934E+04  0.16448471934E+04  0.00000000000E+00 0.  1.
          2   -1    0    0  501    0  0.00000000000E+00 -0.00000000000E+00 -0.20079614855E+04  0.20079614855E+04  0.00000000000E+00 0. -1.
         23    2    1    2    0    0 -0.60981708929E+03 -0.12563028216E+04 -0.13487007227E+04  0.19435532053E+04  0.90729049835E+02 0.  0.
         11    1    3    3    0    0 -0.30256601292E+03 -0.54948178988E+03 -0.64914366947E+03  0.90269814068E+03  0.00000000000E+00 0.  1.
        -11    1    3    3    0    0 -0.30725107637E+03 -0.70682103177E+03 -0.69955705319E+03  0.10408550646E+04  0.00000000000E+00 0. -1.
         22    1    1    2    0    0  0.60981708929E+03  0.12563028216E+04  0.98558643057E+03  0.17092554736E+04  0.00000000000E+00 0.  1.
<mgrwt>
<rscale>  0 0.36347158E+04</rscale>
<asrwt>0</asrwt>
<pdfrwt beam="1">  1        2 0.30891715E+00 0.36347158E+04</pdfrwt>
<pdfrwt beam="2">  1       -2 0.25305342E+00 0.36347158E+04</pdfrwt>
<totfact> 0.33080358E-01</totfact>
</mgrwt>
</event>
<event>
 6    1  0.1831439E-005  0.7880651E+03  0.7818608E-02  0.9577455E-01
          2   -1    0    0  501    0  0.00000000000E+00  0.00000000000E+00  0.53288315489E+03  0.53288315489E+03  0.00000000000E+00 0. -1.
         -2   -1    0    0    0  501 -0.00000000000E+00 -0.00000000000E+00 -0.29136154885E+03  0.29136154885E+03  0.00000000000E+00 0.  1.
         23    2    1    2    0    0  0.26195921636E+03  0.26371551790E+03  0.33394076304E+01  0.38277073501E+03  0.91289531280E+02 0.  0.
         11    1    3    3    0    0  0.94023597012E+01  0.52675211697E+02  0.38455085283E+01  0.53645784840E+02  0.00000000000E+00 0. -1.
        -11    1    3    3    0    0  0.25255685666E+03  0.21104030620E+03 -0.50610089786E+00  0.32912495017E+03  0.00000000000E+00 0.  1.
         22    1    1    2    0    0 -0.26195921636E+03 -0.26371551790E+03  0.23818219841E+03  0.44147396872E+03  0.00000000000E+00 0.  1.
<mgrwt>
<rscale>  0 0.78806513E+03</rscale>
<asrwt>0</asrwt>
<pdfrwt beam="1">  1        2 0.81982024E-01 0.78806513E+03</pdfrwt>
<pdfrwt beam="2">  1       -2 0.44824854E-01 0.78806513E+03</pdfrwt>
<totfact> 0.27160460E+02</totfact>
</mgrwt>
</event>
<event>
 6    1  0.1831439E-005  0.1024872E+04  0.7818608E-02  0.9281679E-01
          1   -1    0    0  501    0  0.00000000000E+00  0.00000000000E+00  0.12393866653E+04  0.12393866653E+04  0.00000000000E+00 0. -1.
         -1   -1    0    0    0  501 -0.00000000000E+00 -0.00000000000E+00 -0.21187145825E+03  0.21187145825E+03  0.00000000000E+00 0.  1.
         23    2    1    2    0    0  0.23571689763E+03 -0.25360174119E+03 -0.99537943506E+01  0.35754050560E+03  0.88655717003E+02 0.  0.
         13    1    3    3    0    0  0.92064517173E+02 -0.10719002488E+03  0.39162431675E+02  0.14662630327E+03  0.00000000000E+00 0. -1.
        -13    1    3    3    0    0  0.14365238046E+03 -0.14641171631E+03 -0.49116226026E+02  0.21091420233E+03  0.00000000000E+00 0.  1.
         22    1    1    2    0    0 -0.23571689763E+03  0.25360174119E+03  0.10374690014E+04  0.10937176180E+04  0.00000000000E+00 0. -1.
<mgrwt>
<rscale>  0 0.10248720E+04</rscale>
<asrwt>0</asrwt>
<pdfrwt beam="1">  1        1 0.19067487E+00 0.10248720E+04</pdfrwt>
<pdfrwt beam="2">  1       -1 0.32595610E-01 0.10248720E+04</pdfrwt>
<totfact> 0.88156083E+01</totfact>
</mgrwt>
</event>
<event>
 6    1  0.1831439E-005  0.4054984E+04  0.7818608E-02  0.7993545E-01
         -2   -1    0    0    0  501 -0.00000000000E+00  0.00000000000E+00  0.99275806249E+03  0.99275806249E+03  0.00000000000E+00 0.  1.
          2   -1    0    0  501    0  0.00000000000E+00 -0.00000000000E+00 -0.41407105197E+04  0.41407105197E+04  0.00000000000E+00 0. -1.
         23    2    1    2    0    0 -0.99772308878E+03  0.75823732156E+03 -0.35909596655E+04  0.38043220198E+04  0.86599731008E+02 0.  0.
         11    1    3    3    0    0 -0.41800512835E+03  0.28130157647E+03 -0.13490634234E+04  0.14400802008E+04  0.00000000000E+00 0. -1.
        -11    1    3    3    0    0 -0.57971796043E+03  0.47693574509E+03 -0.22418962421E+04  0.23642418190E+04  0.00000000000E+00 0.  1.
         22    1    1    2    0    0  0.99772308878E+03 -0.75823732156E+03  0.44300720829E+03  0.13291465624E+04  0.00000000000E+00 0.  1.
<mgrwt>
<rscale>  0 0.40549840E+04</rscale>
<asrwt>0</asrwt>
<pdfrwt beam="1">  1        2 0.63703239E+00 0.40549840E+04</pdfrwt>
<pdfrwt beam="2">  1       -2 0.15273201E+00 0.40549840E+04</pdfrwt>
<totfact> 0.58377282E-02</totfact>
</mgrwt>
</event>
<event>
 6    1  0.1831439E-005  0.3642011E+04  0.7818608E-02  0.8080936E-01
         -1   -1    0    0    0  501 -0.00000000000E+00  0.00000000000E+00  0.14293853997E+04  0.14293853997E+04  0.00000000000E+00 0.  1.
          1   -1    0    0  501    0  0.00000000000E+00 -0.00000000000E+00 -0.23199205958E+04  0.23199205958E+04  0.00000000000E+00 0. -1.
         23    2    1    2    0    0 -0.17335691330E+04 -0.25342509315E+02  0.12412762503E+03  0.17404643336E+04  0.88905835027E+02 0.  0.
         11    1    3    3    0    0 -0.52339484651E+03 -0.41601293620E+02  0.14818502469E+02  0.52525462492E+03  0.00000000000E+00 0. -1.
        -11    1    3    3    0    0 -0.12101742865E+04  0.16258784304E+02  0.10930912256E+03  0.12152097087E+04  0.00000000000E+00 0.  1.
         22    1    1    2    0    0  0.17335691330E+04  0.25342509315E+02 -0.10146628211E+04  0.20088416619E+04  0.00000000000E+00 0. -1.
<mgrwt>
<rscale>  0 0.36420108E+04</rscale>
<asrwt>0</asrwt>
<pdfrwt beam="1">  1        1 0.35691086E+00 0.36420108E+04</pdfrwt>
<pdfrwt beam="2">  1       -1 0.21990545E+00 0.36420108E+04</pdfrwt>
<totfact> 0.16025430E-01</totfact>
</mgrwt>
</event>
<event>
 6    1  0.1831439E-005  0.1190378E+04  0.7818608E-02  0.9121320E-01
          1   -1    0    0  501    0  0.00000000000E+00  0.00000000000E+00  0.39460542925E+03  0.39460542925E+03  0.00000000000E+00 0. -1.
         -1   -1    0    0    0  501 -0.00000000000E+00 -0.00000000000E+00 -0.89773231088E+03  0.89773231088E+03  0.00000000000E+00 0.  1.
         23    2    1    2    0    0  0.90161126048E+02 -0.38071374498E+03 -0.73498125642E+03  0.83755379652E+03  0.90702428336E+02 0.  0.
         13    1    3    3    0    0  0.34962359635E+02 -0.30728633915E+03 -0.58357202213E+03  0.66045708856E+03  0.00000000000E+00 0. -1.
        -13    1    3    3    0    0  0.55198766413E+02 -0.73427405832E+02 -0.15140923429E+03  0.17709670795E+03  0.00000000000E+00 0.  1.
         22    1    1    2    0    0 -0.90161126048E+02  0.38071374498E+03  0.23185437479E+03  0.45478394362E+03  0.00000000000E+00 0. -1.
<mgrwt>
<rscale>  0 0.11903782E+04</rscale>
<asrwt>0</asrwt>
<pdfrwt beam="1">  1        1 0.60708528E-01 0.11903782E+04</pdfrwt>
<pdfrwt beam="2">  1       -1 0.13811266E+00 0.11903782E+04</pdfrwt>
<totfact> 0.26281636E+01</totfact>
</mgrwt>
</event>
<event>
 6    1  0.1831439E-005  0.2446163E+04  0.7818608E-02  0.8422420E-01
         -1   -1    0    0    0  501 -0.00000000000E+00  0.00000000000E+00  0.14205053119E+04  0.14205053119E+04  0.00000000000E+00 0.  1.
          1   -1    0    0  501    0  0.00000000000E+00 -0.00000000000E+00 -0.10530961039E+04  0.10530961039E+04  0.00000000000E+00 0. -1.
         23    2    1    2    0    0 -0.65937384188E+03 -0.47635569991E+03 -0.73745992301E+03  0.11015866881E+04  0.89204692789E+02 0.  0.
         11    1    3    3    0    0 -0.40356408054E+03 -0.29427557083E+03 -0.51020786572E+03  0.71398469517E+03  0.00000000000E+00 0. -1.
        -11    1    3    3    0    0 -0.25580976134E+03 -0.18208012908E+03 -0.22725205729E+03  0.38760199296E+03  0.00000000000E+00 0.  1.
         22    1    1    2    0    0  0.65937384188E+03  0.47635569991E+03  0.11048691311E+04  0.13720147277E+04  0.00000000000E+00 0.  1.
<mgrwt>
<rscale>  0 0.24461632E+04</rscale>
<asrwt>0</asrwt>
<pdfrwt beam="1">  1        1 0.16201479E+00 0.24461632E+04</pdfrwt>
<pdfrwt beam="2">  1       -1 0.21853928E+00 0.24461632E+04</pdfrwt>
<totfact> 0.13827788E+00</totfact>
</mgrwt>
</event>
<event>
 6    1  0.1831439E-005  0.2415721E+04  0.7818608E-02  0.8433641E-01
          1   -1    0    0  501    0  0.00000000000E+00  0.00000000000E+00  0.19464669025E+04  0.19464669025E+04  0.00000000000E+00 0. -1.
         -1   -1    0    0    0  501 -0.00000000000E+00 -0.00000000000E+00 -0.74952585902E+03  0.74952585902E+03  0.00000000000E+00 0.  1.
         23    2    1    2    0    0  0.13652434776E+02  0.11423055602E+04  0.16756373174E+03  0.11582456978E+04  0.91690296455E+02 0.  0.
         11    1    3    3    0    0  0.47997996599E+02  0.55517261827E+03  0.61576444433E+02  0.56063544507E+03  0.00000000000E+00 0. -1.
        -11    1    3    3    0    0 -0.34345561823E+02  0.58713294196E+03  0.10598728731E+03  0.59761025277E+03  0.00000000000E+00 0.  1.
         22    1    1    2    0    0 -0.13652434776E+02 -0.11423055602E+04  0.10293773117E+04  0.15377470636E+04  0.00000000000E+00 0. -1.
<mgrwt>
<rscale>  0 0.24157212E+04</rscale>
<asrwt>0</asrwt>
<pdfrwt beam="1">  1        1 0.29945644E+00 0.24157212E+04</pdfrwt>
<pdfrwt beam="2">  1       -1 0.11531167E+00 0.24157212E+04</pdfrwt>
<totfact> 0.19770224E+00</totfact>
</mgrwt>
</event>
<event>
 6    1  0.1831439E-005  0.1479199E+04  0.7818608E-02  0.8898404E-01
          2   -1    0    0  501    0  0.00000000000E+00  0.00000000000E+00  0.20354240009E+04  0.20354240009E+04  0.00000000000E+00 0. -1.
         -2   -1    0    0    0  501 -0.00000000000E+00 -0.00000000000E+00 -0.26874388019E+03  0.26874388019E+03  0.00000000000E+00 0.  1.
         23    2    1    2    0    0  0.46386426105E+03  0.14926582252E+03  0.17473949315E+04  0.18164976472E+04  0.93937837661E+02 0.  0.
         13    1    3    3    0    0  0.13502725012E+03  0.36877309441E+02  0.66923688636E+03  0.68371800056E+03  0.00000000000E+00 0.  1.
        -13    1    3    3    0    0  0.32883701093E+03  0.11238851308E+03  0.10781580451E+04  0.11327796467E+04  0.00000000000E+00 0. -1.
         22    1    1    2    0    0 -0.46386426105E+03 -0.14926582252E+03  0.19285189202E+02  0.48767023384E+03  0.00000000000E+00 0.  1.
<mgrwt>
<rscale>  0 0.14791994E+04</rscale>
<asrwt>0</asrwt>
<pdfrwt beam="1">  1        2 0.31314214E+00 0.14791994E+04</pdfrwt>
<pdfrwt beam="2">  1       -2 0.41345214E-01 0.14791994E+04</pdfrwt>
<totfact> 0.34256692E+01</totfact>
</mgrwt>
</event>
<event>
 6    1  0.1831439E-005  0.2452577E+04  0.7818608E-02  0.8420078E-01
         -2   -1    0    0    0  501 -0.00000000000E+00  0.00000000000E+00  0.79788890465E+03  0.79788890465E+03  0.00000000000E+00 0.  1.
          2   -1    0    0  501    0  0.00000000000E+00 -0.00000000000E+00 -0.18847027976E+04  0.18847027976E+04  0.00000000000E+00 0. -1.
         23    2    1    2    0    0  0.38920727141E+03 -0.10864544596E+04 -0.95992887020E+02  0.11615421111E+04  0.89999158784E+02 0.  0.
         11    1    3    3    0    0  0.17688832021E+02 -0.13442671288E+03 -0.14056045087E+02  0.13631217230E+03  0.00000000000E+00 0.  1.
        -11    1    3    3    0    0  0.37151843939E+03 -0.95202774673E+03 -0.81936841932E+02  0.10252299388E+04  0.00000000000E+00 0. -1.
         22    1    1    2    0    0 -0.38920727141E+03  0.10864544596E+04 -0.99082100588E+03  0.15210495911E+04  0.00000000000E+00 0. -1.
<mgrwt>
<rscale>  0 0.24525770E+04</rscale>
<asrwt>0</asrwt>
<pdfrwt beam="1">  1        2 0.28995427E+00 0.24525770E+04</pdfrwt>
<pdfrwt beam="2">  1       -2 0.12275214E+00 0.24525770E+04</pdfrwt>
<totfact> 0.34792303E+00</totfact>
</mgrwt>
</event>
<event>
 6    1  0.1831439E-005  0.7425447E+03  0.7818608E-02  0.9647120E-01
         -2   -1    0    0    0  501 -0.00000000000E+00  0.00000000000E+00  0.96973134394E+02  0.96973134394E+02  0.00000000000E+00 0.  1.
          2   -1    0    0  501    0  0.00000000000E+00 -0.00000000000E+00 -0.14214570610E+04  0.14214570610E+04  0.00000000000E+00 0. -1.
         23    2    1    2    0    0 -0.27616988428E+03 -0.12603603453E+03 -0.25561030817E+03  0.40728407576E+03  0.91590402005E+02 0.  0.
         11    1    3    3    0    0 -0.15494582310E+03 -0.57303123417E+02 -0.19430410342E+03  0.25504105680E+03  0.00000000000E+00 0.  1.
        -11    1    3    3    0    0 -0.12122406119E+03 -0.68732911115E+02 -0.61306204751E+02  0.15224301896E+03  0.00000000000E+00 0. -1.
         22    1    1    2    0    0  0.27616988428E+03  0.12603603453E+03 -0.10688736184E+04  0.11111461196E+04  0.00000000000E+00 0. -1.
<mgrwt>
<rscale>  0 0.74254467E+03</rscale>
<asrwt>0</asrwt>
<pdfrwt beam="1">  1        2 0.21868570E+00 0.74254467E+03</pdfrwt>
<pdfrwt beam="2">  1       -2 0.14918944E-01 0.74254467E+03</pdfrwt>
<totfact> 0.50305933E+02</totfact>
</mgrwt>
</event>
<event>
 6    1  0.1831439E-005  0.1388637E+04  0.7818608E-02  0.8962085E-01
         -2   -1    0    0    0  501 -0.00000000000E+00  0.00000000000E+00  0.36818320013E+03  0.36818320013E+03  0.00000000000E+00 0.  1.
          2   -1    0    0  501    0  0.00000000000E+00 -0.00000000000E+00 -0.13093423398E+04  0.13093423398E+04  0.00000000000E+00 0. -1.
         23    2    1    2    0    0 -0.51407979599E+03 -0.76606876185E+01  0.85511607966E+02  0.52931408430E+03  0.92327904564E+02 0.  0.
         11    1    3    3    0    0 -0.18975603694E+03 -0.46727939981E+02  0.40224904674E+02  0.19952167021E+03  0.00000000000E+00 0. -1.
        -11    1    3    3    0    0 -0.32432375906E+03  0.39067252363E+02  0.45286703293E+02  0.32979241409E+03  0.00000000000E+00 0.  1.
         22    1    1    2    0    0  0.51407979599E+03  0.76606876185E+01 -0.10266707477E+04  0.11482114557E+04  0.00000000000E+00 0. -1.
<mgrwt>
<rscale>  0 0.13886365E+04</rscale>
<asrwt>0</asrwt>
<pdfrwt beam="1">  1        2 0.20143728E+00 0.13886365E+04</pdfrwt>
<pdfrwt beam="2">  1       -2 0.56643570E-01 0.13886365E+04</pdfrwt>
<totfact> 0.46487103E+01</totfact>
</mgrwt>
</event>
<event>
 6    1  0.1831439E-005  0.2263892E+04  0.7818608E-02  0.8492295E-01
          2   -1    0    0  501    0  0.00000000000E+00  0.00000000000E+00  0.24219455910E+04  0.24219455910E+04  0.00000000000E+00 0. -1.
         -2   -1    0    0    0  501 -0.00000000000E+00 -0.00000000000E+00 -0.52903834478E+03  0.52903834478E+03  0.00000000000E+00 0.  1.
         23    2    1    2    0    0  0.92886778725E+03  0.12755736976E+02  0.17870534958E+04  0.20160170426E+04  0.88354083523E+02 0.  0.
         13    1    3    3    0    0  0.73549797847E+03  0.22791804172E+02  0.13380324826E+04  0.15270257586E+04  0.00000000000E+00 0. -1.
        -13    1    3    3    0    0  0.19336980877E+03 -0.10036067196E+02  0.44902101314E+03  0.48899128400E+03  0.00000000000E+00 0.  1.
         22    1    1    2    0    0 -0.92886778725E+03 -0.12755736976E+02  0.10585375048E+03  0.93496689327E+03  0.00000000000E+00 0.  1.
<mgrwt>
<rscale>  0 0.22638923E+04</rscale>
<asrwt>0</asrwt>
<pdfrwt beam="1">  1        2 0.37260701E+00 0.22638923E+04</pdfrwt>
<pdfrwt beam="2">  1       -2 0.81390516E-01 0.22638923E+04</pdfrwt>
<totfact> 0.46686409E+00</totfact>
</mgrwt>
</event>
<event>
 6    1  0.1831439E-005  0.9305170E+03  0.7818608E-02  0.9388218E-01
          1   -1    0    0  501    0  0.00000000000E+00  0.00000000000E+00  0.10470155257E+04  0.10470155257E+04  0.00000000000E+00 0. -1.
         -1   -1    0    0    0  501 -0.00000000000E+00 -0.00000000000E+00 -0.20674525795E+03  0.20674525795E+03  0.00000000000E+00 0.  1.
         23    2    1    2    0    0  0.22298243295E+03  0.31447228110E+01  0.96750522024E+03  0.99701229223E+03  0.90752988846E+02 0.  0.
         11    1    3    3    0    0  0.12793113375E+03  0.22173116758E+02  0.71189045591E+03  0.72363391525E+03  0.00000000000E+00 0. -1.
        -11    1    3    3    0    0  0.95051299203E+02 -0.19028393947E+02  0.25561476433E+03  0.27337837698E+03  0.00000000000E+00 0.  1.
         22    1    1    2    0    0 -0.22298243295E+03 -0.31447228110E+01 -0.12723495252E+03  0.25674849139E+03  0.00000000000E+00 0.  1.
<mgrwt>
<rscale>  0 0.93051705E+03</rscale>
<asrwt>0</asrwt>
<pdfrwt beam="1">  1        1 0.16107931E+00 0.93051705E+03</pdfrwt>
<pdfrwt beam="2">  1       -1 0.31806963E-01 0.93051705E+03</pdfrwt>
<totfact> 0.12866796E+02</totfact>
</mgrwt>
</event>
<event>
 6    1  0.1831439E-005  0.2513956E+04  0.7818608E-02  0.8398030E-01
         -1   -1    0    0    0  501 -0.00000000000E+00  0.00000000000E+00  0.97108728514E+03  0.97108728514E+03  0.00000000000E+00 0.  1.
          1   -1    0    0  501    0  0.00000000000E+00 -0.00000000000E+00 -0.16270358976E+04  0.16270358976E+04  0.00000000000E+00 0. -1.
         23    2    1    2    0    0  0.10721277635E+04  0.45599483138E+03  0.15461603625E+03  0.11788260760E+04  0.91299349413E+02 0.  0.
         13    1    3    3    0    0  0.22410384981E+03  0.13665362838E+03  0.35593575914E+02  0.26488422432E+03  0.00000000000E+00 0. -1.
        -13    1    3    3    0    0  0.84802391371E+03  0.31934120301E+03  0.11902246034E+03  0.91394185166E+03  0.00000000000E+00 0.  1.
         22    1    1    2    0    0 -0.10721277635E+04 -0.45599483138E+03 -0.81056464874E+03  0.14192971068E+04  0.00000000000E+00 0. -1.
<mgrwt>
<rscale>  0 0.25139561E+04</rscale>
<asrwt>0</asrwt>
<pdfrwt beam="1">  1        1 0.25031321E+00 0.25139561E+04</pdfrwt>
<pdfrwt beam="2">  1       -1 0.14939804E+00 0.25139561E+04</pdfrwt>
<totfact> 0.16733372E+00</totfact>
</mgrwt>
</event>
<event>
 6    1  0.1831439E-005  0.1092724E+04  0.7818608E-02  0.9212313E-01
         -1   -1    0    0    0  501 -0.00000000000E+00  0.00000000000E+00  0.17604498149E+03  0.17604498149E+03  0.00000000000E+00 0.  1.
          1   -1    0    0  501    0  0.00000000000E+00 -0.00000000000E+00 -0.16956531129E+04  0.16956531129E+04  0.00000000000E+00 0. -1.
         23    2    1    2    0    0 -0.29826019787E+02  0.23627892992E+03 -0.16000205045E+04  0.16203348633E+04  0.93285209763E+02 0.  0.
         13    1    3    3    0    0 -0.14379835863E+02  0.12239771146E+03 -0.52897800632E+03  0.54314428159E+03  0.00000000000E+00 0.  1.
        -13    1    3    3    0    0 -0.15446183924E+02  0.11388121847E+03 -0.10710424982E+04  0.10771905817E+04  0.00000000000E+00 0. -1.
         22    1    1    2    0    0  0.29826019787E+02 -0.23627892992E+03  0.80412373077E+02  0.25136323105E+03  0.00000000000E+00 0.  1.
<mgrwt>
<rscale>  0 0.10927236E+04</rscale>
<asrwt>0</asrwt>
<pdfrwt beam="1">  1        1 0.26086971E+00 0.10927236E+04</pdfrwt>
<pdfrwt beam="2">  1       -1 0.27083843E-01 0.10927236E+04</pdfrwt>
<totfact> 0.58400980E+01</totfact>
</mgrwt>
</event>
<event>
 6    1  0.1831439E-005  0.2378588E+04  0.7818608E-02  0.8447564E-01
          2   -1    0    0  501    0  0.00000000000E+00  0.00000000000E+00  0.13509581878E+04  0.13509581878E+04  0.00000000000E+00 0. -1.
         -2   -1    0    0    0  501 -0.00000000000E+00 -0.00000000000E+00 -0.10469753351E+04  0.10469753351E+04  0.00000000000E+00 0.  1.
         23    2    1    2    0    0  0.60304187681E+03  0.26661712206E+03  0.11479251610E+04  0.13269606873E+04  0.91369006721E+02 0.  0.
         11    1    3    3    0    0  0.18882812659E+03  0.13091209205E+03  0.39374017440E+03  0.45587867045E+03  0.00000000000E+00 0. -1.
        -11    1    3    3    0    0  0.41421375023E+03  0.13570503000E+03  0.75418498662E+03  0.87108201686E+03  0.00000000000E+00 0.  1.
         22    1    1    2    0    0 -0.60304187681E+03 -0.26661712206E+03 -0.84394230828E+03  0.10709728356E+04  0.00000000000E+00 0.  1.
<mgrwt>
<rscale>  0 0.23785877E+04</rscale>
<asrwt>0</asrwt>
<pdfrwt beam="1">  1        2 0.20783972E+00 0.23785877E+04</pdfrwt>
<pdfrwt beam="2">  1       -2 0.16107313E+00 0.23785877E+04</pdfrwt>
<totfact> 0.34410285E+00</totfact>
</mgrwt>
</event>
<event>
 6    1  0.1831439E-005  0.4584189E+04  0.7818608E-02  0.7896061E-01
          1   -1    0    0  501    0  0.00000000000E+00  0.00000000000E+00  0.22261267168E+04  0.22261267168E+04  0.00000000000E+00 0. -1.
         -1   -1    0    0    0  501 -0.00000000000E+00 -0.00000000000E+00 -0.23600173234E+04  0.23600173234E+04  0.00000000000E+00 0.  1.
         23    2    1    2    0    0  0.55538872527E+03 -0.11232817763E+04  0.18518100090E+04  0.22381181630E+04  0.98762428455E+02 0.  0.
         11    1    3    3    0    0  0.23178137121E+03 -0.43193595539E+03  0.64450774114E+03  0.80974162669E+03  0.00000000000E+00 0. -1.
        -11    1    3    3    0    0  0.32360735406E+03 -0.69134582088E+03  0.12073022678E+04  0.14283765363E+04  0.00000000000E+00 0.  1.
         22    1    1    2    0    0 -0.55538872527E+03  0.11232817763E+04 -0.19857006156E+04  0.23480258771E+04  0.00000000000E+00 0.  1.
<mgrwt>
<rscale>  0 0.45841892E+04</rscale>
<asrwt>0</asrwt>
<pdfrwt beam="1">  1        1 0.34248103E+00 0.45841892E+04</pdfrwt>
<pdfrwt beam="2">  1       -1 0.36307959E+00 0.45841892E+04</pdfrwt>
<totfact> 0.19838281E-02</totfact>
</mgrwt>
</event>
<event>
 6    1  0.1831439E-005  0.1161879E+04  0.7818608E-02  0.9146894E-01
          2   -1    0    0  501    0  0.00000000000E+00  0.00000000000E+00  0.20735812532E+03  0.20735812532E+03  0.00000000000E+00 0. -1.
         -2   -1    0    0    0  501 -0.00000000000E+00 -0.00000000000E+00 -0.16275743924E+04  0.16275743924E+04  0.00000000000E+00 0.  1.
         23    2    1    2    0    0  0.32764787100E+03 -0.43564155973E+03 -0.10097717021E+04  0.11525825805E+04  0.10803248831E+03 0.  0.
         11    1    3    3    0    0  0.28657750061E+03 -0.30399125998E+03 -0.76339348196E+03  0.87023385266E+03  0.00000000000E+00 0. -1.
        -11    1    3    3    0    0  0.41070370386E+02 -0.13165029974E+03 -0.24637822017E+03  0.28234872786E+03  0.00000000000E+00 0.  1.
         22    1    1    2    0    0 -0.32764787100E+03  0.43564155973E+03 -0.41044456495E+03  0.68234993722E+03  0.00000000000E+00 0.  1.
<mgrwt>
<rscale>  0 0.11618791E+04</rscale>
<asrwt>0</asrwt>
<pdfrwt beam="1">  1        2 0.31901251E-01 0.11618791E+04</pdfrwt>
<pdfrwt beam="2">  1       -2 0.25039605E+00 0.11618791E+04</pdfrwt>
<totfact> 0.10535283E+01</totfact>
</mgrwt>
</event>
<event>
 6    1  0.1831439E-005  0.1309723E+04  0.7818608E-02  0.9021890E-01
         -2   -1    0    0    0  501 -0.00000000000E+00  0.00000000000E+00  0.72737262026E+03  0.72737262026E+03  0.00000000000E+00 0.  1.
          2   -1    0    0  501    0  0.00000000000E+00 -0.00000000000E+00 -0.58957851709E+03  0.58957851709E+03  0.00000000000E+00 0. -1.
         23    2    1    2    0    0 -0.32794131596E+03  0.30801616108E+03  0.54325558439E+03  0.71129572793E+03  0.91627072437E+02 0.  0.
         11    1    3    3    0    0 -0.25804688013E+03  0.21290408309E+03  0.45076350399E+03  0.56134131993E+03  0.00000000000E+00 0. -1.
        -11    1    3    3    0    0 -0.69894435834E+02  0.95112077996E+02  0.92492080401E+02  0.14995440800E+03  0.00000000000E+00 0.  1.
         22    1    1    2    0    0  0.32794131596E+03 -0.30801616108E+03 -0.40546148122E+03  0.60565540941E+03  0.00000000000E+00 0. -1.
<mgrwt>
<rscale>  0 0.13097225E+04</rscale>
<asrwt>0</asrwt>
<pdfrwt beam="1">  1        2 0.90704388E-01 0.13097225E+04</pdfrwt>
<pdfrwt beam="2">  1       -2 0.11190348E+00 0.13097225E+04</pdfrwt>
<totfact> 0.31271351E+01</totfact>
</mgrwt>
</event>
<event>
 6    1  0.1831439E-005  0.2419917E+04  0.7818608E-02  0.8432084E-01
         -2   -1    0    0    0  501 -0.00000000000E+00  0.00000000000E+00  0.46527984192E+03  0.46527984192E+03  0.00000000000E+00 0. -1.
          2   -1    0    0  501    0  0.00000000000E+00 -0.00000000000E+00 -0.31464930085E+04  0.31464930085E+04  0.00000000000E+00 0.  1.
         23    2    1    2    0    0 -0.42784638855E+03 -0.11207436234E+04 -0.15550165147E+04  0.19663435142E+04  0.96496908747E+02 0.  0.
         13    1    3    3    0    0 -0.12651553951E+03 -0.30691894049E+03 -0.50152664028E+03  0.60144358728E+03  0.00000000000E+00 0. -1.
        -13    1    3    3    0    0 -0.30133084905E+03 -0.81382468293E+03 -0.10534898744E+04  0.13648999270E+04  0.00000000000E+00 0.  1.
         22    1    1    2    0    0  0.42784638855E+03  0.11207436234E+04 -0.11261966519E+04  0.16454293362E+04  0.00000000000E+00 0. -1.
<mgrwt>
<rscale>  0 0.24199172E+04</rscale>
<asrwt>0</asrwt>
<pdfrwt beam="1">  1        2 0.48407584E+00 0.24199172E+04</pdfrwt>
<pdfrwt beam="2">  1       -2 0.71581516E-01 0.24199172E+04</pdfrwt>
<totfact> 0.22339678E+00</totfact>
</mgrwt>
</event>
<event>
 6    1  0.1831439E-005  0.2161554E+04  0.7818608E-02  0.8534603E-01
         -1   -1    0    0    0  501 -0.00000000000E+00  0.00000000000E+00  0.12542352009E+04  0.12542352009E+04  0.00000000000E+00 0.  1.
          1   -1    0    0  501    0  0.00000000000E+00 -0.00000000000E+00 -0.93130791459E+03  0.93130791459E+03  0.00000000000E+00 0. -1.
         23    2    1    2    0    0 -0.64276565597E+03 -0.26547605229E+03  0.99579097574E+03  0.12178805879E+04  0.89488749478E+02 0.  0.
         13    1    3    3    0    0 -0.10919999580E+03 -0.49806915012E+02  0.11846416557E+03  0.16863904172E+03  0.00000000000E+00 0. -1.
        -13    1    3    3    0    0 -0.53356566016E+03 -0.21566913728E+03  0.87732681017E+03  0.10492415462E+04  0.00000000000E+00 0.  1.
         22    1    1    2    0    0  0.64276565597E+03  0.26547605229E+03 -0.67286368939E+03  0.96766252760E+03  0.00000000000E+00 0. -1.
<mgrwt>
<rscale>  0 0.21615542E+04</rscale>
<asrwt>0</asrwt>
<pdfrwt beam="1">  1        1 0.14327814E+00 0.21615542E+04</pdfrwt>
<pdfrwt beam="2">  1       -1 0.19295926E+00 0.21615542E+04</pdfrwt>
<totfact> 0.26440622E+00</totfact>
</mgrwt>
</event>
<event>
 6    1  0.1831439E-005  0.2453182E+04  0.7818608E-02  0.8419857E-01
          1   -1    0    0  501    0  0.00000000000E+00  0.00000000000E+00  0.82766306990E+03  0.82766306990E+03  0.00000000000E+00 0. -1.
         -1   -1    0    0    0  501 -0.00000000000E+00 -0.00000000000E+00 -0.18177989477E+04  0.18177989477E+04  0.00000000000E+00 0.  1.
         23    2    1    2    0    0  0.94611413886E+03 -0.73983853720E+03 -0.23654209086E+03  0.12275774593E+04  0.92202131224E+02 0.  0.
         13    1    3    3    0    0  0.59557198689E+03 -0.52081646574E+03 -0.14965076623E+03  0.80520254246E+03  0.00000000000E+00 0. -1.
        -13    1    3    3    0    0  0.35054215197E+03 -0.21902207146E+03 -0.86891324625E+02  0.42237491686E+03  0.00000000000E+00 0.  1.
         22    1    1    2    0    0 -0.94611413886E+03  0.73983853720E+03 -0.75359378695E+03  0.14178845583E+04  0.00000000000E+00 0. -1.
<mgrwt>
<rscale>  0 0.24531817E+04</rscale>
<asrwt>0</asrwt>
<pdfrwt beam="1">  1        1 0.12733278E+00 0.24531817E+04</pdfrwt>
<pdfrwt beam="2">  1       -1 0.27966137E+00 0.24531817E+04</pdfrwt>
<totfact> 0.83492494E-01</totfact>
</mgrwt>
</event>
<event>
 6    1  0.1831439E-005  0.5256682E+04  0.7818608E-02  0.7790087E-01
          2   -1    0    0  501    0  0.00000000000E+00  0.00000000000E+00  0.42974920393E+04  0.42974920393E+04  0.00000000000E+00 0. -1.
         -2   -1    0    0    0  501 -0.00000000000E+00 -0.00000000000E+00 -0.16074900551E+04  0.16074900551E+04  0.00000000000E+00 0.  1.
         23    2    1    2    0    0  0.80619098985E+03 -0.16440943986E+04 -0.77140658125E+03  0.19890735714E+04  0.91407084764E+02 0.  0.
         13    1    3    3    0    0  0.53076120187E+03 -0.11577206745E+04 -0.50786703719E+03  0.13711139781E+04  0.00000000000E+00 0.  1.
        -13    1    3    3    0    0  0.27542978798E+03 -0.48637372413E+03 -0.26353954406E+03  0.61795959327E+03  0.00000000000E+00 0. -1.
         22    1    1    2    0    0 -0.80619098985E+03  0.16440943986E+04  0.34614085654E+04  0.39159085230E+04  0.00000000000E+00 0. -1.
<mgrwt>
<rscale>  0 0.52566817E+04</rscale>
<asrwt>0</asrwt>
<pdfrwt beam="1">  1        2 0.66115262E+00 0.52566817E+04</pdfrwt>
<pdfrwt beam="2">  1       -2 0.24730616E+00 0.52566817E+04</pdfrwt>
<totfact> 0.90114010E-03</totfact>
</mgrwt>
</event>
<event>
 6    1  0.1831439E-005  0.2034569E+04  0.7818608E-02  0.8590627E-01
         -1   -1    0    0    0  501 -0.00000000000E+00  0.00000000000E+00  0.90942699944E+03  0.90942699944E+03  0.00000000000E+00 0.  1.
          1   -1    0    0  501    0  0.00000000000E+00 -0.00000000000E+00 -0.11379336580E+04  0.11379336580E+04  0.00000000000E+00 0. -1.
         23    2    1    2    0    0 -0.67416425042E+03  0.33669170473E+03 -0.79871293698E+03  0.11023770912E+04  0.97129577780E+02 0.  0.
         13    1    3    3    0    0 -0.38054912668E+03  0.13769827693E+03 -0.44364215897E+03  0.60049714280E+03  0.00000000000E+00 0.  1.
        -13    1    3    3    0    0 -0.29361512374E+03  0.19899342780E+03 -0.35507077801E+03  0.50187994839E+03  0.00000000000E+00 0. -1.
         22    1    1    2    0    0  0.67416425042E+03 -0.33669170473E+03  0.57020627841E+03  0.94498356627E+03  0.00000000000E+00 0.  1.
<mgrwt>
<rscale>  0 0.20345688E+04</rscale>
<asrwt>0</asrwt>
<pdfrwt beam="1">  1        1 0.17506672E+00 0.20345688E+04</pdfrwt>
<pdfrwt beam="2">  1       -1 0.13991185E+00 0.20345688E+04</pdfrwt>
<totfact> 0.46118085E+00</totfact>
</mgrwt>
</event>
<event>
 6    1  0.1831439E-005  0.1612379E+04  0.7818608E-02  0.8812979E-01
         -1   -1    0    0    0  501 -0.00000000000E+00  0.00000000000E+00  0.55493587354E+03  0.55493587354E+03  0.00000000000E+00 0.  1.
          1   -1    0    0  501    0  0.00000000000E+00 -0.00000000000E+00 -0.11712009425E+04  0.11712009425E+04  0.00000000000E+00 0. -1.
         23    2    1    2    0    0 -0.50861536844E+02  0.31817470706E+03 -0.10972880816E+04  0.11471677505E+04  0.90170247301E+02 0.  0.
         13    1    3    3    0    0 -0.66716836253E+02  0.17342489081E+03 -0.53583270722E+03  0.56713668469E+03  0.00000000000E+00 0. -1.
        -13    1    3    3    0    0  0.15855299410E+02  0.14474981625E+03 -0.56145537439E+03  0.58003106577E+03  0.00000000000E+00 0.  1.
         22    1    1    2    0    0  0.50861536844E+02 -0.31817470706E+03  0.48102301268E+03  0.57896906555E+03  0.00000000000E+00 0.  1.
<mgrwt>
<rscale>  0 0.16123789E+04</rscale>
<asrwt>0</asrwt>
<pdfrwt beam="1">  1        1 0.18018476E+00 0.16123789E+04</pdfrwt>
<pdfrwt beam="2">  1       -1 0.85374751E-01 0.16123789E+04</pdfrwt>
<totfact> 0.14585538E+01</totfact>
</mgrwt>
</event>
<event>
 6    1  0.1831439E-005  0.2820791E+04  0.7818608E-02  0.8296843E-01
         -1   -1    0    0    0  501 -0.00000000000E+00  0.00000000000E+00  0.10976722397E+04  0.10976722397E+04  0.00000000000E+00 0.  1.
          1   -1    0    0  501    0  0.00000000000E+00 -0.00000000000E+00 -0.18122124171E+04  0.18122124171E+04  0.00000000000E+00 0. -1.
         23    2    1    2    0    0 -0.49960689093E+03 -0.13092704720E+04 -0.50889151723E+03  0.14935204432E+04  0.88524141155E+02 0.  0.
         13    1    3    3    0    0 -0.47324283833E+03 -0.11982484429E+04 -0.44668269310E+03  0.13635554786E+04  0.00000000000E+00 0.  1.
        -13    1    3    3    0    0 -0.26364052604E+02 -0.11102202909E+03 -0.62208824124E+02  0.12996496456E+03  0.00000000000E+00 0. -1.
         22    1    1    2    0    0  0.49960689093E+03  0.13092704720E+04 -0.20564866027E+03  0.14163642136E+04  0.00000000000E+00 0. -1.
<mgrwt>
<rscale>  0 0.28207909E+04</rscale>
<asrwt>0</asrwt>
<pdfrwt beam="1">  1        1 0.27880191E+00 0.28207909E+04</pdfrwt>
<pdfrwt beam="2">  1       -1 0.16887265E+00 0.28207909E+04</pdfrwt>
<totfact> 0.86634039E-01</totfact>
</mgrwt>
</event>
<event>
 6    1  0.1831439E-005  0.1523099E+04  0.7818608E-02  0.8869236E-01
         -2   -1    0    0    0  501 -0.00000000000E+00  0.00000000000E+00  0.59080574348E+03  0.59080574348E+03  0.00000000000E+00 0.  1.
          2   -1    0    0  501    0  0.00000000000E+00 -0.00000000000E+00 -0.98163853618E+03  0.98163853618E+03  0.00000000000E+00 0. -1.
         23    2    1    2    0    0 -0.15754958571E+03  0.44841862990E+03  0.41453454176E+03  0.63728777777E+03  0.91627974906E+02 0.  0.
         13    1    3    3    0    0 -0.71072119785E+02  0.26262355243E+03  0.18198358003E+03  0.32732308184E+03  0.00000000000E+00 0.  1.
        -13    1    3    3    0    0 -0.86477465929E+02  0.18579507747E+03  0.23255096173E+03  0.30996469594E+03  0.00000000000E+00 0. -1.
         22    1    1    2    0    0  0.15754958571E+03 -0.44841862990E+03 -0.80536733446E+03  0.93515650189E+03  0.00000000000E+00 0. -1.
<mgrwt>
<rscale>  0 0.15230991E+04</rscale>
<asrwt>0</asrwt>
<pdfrwt beam="1">  1        2 0.15102131E+00 0.15230991E+04</pdfrwt>
<pdfrwt beam="2">  1       -2 0.90893192E-01 0.15230991E+04</pdfrwt>
<totfact> 0.25796821E+01</totfact>
</mgrwt>
</event>
<event>
 6    1  0.1831439E-005  0.3425804E+04  0.7818608E-02  0.8131602E-01
         -1   -1    0    0    0  501 -0.00000000000E+00  0.00000000000E+00  0.15543110907E+04  0.15543110907E+04  0.00000000000E+00 0.  1.
          1   -1    0    0  501    0  0.00000000000E+00 -0.00000000000E+00 -0.18876742533E+04  0.18876742533E+04  0.00000000000E+00 0. -1.
         23    2    1    2    0    0  0.42452027402E+01  0.16677165092E+04 -0.55401954907E+03  0.17597292347E+04  0.91722090095E+02 0.  0.
         11    1    3    3    0    0  0.15153158867E+02  0.70504838128E+03 -0.27997765539E+03  0.75875577473E+03  0.00000000000E+00 0. -1.
        -11    1    3    3    0    0 -0.10907956126E+02  0.96266812791E+03 -0.27404189368E+03  0.10009734599E+04  0.00000000000E+00 0.  1.
         22    1    1    2    0    0 -0.42452027402E+01 -0.16677165092E+04  0.22065638646E+03  0.16822561094E+04  0.00000000000E+00 0.  1.
<mgrwt>
<rscale>  0 0.34258039E+04</rscale>
<asrwt>0</asrwt>
<pdfrwt beam="1">  1        1 0.29041142E+00 0.34258039E+04</pdfrwt>
<pdfrwt beam="2">  1       -1 0.23912479E+00 0.34258039E+04</pdfrwt>
<totfact> 0.23956750E-01</totfact>
</mgrwt>
</event>
<event>
 6    1  0.1831439E-005  0.3442393E+04  0.7818608E-02  0.8127579E-01
         -2   -1    0    0    0  501 -0.00000000000E+00  0.00000000000E+00  0.95095911528E+03  0.95095911528E+03  0.00000000000E+00 0. -1.
          2   -1    0    0  501    0  0.00000000000E+00 -0.00000000000E+00 -0.31152935836E+04  0.31152935836E+04  0.00000000000E+00 0.  1.
         23    2    1    2    0    0 -0.83914601661E+03  0.12112847349E+04 -0.35103464101E+02  0.14768509503E+04  0.92085448869E+02 0.  0.
         13    1    3    3    0    0 -0.26669229665E+03  0.33476264734E+03  0.20294348683E+02  0.42848882335E+03  0.00000000000E+00 0.  1.
        -13    1    3    3    0    0 -0.57245371996E+03  0.87652208759E+03 -0.55397812784E+02  0.10483621269E+04  0.00000000000E+00 0. -1.
         22    1    1    2    0    0  0.83914601661E+03 -0.12112847349E+04 -0.21292310042E+04  0.25894017486E+04  0.00000000000E+00 0.  1.
<mgrwt>
<rscale>  0 0.34423927E+04</rscale>
<asrwt>0</asrwt>
<pdfrwt beam="1">  1        2 0.47927594E+00 0.34423927E+04</pdfrwt>
<pdfrwt beam="2">  1       -2 0.14630140E+00 0.34423927E+04</pdfrwt>
<totfact> 0.38841936E-01</totfact>
</mgrwt>
</event>
<event>
 6    1  0.1831439E-005  0.2493819E+04  0.7818608E-02  0.8405191E-01
          2   -1    0    0  501    0  0.00000000000E+00  0.00000000000E+00  0.62223380112E+03  0.62223380112E+03  0.00000000000E+00 0.  1.
         -2   -1    0    0    0  501 -0.00000000000E+00 -0.00000000000E+00 -0.24987131429E+04  0.24987131429E+04  0.00000000000E+00 0. -1.
         23    2    1    2    0    0  0.55201313294E+03  0.82900307340E+03 -0.18760597459E+04  0.21249726619E+04  0.62801663477E+02 0.  0.
         13    1    3    3    0    0  0.54017908300E+03  0.79714877139E+03 -0.18279950259E+04  0.20661087629E+04  0.00000000000E+00 0. -1.
        -13    1    3    3    0    0  0.11834049940E+02  0.31854302016E+02 -0.48064720001E+02  0.58863898984E+02  0.00000000000E+00 0.  1.
         22    1    1    2    0    0 -0.55201313294E+03 -0.82900307340E+03 -0.41959588336E+00  0.99597428215E+03  0.00000000000E+00 0.  1.
<mgrwt>
<rscale>  0 0.24938194E+04</rscale>
<asrwt>0</asrwt>
<pdfrwt beam="1">  1        2 0.95728275E-01 0.24938194E+04</pdfrwt>
<pdfrwt beam="2">  1       -2 0.38441742E+00 0.24938194E+04</pdfrwt>
<totfact> 0.39710929E-01</totfact>
</mgrwt>
</event>
<event>
 6    1  0.1831439E-005  0.1384755E+04  0.7818608E-02  0.8964928E-01
          1   -1    0    0  501    0  0.00000000000E+00  0.00000000000E+00  0.59375324595E+03  0.59375324595E+03  0.00000000000E+00 0. -1.
         -1   -1    0    0    0  501 -0.00000000000E+00 -0.00000000000E+00 -0.80738320522E+03  0.80738320522E+03  0.00000000000E+00 0.  1.
         23    2    1    2    0    0 -0.10274410477E+03 -0.41087952247E+03  0.44289889334E+03  0.61985003291E+03  0.93146661385E+02 0.  0.
         11    1    3    3    0    0  0.82832277693E+01 -0.88017927636E+02  0.60019314193E+02  0.10685544218E+03  0.00000000000E+00 0.  1.
        -11    1    3    3    0    0 -0.11102733254E+03 -0.32286159484E+03  0.38287957914E+03  0.51299459073E+03  0.00000000000E+00 0. -1.
         22    1    1    2    0    0  0.10274410477E+03  0.41087952247E+03 -0.65652885261E+03  0.78128641826E+03  0.00000000000E+00 0.  1.
<mgrwt>
<rscale>  0 0.13847547E+04</rscale>
<asrwt>0</asrwt>
<pdfrwt beam="1">  1        1 0.91346653E-01 0.13847547E+04</pdfrwt>
<pdfrwt beam="2">  1       -1 0.12421280E+00 0.13847547E+04</pdfrwt>
<totfact> 0.19303390E+01</totfact>
</mgrwt>
</event>
<event>
 6    1  0.1831439E-005  0.1174294E+04  0.7818608E-02  0.9135660E-01
          2   -1    0    0  501    0  0.00000000000E+00  0.00000000000E+00  0.54772559517E+03  0.54772559517E+03  0.00000000000E+00 0. -1.
         -2   -1    0    0    0  501 -0.00000000000E+00 -0.00000000000E+00 -0.62940520301E+03  0.62940520301E+03  0.00000000000E+00 0.  1.
         23    2    1    2    0    0  0.65685259069E+02  0.22041983804E+03  0.49661866238E+03  0.55477370808E+03  0.90798199855E+02 0.  0.
         13    1    3    3    0    0 -0.19472771102E+02  0.44953098695E+02  0.13970578552E+03  0.14804619686E+03  0.00000000000E+00 0. -1.
        -13    1    3    3    0    0  0.85158030170E+02  0.17546673934E+03  0.35691287686E+03  0.40672751122E+03  0.00000000000E+00 0.  1.
         22    1    1    2    0    0 -0.65685259069E+02 -0.22041983804E+03 -0.57829827022E+03  0.62235709010E+03  0.00000000000E+00 0.  1.
<mgrwt>
<rscale>  0 0.11742936E+04</rscale>
<asrwt>0</asrwt>
<pdfrwt beam="1">  1        2 0.84265476E-01 0.11742936E+04</pdfrwt>
<pdfrwt beam="2">  1       -2 0.96831570E-01 0.11742936E+04</pdfrwt>
<totfact> 0.48745552E+01</totfact>
</mgrwt>
</event>
<event>
 6    1  0.1831439E-005  0.9927212E+03  0.7818608E-02  0.9316564E-01
          1   -1    0    0  501    0  0.00000000000E+00  0.00000000000E+00  0.29339807085E+04  0.29339807085E+04  0.00000000000E+00 0. -1.
         -1   -1    0    0    0  501 -0.00000000000E+00 -0.00000000000E+00 -0.83972546751E+02  0.83972546751E+02  0.00000000000E+00 0.  1.
         23    2    1    2    0    0 -0.86425411727E+02 -0.31134834507E+03  0.25651750427E+04  0.25872131370E+04  0.95612095765E+02 0.  0.
         11    1    3    3    0    0 -0.39209587681E+02 -0.22702627832E+03  0.14903556840E+04  0.15080578197E+04  0.00000000000E+00 0.  1.
        -11    1    3    3    0    0 -0.47215824047E+02 -0.84322066753E+02  0.10748193586E+04  0.10791553172E+04  0.00000000000E+00 0. -1.
         22    1    1    2    0    0  0.86425411727E+02  0.31134834507E+03  0.28483311910E+03  0.43074011829E+03  0.00000000000E+00 0. -1.
<mgrwt>
<rscale>  0 0.99272117E+03</rscale>
<asrwt>0</asrwt>
<pdfrwt beam="1">  1        1 0.45138157E+00 0.99272117E+03</pdfrwt>
<pdfrwt beam="2">  1       -1 0.12918856E-01 0.99272117E+03</pdfrwt>
<totfact> 0.28689479E+01</totfact>
</mgrwt>
</event>
<event>
 6    1  0.1831439E-005  0.2144463E+04  0.7818608E-02  0.8541906E-01
          2   -1    0    0  501    0  0.00000000000E+00  0.00000000000E+00  0.15918792113E+04  0.15918792113E+04  0.00000000000E+00 0. -1.
         -2   -1    0    0    0  501 -0.00000000000E+00 -0.00000000000E+00 -0.72221589113E+03  0.72221589113E+03  0.00000000000E+00 0.  1.
         23    2    1    2    0    0 -0.79732707084E+03  0.22629144002E+03  0.11666407469E+04  0.14336782320E+04  0.86280744891E+02 0.  0.
         13    1    3    3    0    0 -0.43814793469E+03  0.16850093091E+03  0.66620367249E+03  0.81498068052E+03  0.00000000000E+00 0. -1.
        -13    1    3    3    0    0 -0.35917913615E+03  0.57790509109E+02  0.50043707436E+03  0.61869755146E+03  0.00000000000E+00 0.  1.
         22    1    1    2    0    0  0.79732707084E+03 -0.22629144002E+03 -0.29697742672E+03  0.88041687041E+03  0.00000000000E+00 0.  1.
<mgrwt>
<rscale>  0 0.21444631E+04</rscale>
<asrwt>0</asrwt>
<pdfrwt beam="1">  1        2 0.24490449E+00 0.21444631E+04</pdfrwt>
<pdfrwt beam="2">  1       -2 0.11111014E+00 0.21444631E+04</pdfrwt>
<totfact> 0.66357460E+00</totfact>
</mgrwt>
</event>
<event>
 6    1  0.1831439E-005  0.3119826E+04  0.7818608E-02  0.8210318E-01
          2   -1    0    0  501    0  0.00000000000E+00  0.00000000000E+00  0.23919435784E+04  0.23919435784E+04  0.00000000000E+00 0. -1.
         -2   -1    0    0    0  501 -0.00000000000E+00 -0.00000000000E+00 -0.10173017755E+04  0.10173017755E+04  0.00000000000E+00 0.  1.
         23    2    1    2    0    0 -0.87602782267E+02 -0.44019513000E+03 -0.94242383162E+03  0.10491099437E+04  0.10499045501E+03 0.  0.
         11    1    3    3    0    0 -0.60545353931E+02 -0.22215510488E+03 -0.59548220966E+03  0.63844944399E+03  0.00000000000E+00 0. -1.
        -11    1    3    3    0    0 -0.27057428335E+02 -0.21804002511E+03 -0.34694162196E+03  0.41066049971E+03  0.00000000000E+00 0.  1.
         22    1    1    2    0    0  0.87602782267E+02  0.44019513000E+03  0.23170656345E+04  0.23601354102E+04  0.00000000000E+00 0. -1.
<mgrwt>
<rscale>  0 0.31198259E+04</rscale>
<asrwt>0</asrwt>
<pdfrwt beam="1">  1        2 0.36799132E+00 0.31198259E+04</pdfrwt>
<pdfrwt beam="2">  1       -2 0.15650797E+00 0.31198259E+04</pdfrwt>
<totfact> 0.91074985E-01</totfact>
</mgrwt>
</event>
<event>
 6    1  0.1831439E-005  0.1187350E+04  0.7818608E-02  0.9124002E-01
         -2   -1    0    0    0  501 -0.00000000000E+00  0.00000000000E+00  0.34543182972E+03  0.34543182972E+03  0.00000000000E+00 0.  1.
          2   -1    0    0  501    0  0.00000000000E+00 -0.00000000000E+00 -0.10203169999E+04  0.10203169999E+04  0.00000000000E+00 0. -1.
         23    2    1    2    0    0  0.23337193296E+03  0.28384847525E+03  0.19163209406E+03  0.42453440920E+03  0.92055359025E+02 0.  0.
         13    1    3    3    0    0  0.10349299919E+03  0.92581975285E+02  0.28970073875E+02  0.14185023161E+03  0.00000000000E+00 0.  1.
        -13    1    3    3    0    0  0.12987893377E+03  0.19126649996E+03  0.16266202018E+03  0.28268417758E+03  0.00000000000E+00 0. -1.
         22    1    1    2    0    0 -0.23337193296E+03 -0.28384847525E+03 -0.86651726420E+03  0.94121442039E+03  0.00000000000E+00 0. -1.
<mgrwt>
<rscale>  0 0.11873499E+04</rscale>
<asrwt>0</asrwt>
<pdfrwt beam="1">  1        2 0.15697185E+00 0.11873499E+04</pdfrwt>
<pdfrwt beam="2">  1       -2 0.53143358E-01 0.11873499E+04</pdfrwt>
<totfact> 0.80586850E+01</totfact>
</mgrwt>
</event>
<event>
 6    1  0.1831439E-005  0.2569994E+03  0.7818608E-02  0.1108960E+00
         -2   -1    0    0    0  501 -0.00000000000E+00  0.00000000000E+00  0.87331090576E+01  0.87331090576E+01  0.00000000000E+00 0.  1.
          2   -1    0    0  501    0  0.00000000000E+00 -0.00000000000E+00 -0.18907547248E+04  0.18907547248E+04  0.00000000000E+00 0. -1.
         23    2    1    2    0    0 -0.21230090109E+02 -0.44498564475E+02 -0.18050516727E+04  0.18080809900E+04  0.92273974895E+02 0.  0.
         11    1    3    3    0    0  0.32268208118E+02 -0.14922666843E+02 -0.10335768806E+04  0.10341881315E+04  0.00000000000E+00 0.  1.
        -11    1    3    3    0    0 -0.53498298227E+02 -0.29575897632E+02 -0.77147479215E+03  0.77389285858E+03  0.00000000000E+00 0. -1.
         22    1    1    2    0    0  0.21230090109E+02  0.44498564475E+02 -0.76969943067E+02  0.91406843847E+02  0.00000000000E+00 0.  1.
<mgrwt>
<rscale>  0 0.25699936E+03</rscale>
<asrwt>0</asrwt>
<pdfrwt beam="1">  1        2 0.29088554E+00 0.25699936E+03</pdfrwt>
<pdfrwt beam="2">  1       -2 0.13435543E-02 0.25699936E+03</pdfrwt>
<totfact> 0.11737135E+04</totfact>
</mgrwt>
</event>
<event>
 6    1  0.1831439E-005  0.2159226E+04  0.7818608E-02  0.8535593E-01
         -2   -1    0    0    0  501 -0.00000000000E+00  0.00000000000E+00  0.11265333446E+04  0.11265333446E+04  0.00000000000E+00 0.  1.
          2   -1    0    0  501    0  0.00000000000E+00 -0.00000000000E+00 -0.10346470579E+04  0.10346470579E+04  0.00000000000E+00 0. -1.
         23    2    1    2    0    0  0.85930452929E+03  0.19430829553E+03 -0.57518279627E+03  0.10561278475E+04  0.91710377889E+02 0.  0.
         11    1    3    3    0    0  0.17089705901E+03  0.67716275612E+02 -0.14910896492E+03  0.23669554744E+03  0.00000000000E+00 0.  1.
        -11    1    3    3    0    0  0.68840747029E+03  0.12659201992E+03 -0.42607383136E+03  0.81943230008E+03  0.00000000000E+00 0. -1.
         22    1    1    2    0    0 -0.85930452929E+03 -0.19430829553E+03  0.66706908295E+03  0.11050525549E+04  0.00000000000E+00 0.  1.
<mgrwt>
<rscale>  0 0.21592262E+04</rscale>
<asrwt>0</asrwt>
<pdfrwt beam="1">  1        2 0.15917647E+00 0.21592262E+04</pdfrwt>
<pdfrwt beam="2">  1       -2 0.17331282E+00 0.21592262E+04</pdfrwt>
<totfact> 0.44322438E+00</totfact>
</mgrwt>
</event>
<event>
 6    1  0.1831439E-005  0.1990965E+04  0.7818608E-02  0.8610857E-01
          1   -1    0    0  501    0  0.00000000000E+00  0.00000000000E+00  0.73364630428E+03  0.73364630428E+03  0.00000000000E+00 0. -1.
         -1   -1    0    0    0  501 -0.00000000000E+00 -0.00000000000E+00 -0.13507666141E+04  0.13507666141E+04  0.00000000000E+00 0.  1.
         23    2    1    2    0    0 -0.68577540908E+03  0.13755875473E+03 -0.10477333732E+04  0.12630494586E+04  0.91314789173E+02 0.  0.
         13    1    3    3    0    0 -0.22834847133E+03  0.64880737143E+01 -0.37336827993E+03  0.43770879808E+03  0.00000000000E+00 0.  1.
        -13    1    3    3    0    0 -0.45742693774E+03  0.13107068102E+03 -0.67436509328E+03  0.82534066047E+03  0.00000000000E+00 0. -1.
         22    1    1    2    0    0  0.68577540908E+03 -0.13755875473E+03  0.43061306341E+03  0.82136345979E+03  0.00000000000E+00 0. -1.
<mgrwt>
<rscale>  0 0.19909645E+04</rscale>
<asrwt>0</asrwt>
<pdfrwt beam="1">  1        1 0.11286866E+00 0.19909645E+04</pdfrwt>
<pdfrwt beam="2">  1       -1 0.20781025E+00 0.19909645E+04</pdfrwt>
<totfact> 0.31303746E+00</totfact>
</mgrwt>
</event>
<event>
 6    1  0.1831439E-005  0.1746585E+04  0.7818608E-02  0.8735232E-01
         -2   -1    0    0    0  501 -0.00000000000E+00  0.00000000000E+00  0.49255844478E+03  0.49255844478E+03  0.00000000000E+00 0.  1.
          2   -1    0    0  501    0  0.00000000000E+00 -0.00000000000E+00 -0.15483242533E+04  0.15483242533E+04  0.00000000000E+00 0. -1.
         23    2    1    2    0    0 -0.34685291617E+03  0.58276783174E+03  0.10856699647E+03  0.69344209755E+03  0.95654894103E+02 0.  0.
         11    1    3    3    0    0 -0.34992116597E+03  0.55030128368E+03  0.10644071979E+03  0.66076164541E+03  0.00000000000E+00 0. -1.
        -11    1    3    3    0    0  0.30682497959E+01  0.32466548061E+02  0.21262766736E+01  0.32680452144E+02  0.00000000000E+00 0.  1.
         22    1    1    2    0    0  0.34685291617E+03 -0.58276783174E+03 -0.11643328050E+04  0.13474406005E+04  0.00000000000E+00 0. -1.
<mgrwt>
<rscale>  0 0.17465855E+04</rscale>
<asrwt>0</asrwt>
<pdfrwt beam="1">  1        2 0.23820373E+00 0.17465855E+04</pdfrwt>
<pdfrwt beam="2">  1       -2 0.75778224E-01 0.17465855E+04</pdfrwt>
<totfact> 0.17638406E+01</totfact>
</mgrwt>
</event>
<event>
 6    1  0.1831439E-005  0.5555858E+04  0.7818608E-02  0.7748049E-01
          1   -1    0    0  501    0  0.00000000000E+00  0.00000000000E+00  0.43908651425E+04  0.43908651425E+04  0.00000000000E+00 0. -1.
         -1   -1    0    0    0  501 -0.00000000000E+00 -0.00000000000E+00 -0.17574874833E+04  0.17574874833E+04  0.00000000000E+00 0.  1.
         23    2    1    2    0    0  0.99006540927E+03  0.24650049008E+04  0.42047177119E+03  0.26909791798E+04  0.89965326276E+02 0.  0.
         13    1    3    3    0    0  0.62047746867E+03  0.14707361864E+04  0.21782074375E+03  0.16110565153E+04  0.00000000000E+00 0. -1.
        -13    1    3    3    0    0  0.36958794061E+03  0.99426871444E+03  0.20265102743E+03  0.10799226645E+04  0.00000000000E+00 0.  1.
         22    1    1    2    0    0 -0.99006540927E+03 -0.24650049008E+04  0.22129058880E+04  0.34573734460E+04  0.00000000000E+00 0. -1.
<mgrwt>
<rscale>  0 0.55558584E+04</rscale>
<asrwt>0</asrwt>
<pdfrwt beam="1">  1        1 0.67551771E+00 0.55558584E+04</pdfrwt>
<pdfrwt beam="2">  1       -1 0.27038269E+00 0.55558584E+04</pdfrwt>
<totfact> 0.14631888E-03</totfact>
</mgrwt>
</event>
<event>
 6    1  0.1831439E-005  0.9233015E+03  0.7818608E-02  0.9396913E-01
          1   -1    0    0  501    0  0.00000000000E+00  0.00000000000E+00  0.52702242562E+03  0.52702242562E+03  0.00000000000E+00 0. -1.
         -1   -1    0    0    0  501 -0.00000000000E+00 -0.00000000000E+00 -0.40438778554E+03  0.40438778554E+03  0.00000000000E+00 0.  1.
         23    2    1    2    0    0  0.33121846962E+03 -0.31200350064E+03  0.16363343172E+02  0.46413572269E+03  0.90013060450E+02 0.  0.
         13    1    3    3    0    0  0.12648428014E+03 -0.14439955546E+03 -0.33572974386E+02  0.19487598454E+03  0.00000000000E+00 0.  1.
        -13    1    3    3    0    0  0.20473418947E+03 -0.16760394518E+03  0.49936317558E+02  0.26925973815E+03  0.00000000000E+00 0. -1.
         22    1    1    2    0    0 -0.33121846962E+03  0.31200350064E+03  0.10627129691E+03  0.46727448846E+03  0.00000000000E+00 0.  1.
<mgrwt>
<rscale>  0 0.92330154E+03</rscale>
<asrwt>0</asrwt>
<pdfrwt beam="1">  1        1 0.81080374E-01 0.92330154E+03</pdfrwt>
<pdfrwt beam="2">  1       -1 0.62213505E-01 0.92330154E+03</pdfrwt>
<totfact> 0.10870310E+02</totfact>
</mgrwt>
</event>
<event>
 6    1  0.1831439E-005  0.1854158E+04  0.7818608E-02  0.8678017E-01
          2   -1    0    0  501    0  0.00000000000E+00  0.00000000000E+00  0.14061654142E+04  0.14061654142E+04  0.00000000000E+00 0. -1.
         -2   -1    0    0    0  501 -0.00000000000E+00 -0.00000000000E+00 -0.61121959473E+03  0.61121959473E+03  0.00000000000E+00 0.  1.
         23    2    1    2    0    0  0.46953377547E+03  0.43343837593E+03  0.11258358846E+04  0.12977885754E+04  0.91749414857E+02 0.  0.
         13    1    3    3    0    0  0.35572612737E+03  0.30398538759E+03  0.74492955798E+03  0.87969781170E+03  0.00000000000E+00 0.  1.
        -13    1    3    3    0    0  0.11380764810E+03  0.12945298834E+03  0.38090632667E+03  0.41809076365E+03  0.00000000000E+00 0. -1.
         22    1    1    2    0    0 -0.46953377547E+03 -0.43343837593E+03 -0.33089006515E+03  0.71959643360E+03  0.00000000000E+00 0.  1.
<mgrwt>
<rscale>  0 0.18541584E+04</rscale>
<asrwt>0</asrwt>
<pdfrwt beam="1">  1        2 0.21633314E+00 0.18541584E+04</pdfrwt>
<pdfrwt beam="2">  1       -2 0.94033784E-01 0.18541584E+04</pdfrwt>
<totfact> 0.12880116E+01</totfact>
</mgrwt>
</event>
<event>
 6    1  0.1831439E-005  0.5753252E+03  0.7818608E-02  0.9957964E-01
          2   -1    0    0  501    0  0.00000000000E+00  0.00000000000E+00  0.12758873086E+04  0.12758873086E+04  0.00000000000E+00 0. -1.
         -2   -1    0    0    0  501 -0.00000000000E+00 -0.00000000000E+00 -0.64856639739E+02  0.64856639739E+02  0.00000000000E+00 0.  1.
         23    2    1    2    0    0  0.23914156800E+02  0.27787539692E+03  0.67851076853E+03  0.73960830029E+03  0.94111379429E+02 0.  0.
         13    1    3    3    0    0  0.45213946832E+02  0.16450601934E+03  0.48724424564E+03  0.51624944194E+03  0.00000000000E+00 0. -1.
        -13    1    3    3    0    0 -0.21299790032E+02  0.11336937757E+03  0.19126652289E+03  0.22335885835E+03  0.00000000000E+00 0.  1.
         22    1    1    2    0    0 -0.23914156800E+02 -0.27787539692E+03  0.53251990032E+03  0.60113564804E+03  0.00000000000E+00 0.  1.
<mgrwt>
<rscale>  0 0.57532517E+03</rscale>
<asrwt>0</asrwt>
<pdfrwt beam="1">  1        2 0.19629034E+00 0.57532517E+03</pdfrwt>
<pdfrwt beam="2">  1       -2 0.99779455E-02 0.57532517E+03</pdfrwt>
<totfact> 0.11924783E+03</totfact>
</mgrwt>
</event>
<event>
 6    1  0.1831439E-005  0.2755791E+04  0.7818608E-02  0.8317126E-01
          2   -1    0    0  501    0  0.00000000000E+00  0.00000000000E+00  0.26724885628E+04  0.26724885628E+04  0.00000000000E+00 0. -1.
         -2   -1    0    0    0  501 -0.00000000000E+00 -0.00000000000E+00 -0.71042267748E+03  0.71042267748E+03  0.00000000000E+00 0.  1.
         23    2    1    2    0    0 -0.17676881025E+03  0.12400958995E+04  0.28165964534E+03  0.12869985075E+04  0.89151277529E+02 0.  0.
         13    1    3    3    0    0 -0.30554221133E+02  0.41512312933E+03  0.61866792661E+02  0.42081857488E+03  0.00000000000E+00 0.  1.
        -13    1    3    3    0    0 -0.14621458912E+03  0.82497277014E+03  0.21979285268E+03  0.86617993260E+03  0.00000000000E+00 0. -1.
         22    1    1    2    0    0  0.17676881025E+03 -0.12400958995E+04  0.16804062400E+04  0.20959127328E+04  0.00000000000E+00 0. -1.
<mgrwt>
<rscale>  0 0.27557913E+04</rscale>
<asrwt>0</asrwt>
<pdfrwt beam="1">  1        2 0.41115208E+00 0.27557913E+04</pdfrwt>
<pdfrwt beam="2">  1       -2 0.10929580E+00 0.27557913E+04</pdfrwt>
<totfact> 0.16064958E+00</totfact>
</mgrwt>
</event>
<event>
 6    1  0.1831439E-005  0.2070516E+04  0.7818608E-02  0.8574344E-01
          2   -1    0    0  501    0  0.00000000000E+00  0.00000000000E+00  0.63763857308E+03  0.63763857308E+03  0.00000000000E+00 0. -1.
         -2   -1    0    0    0  501 -0.00000000000E+00 -0.00000000000E+00 -0.16808246946E+04  0.16808246946E+04  0.00000000000E+00 0.  1.
         23    2    1    2    0    0 -0.24569197881E+03  0.79929660988E+03  0.15755601249E+03  0.85524035527E+03  0.85863549931E+02 0.  0.
         11    1    3    3    0    0 -0.72708539837E+02  0.37974997542E+03  0.80411426918E+02  0.39492097079E+03  0.00000000000E+00 0. -1.
        -11    1    3    3    0    0 -0.17298343897E+03  0.41954663446E+03  0.77144585569E+02  0.46031938448E+03  0.00000000000E+00 0.  1.
         22    1    1    2    0    0  0.24569197881E+03 -0.79929660988E+03 -0.12007421340E+04  0.14632229124E+04  0.00000000000E+00 0.  1.
<mgrwt>
<rscale>  0 0.20705155E+04</rscale>
<asrwt>0</asrwt>
<pdfrwt beam="1">  1        2 0.98098243E-01 0.20705155E+04</pdfrwt>
<pdfrwt beam="2">  1       -2 0.25858841E+00 0.20705155E+04</pdfrwt>
<totfact> 0.24205405E+00</totfact>
</mgrwt>
</event>
<event>
 6    1  0.1831439E-005  0.1581305E+04  0.7818608E-02  0.8832116E-01
          2   -1    0    0  501    0  0.00000000000E+00  0.00000000000E+00  0.20781628629E+04  0.20781628629E+04  0.00000000000E+00 0. -1.
         -2   -1    0    0    0  501 -0.00000000000E+00 -0.00000000000E+00 -0.30080959486E+03  0.30080959486E+03  0.00000000000E+00 0.  1.
         23    2    1    2    0    0  0.77291531146E+03  0.60505299378E+02  0.11021681195E+04  0.13508995252E+04  0.95372918070E+02 0.  0.
         13    1    3    3    0    0  0.33809881261E+03  0.31948532170E+02  0.56504765033E+03  0.65924984865E+03  0.00000000000E+00 0. -1.
        -13    1    3    3    0    0  0.43481649885E+03  0.28556767208E+02  0.53712046917E+03  0.69164967652E+03  0.00000000000E+00 0.  1.
         22    1    1    2    0    0 -0.77291531146E+03 -0.60505299378E+02  0.67518514859E+03  0.10280729326E+04  0.00000000000E+00 0.  1.
<mgrwt>
<rscale>  0 0.15813049E+04</rscale>
<asrwt>0</asrwt>
<pdfrwt beam="1">  1        2 0.31971735E+00 0.15813049E+04</pdfrwt>
<pdfrwt beam="2">  1       -2 0.46278401E-01 0.15813049E+04</pdfrwt>
<totfact> 0.25702975E+01</totfact>
</mgrwt>
</event>
<event>
 6    1  0.1831439E-005  0.4235997E+04  0.7818608E-02  0.7958560E-01
         -2   -1    0    0    0  501 -0.00000000000E+00  0.00000000000E+00  0.10842248969E+04  0.10842248969E+04  0.00000000000E+00 0.  1.
          2   -1    0    0  501    0  0.00000000000E+00 -0.00000000000E+00 -0.41374422796E+04  0.41374422796E+04  0.00000000000E+00 0. -1.
         23    2    1    2    0    0 -0.89523621304E+03  0.10475638794E+04  0.45389167465E+03  0.14535573190E+04  0.89293161287E+02 0.  0.
         13    1    3    3    0    0 -0.54974897085E+03  0.67457942779E+03  0.24632428542E+03  0.90440974615E+03  0.00000000000E+00 0.  1.
        -13    1    3    3    0    0 -0.34548724219E+03  0.37298445159E+03  0.20756738923E+03  0.54914757280E+03  0.00000000000E+00 0. -1.
         22    1    1    2    0    0  0.89523621304E+03 -0.10475638794E+04 -0.35071090574E+04  0.37681098576E+04  0.00000000000E+00 0. -1.
<mgrwt>
<rscale>  0 0.42359971E+04</rscale>
<asrwt>0</asrwt>
<pdfrwt beam="1">  1        2 0.63652958E+00 0.42359971E+04</pdfrwt>
<pdfrwt beam="2">  1       -2 0.16680383E+00 0.42359971E+04</pdfrwt>
<totfact> 0.45541333E-02</totfact>
</mgrwt>
</event>
<event>
 6    1  0.1831439E-005  0.2601967E+04  0.7818608E-02  0.8367533E-01
         -1   -1    0    0    0  501 -0.00000000000E+00  0.00000000000E+00  0.87045985822E+03  0.87045985822E+03  0.00000000000E+00 0.  1.
          1   -1    0    0  501    0  0.00000000000E+00 -0.00000000000E+00 -0.19444414610E+04  0.19444414610E+04  0.00000000000E+00 0. -1.
         23    2    1    2    0    0  0.61754766419E+03 -0.10613984527E+04 -0.77985906011E+02  0.12337817093E+04  0.90574344170E+02 0.  0.
         11    1    3    3    0    0  0.51412715611E+03 -0.89292960010E+03 -0.98390096717E+02  0.10350510202E+04  0.00000000000E+00 0. -1.
        -11    1    3    3    0    0  0.10342050809E+03 -0.16846885257E+03  0.20404190706E+02  0.19873068906E+03  0.00000000000E+00 0.  1.
         22    1    1    2    0    0 -0.61754766419E+03  0.10613984527E+04 -0.99599569678E+03  0.15811196099E+04  0.00000000000E+00 0. -1.
<mgrwt>
<rscale>  0 0.26019671E+04</rscale>
<asrwt>0</asrwt>
<pdfrwt beam="1">  1        1 0.29914484E+00 0.26019671E+04</pdfrwt>
<pdfrwt beam="2">  1       -1 0.13391690E+00 0.26019671E+04</pdfrwt>
<totfact> 0.13457908E+00</totfact>
</mgrwt>
</event>
<event>
 6    1  0.1831439E-005  0.1476210E+04  0.7818608E-02  0.8900429E-01
         -2   -1    0    0    0  501 -0.00000000000E+00  0.00000000000E+00  0.49068119947E+03  0.49068119947E+03  0.00000000000E+00 0.  1.
          2   -1    0    0  501    0  0.00000000000E+00 -0.00000000000E+00 -0.11102908122E+04  0.11102908122E+04  0.00000000000E+00 0. -1.
         23    2    1    2    0    0 -0.94149178165E+02 -0.69838918455E+03 -0.53885356527E+03  0.89165328216E+03  0.89838131888E+02 0.  0.
         13    1    3    3    0    0 -0.50592294377E+02 -0.51038250171E+03 -0.34504359501E+03  0.61814639104E+03  0.00000000000E+00 0. -1.
        -13    1    3    3    0    0 -0.43556883788E+02 -0.18800668284E+03 -0.19380997026E+03  0.27350689112E+03  0.00000000000E+00 0.  1.
         22    1    1    2    0    0  0.94149178165E+02  0.69838918455E+03 -0.80756047473E+02  0.70931872952E+03  0.00000000000E+00 0.  1.
<mgrwt>
<rscale>  0 0.14762098E+04</rscale>
<asrwt>0</asrwt>
<pdfrwt beam="1">  1        2 0.17081397E+00 0.14762098E+04</pdfrwt>
<pdfrwt beam="2">  1       -2 0.75489416E-01 0.14762098E+04</pdfrwt>
<totfact> 0.32712955E+01</totfact>
</mgrwt>
</event>
<event>
 6    1  0.1831439E-005  0.2482504E+04  0.7818608E-02  0.8409245E-01
         -1   -1    0    0    0  501 -0.00000000000E+00  0.00000000000E+00  0.10927654618E+04  0.10927654618E+04  0.00000000000E+00 0.  1.
          1   -1    0    0  501    0  0.00000000000E+00 -0.00000000000E+00 -0.14099156641E+04  0.14099156641E+04  0.00000000000E+00 0. -1.
         23    2    1    2    0    0  0.12917300298E+03 -0.29654208705E+03  0.10475365373E+04  0.11001859311E+04  0.91942438421E+02 0.  0.
         11    1    3    3    0    0  0.10214369780E+03 -0.21788066236E+03  0.62886782155E+03  0.67333502435E+03  0.00000000000E+00 0.  1.
        -11    1    3    3    0    0  0.27029305175E+02 -0.78661424690E+02  0.41866871572E+03  0.42685090675E+03  0.00000000000E+00 0. -1.
         22    1    1    2    0    0 -0.12917300298E+03  0.29654208705E+03 -0.13646867396E+04  0.14024951948E+04  0.00000000000E+00 0. -1.
<mgrwt>
<rscale>  0 0.24825045E+04</rscale>
<asrwt>0</asrwt>
<pdfrwt beam="1">  1        1 0.21691010E+00 0.24825045E+04</pdfrwt>
<pdfrwt beam="2">  1       -1 0.16811776E+00 0.24825045E+04</pdfrwt>
<totfact> 0.17091758E+00</totfact>
</mgrwt>
</event>
<event>
 6    1  0.1831439E-005  0.2176262E+04  0.7818608E-02  0.8528374E-01
          1   -1    0    0  501    0  0.00000000000E+00  0.00000000000E+00  0.16843802218E+04  0.16843802218E+04  0.00000000000E+00 0. -1.
         -1   -1    0    0    0  501 -0.00000000000E+00 -0.00000000000E+00 -0.70294633557E+03  0.70294633557E+03  0.00000000000E+00 0.  1.
         23    2    1    2    0    0 -0.21524071593E+02 -0.10455419026E+04  0.16923948971E+03  0.10632114214E+04  0.90307064893E+02 0.  0.
         13    1    3    3    0    0 -0.39682559306E+02 -0.33652976582E+03  0.81821968384E+02  0.34859980394E+03  0.00000000000E+00 0.  1.
        -13    1    3    3    0    0  0.18158487713E+02 -0.70901213673E+03  0.87417521321E+02  0.71461161741E+03  0.00000000000E+00 0. -1.
         22    1    1    2    0    0  0.21524071593E+02  0.10455419026E+04  0.81219439647E+03  0.13241151360E+04  0.00000000000E+00 0.  1.
<mgrwt>
<rscale>  0 0.21762618E+04</rscale>
<asrwt>0</asrwt>
<pdfrwt beam="1">  1        1 0.25913542E+00 0.21762618E+04</pdfrwt>
<pdfrwt beam="2">  1       -1 0.10814559E+00 0.21762618E+04</pdfrwt>
<totfact> 0.35449363E+00</totfact>
</mgrwt>
</event>
<event>
 6    1  0.1831439E-005  0.1859853E+04  0.7818608E-02  0.8675102E-01
          1   -1    0    0  501    0  0.00000000000E+00  0.00000000000E+00  0.65032862102E+03  0.65032862102E+03  0.00000000000E+00 0. -1.
         -1   -1    0    0    0  501 -0.00000000000E+00 -0.00000000000E+00 -0.13297321384E+04  0.13297321384E+04  0.00000000000E+00 0.  1.
         23    2    1    2    0    0 -0.58439906172E+03  0.34708195849E+03  0.33167849427E+03  0.76175251291E+03  0.90929192837E+02 0.  0.
         11    1    3    3    0    0 -0.22289114809E+03  0.86152931680E+02  0.13500607013E+03  0.27446207480E+03  0.00000000000E+00 0. -1.
        -11    1    3    3    0    0 -0.36150791364E+03  0.26092902681E+03  0.19667242414E+03  0.48729043810E+03  0.00000000000E+00 0.  1.
         22    1    1    2    0    0  0.58439906172E+03 -0.34708195849E+03 -0.10110820116E+04  0.12183082465E+04  0.00000000000E+00 0.  1.
<mgrwt>
<rscale>  0 0.18598525E+04</rscale>
<asrwt>0</asrwt>
<pdfrwt beam="1">  1        1 0.10005056E+00 0.18598525E+04</pdfrwt>
<pdfrwt beam="2">  1       -1 0.20457417E+00 0.18598525E+04</pdfrwt>
<totfact> 0.39990301E+00</totfact>
</mgrwt>
</event>
<event>
 6    1  0.1831439E-005  0.2802041E+04  0.7818608E-02  0.8302635E-01
          1   -1    0    0  501    0  0.00000000000E+00  0.00000000000E+00  0.17925681998E+04  0.17925681998E+04  0.00000000000E+00 0. -1.
         -1   -1    0    0    0  501 -0.00000000000E+00 -0.00000000000E+00 -0.10949978228E+04  0.10949978228E+04  0.00000000000E+00 0.  1.
         23    2    1    2    0    0  0.12088916612E+04 -0.63337638636E+03  0.29008148796E+02  0.13678423146E+04  0.86985226972E+02 0.  0.
         13    1    3    3    0    0  0.75724847147E+03 -0.34888583801E+03  0.15967258228E+02  0.83390738625E+03  0.00000000000E+00 0. -1.
        -13    1    3    3    0    0  0.45164318973E+03 -0.28449054835E+03  0.13040890568E+02  0.53393492840E+03  0.00000000000E+00 0.  1.
         22    1    1    2    0    0 -0.12088916612E+04  0.63337638636E+03  0.66856222821E+03  0.15197237079E+04  0.00000000000E+00 0. -1.
<mgrwt>
<rscale>  0 0.28020409E+04</rscale>
<asrwt>0</asrwt>
<pdfrwt beam="1">  1        1 0.27577972E+00 0.28020409E+04</pdfrwt>
<pdfrwt beam="2">  1       -1 0.16846120E+00 0.28020409E+04</pdfrwt>
<totfact> 0.90112211E-01</totfact>
</mgrwt>
</event>
<event>
 6    1  0.1831439E-005  0.7660609E+04  0.7818608E-02  0.7512895E-01
          2   -1    0    0  501    0  0.00000000000E+00  0.00000000000E+00  0.35892006016E+04  0.35892006016E+04  0.00000000000E+00 0. -1.
         -2   -1    0    0    0  501 -0.00000000000E+00 -0.00000000000E+00 -0.40876041091E+04  0.40876041091E+04  0.00000000000E+00 0.  1.
         23    2    1    2    0    0 -0.12070281454E+04 -0.22155551144E+04  0.26379813268E+04  0.36515704022E+04  0.97054175789E+02 0.  0.
         11    1    3    3    0    0 -0.76919684517E+03 -0.15070243112E+04  0.17724988142E+04  0.24504159050E+04  0.00000000000E+00 0. -1.
        -11    1    3    3    0    0 -0.43783130025E+03 -0.70853080325E+03  0.86548251262E+03  0.12011544973E+04  0.00000000000E+00 0.  1.
         22    1    1    2    0    0  0.12070281454E+04  0.22155551144E+04 -0.31363848343E+04  0.40252343084E+04  0.00000000000E+00 0.  1.
<mgrwt>
<rscale>  0 0.76606086E+04</rscale>
<asrwt>0</asrwt>
<pdfrwt beam="1">  1        2 0.55218471E+00 0.76606086E+04</pdfrwt>
<pdfrwt beam="2">  1       -2 0.62886217E+00 0.76606086E+04</pdfrwt>
<totfact> 0.17098228E-04</totfact>
</mgrwt>
</event>
<event>
 6    1  0.1831439E-005  0.1137326E+04  0.7818608E-02  0.9169556E-01
         -1   -1    0    0    0  501 -0.00000000000E+00  0.00000000000E+00  0.64821913389E+03  0.64821913389E+03  0.00000000000E+00 0.  1.
          1   -1    0    0  501    0  0.00000000000E+00 -0.00000000000E+00 -0.49887053233E+03  0.49887053233E+03  0.00000000000E+00 0. -1.
         23    2    1    2    0    0 -0.30668358779E+02  0.27077051663E+03 -0.42553945569E+03  0.51088726190E+03  0.75264501015E+02 0.  0.
         11    1    3    3    0    0 -0.51040041496E+02  0.11802415127E+03 -0.19068265991E+03  0.22998839734E+03  0.00000000000E+00 0. -1.
        -11    1    3    3    0    0  0.20371682717E+02  0.15274636535E+03 -0.23485679578E+03  0.28089886456E+03  0.00000000000E+00 0.  1.
         22    1    1    2    0    0  0.30668358779E+02 -0.27077051663E+03  0.57488805725E+03  0.63620240432E+03  0.00000000000E+00 0.  1.
<mgrwt>
<rscale>  0 0.11373257E+04</rscale>
<asrwt>0</asrwt>
<pdfrwt beam="1">  1        1 0.76749312E-01 0.11373257E+04</pdfrwt>
<pdfrwt beam="2">  1       -1 0.99726021E-01 0.11373257E+04</pdfrwt>
<totfact> 0.42413273E+01</totfact>
</mgrwt>
</event>
<event>
 6    1  0.1831439E-005  0.1566049E+04  0.7818608E-02  0.8841681E-01
         -2   -1    0    0    0  501 -0.00000000000E+00  0.00000000000E+00  0.77103500459E+03  0.77103500459E+03  0.00000000000E+00 0.  1.
          2   -1    0    0  501    0  0.00000000000E+00 -0.00000000000E+00 -0.79520079146E+03  0.79520079146E+03  0.00000000000E+00 0. -1.
         23    2    1    2    0    0 -0.10892198252E+01  0.73920649750E+03  0.23799800314E+03  0.78191616404E+03  0.91227220418E+02 0.  0.
         11    1    3    3    0    0  0.10938501500E+02  0.17476430863E+03  0.18125297255E+02  0.17604187225E+03  0.00000000000E+00 0. -1.
        -11    1    3    3    0    0 -0.12027721325E+02  0.56444218887E+03  0.21987270588E+03  0.60587429179E+03  0.00000000000E+00 0.  1.
         22    1    1    2    0    0  0.10892198252E+01 -0.73920649750E+03 -0.26216379001E+03  0.78431963200E+03  0.00000000000E+00 0. -1.
<mgrwt>
<rscale>  0 0.15660494E+04</rscale>
<asrwt>0</asrwt>
<pdfrwt beam="1">  1        2 0.12233858E+00 0.15660494E+04</pdfrwt>
<pdfrwt beam="2">  1       -2 0.11862077E+00 0.15660494E+04</pdfrwt>
<totfact> 0.18242251E+01</totfact>
</mgrwt>
</event>
<event>
 6    1  0.1831439E-005  0.1806310E+04  0.7818608E-02  0.8702951E-01
          1   -1    0    0  501    0  0.00000000000E+00  0.00000000000E+00  0.32007107156E+03  0.32007107156E+03  0.00000000000E+00 0. -1.
         -1   -1    0    0    0  501 -0.00000000000E+00 -0.00000000000E+00 -0.25484613176E+04  0.25484613176E+04  0.00000000000E+00 0.  1.
         23    2    1    2    0    0  0.62272896866E+03 -0.88623305632E+02 -0.92752913821E+02  0.64219183267E+03  0.90342615731E+02 0.  0.
         11    1    3    3    0    0  0.53563856002E+03 -0.43734733031E+02 -0.81606711260E+02  0.54358168584E+03  0.00000000000E+00 0.  1.
        -11    1    3    3    0    0  0.87090408640E+02 -0.44888572601E+02 -0.11146202560E+02  0.98610146835E+02  0.00000000000E+00 0. -1.
         22    1    1    2    0    0 -0.62272896866E+03  0.88623305632E+02 -0.21356373322E+04  0.22263405565E+04  0.00000000000E+00 0.  1.
<mgrwt>
<rscale>  0 0.18063098E+04</rscale>
<asrwt>0</asrwt>
<pdfrwt beam="1">  1        1 0.49241703E-01 0.18063098E+04</pdfrwt>
<pdfrwt beam="2">  1       -1 0.39207098E+00 0.18063098E+04</pdfrwt>
<totfact> 0.61743551E-01</totfact>
</mgrwt>
</event>
<event>
 6    1  0.1831439E-005  0.1905279E+04  0.7818608E-02  0.8652233E-01
         -2   -1    0    0    0  501 -0.00000000000E+00  0.00000000000E+00  0.96610213964E+03  0.96610213964E+03  0.00000000000E+00 0.  1.
          2   -1    0    0  501    0  0.00000000000E+00 -0.00000000000E+00 -0.93936481025E+03  0.93936481025E+03  0.00000000000E+00 0. -1.
         23    2    1    2    0    0  0.39786695406E+03 -0.59420576909E+03 -0.61242733580E+03  0.94634752126E+03  0.95539417088E+02 0.  0.
         13    1    3    3    0    0  0.28038827443E+03 -0.33854494191E+03 -0.35577407718E+03  0.56551344468E+03  0.00000000000E+00 0. -1.
        -13    1    3    3    0    0  0.11747867963E+03 -0.25566082718E+03 -0.25665325862E+03  0.38083407658E+03  0.00000000000E+00 0.  1.
         22    1    1    2    0    0 -0.39786695406E+03  0.59420576909E+03  0.63916466519E+03  0.95911942863E+03  0.00000000000E+00 0.  1.
<mgrwt>
<rscale>  0 0.19052794E+04</rscale>
<asrwt>0</asrwt>
<pdfrwt beam="1">  1        2 0.14451766E+00 0.19052794E+04</pdfrwt>
<pdfrwt beam="2">  1       -2 0.14863110E+00 0.19052794E+04</pdfrwt>
<totfact> 0.79286582E+00</totfact>
</mgrwt>
</event>
<event>
 6    1  0.1831439E-005  0.2269770E+04  0.7818608E-02  0.8489937E-01
         -2   -1    0    0    0  501 -0.00000000000E+00  0.00000000000E+00  0.92640929836E+03  0.92640929836E+03  0.00000000000E+00 0.  1.
          2   -1    0    0  501    0  0.00000000000E+00 -0.00000000000E+00 -0.13902756398E+04  0.13902756398E+04  0.00000000000E+00 0. -1.
         23    2    1    2    0    0  0.11797992351E+03  0.10976586412E+04  0.28095874635E+02  0.11080491051E+04  0.90607318595E+02 0.  0.
         13    1    3    3    0    0  0.86400012824E+02  0.75581947927E+03 -0.22336790233E+02  0.76106962865E+03  0.00000000000E+00 0. -1.
        -13    1    3    3    0    0  0.31579910689E+02  0.34183916192E+03  0.50432664868E+02  0.34697947644E+03  0.00000000000E+00 0.  1.
         22    1    1    2    0    0 -0.11797992351E+03 -0.10976586412E+04 -0.49196221608E+03  0.12086358331E+04  0.00000000000E+00 0. -1.
<mgrwt>
<rscale>  0 0.22697703E+04</rscale>
<asrwt>0</asrwt>
<pdfrwt beam="1">  1        2 0.21388856E+00 0.22697703E+04</pdfrwt>
<pdfrwt beam="2">  1       -2 0.14252451E+00 0.22697703E+04</pdfrwt>
<totfact> 0.45675023E+00</totfact>
</mgrwt>
</event>
<event>
 6    1  0.1831439E-005  0.9690006E+03  0.7818608E-02  0.9343213E-01
          2   -1    0    0  501    0  0.00000000000E+00  0.00000000000E+00  0.14326661347E+04  0.14326661347E+04  0.00000000000E+00 0. -1.
         -2   -1    0    0    0  501 -0.00000000000E+00 -0.00000000000E+00 -0.16384875523E+03  0.16384875523E+03  0.00000000000E+00 0.  1.
         23    2    1    2    0    0 -0.35830864737E+03  0.13618477974E+03  0.16506257010E+03  0.42809456308E+03  0.95330592552E+02 0.  0.
         11    1    3    3    0    0 -0.21936813015E+03  0.58639250289E+02  0.14069078959E+03  0.26712326083E+03  0.00000000000E+00 0. -1.
        -11    1    3    3    0    0 -0.13894051723E+03  0.77545529446E+02  0.24371780512E+02  0.16097130226E+03  0.00000000000E+00 0.  1.
         22    1    1    2    0    0  0.35830864737E+03 -0.13618477974E+03  0.11037548094E+04  0.11684203269E+04  0.00000000000E+00 0. -1.
<mgrwt>
<rscale>  0 0.96900065E+03</rscale>
<asrwt>0</asrwt>
<pdfrwt beam="1">  1        2 0.22041017E+00 0.96900065E+03</pdfrwt>
<pdfrwt beam="2">  1       -2 0.25207502E-01 0.96900065E+03</pdfrwt>
<totfact> 0.19566529E+02</totfact>
</mgrwt>
</event>
<event>
 6    1  0.1831439E-005  0.8290434E+03  0.7818608E-02  0.9518904E-01
         -2   -1    0    0    0  501 -0.00000000000E+00  0.00000000000E+00  0.16128810230E+04  0.16128810230E+04  0.00000000000E+00 0.  1.
          2   -1    0    0  501    0  0.00000000000E+00 -0.00000000000E+00 -0.10653497135E+03  0.10653497135E+03  0.00000000000E+00 0. -1.
         23    2    1    2    0    0 -0.21915722412E+03 -0.12927809117E+03  0.96864653558E+02  0.28715186882E+03  0.91272782977E+02 0.  0.
         13    1    3    3    0    0 -0.11409014278E+03 -0.11628736203E+03  0.43610794820E+02  0.16864522725E+03  0.00000000000E+00 0.  1.
        -13    1    3    3    0    0 -0.10506708134E+03 -0.12990729139E+02  0.53253858738E+02  0.11850664157E+03  0.00000000000E+00 0. -1.
         22    1    1    2    0    0  0.21915722412E+03  0.12927809117E+03  0.14094813981E+04  0.14322641255E+04  0.00000000000E+00 0.  1.
<mgrwt>
<rscale>  0 0.82904339E+03</rscale>
<asrwt>0</asrwt>
<pdfrwt beam="1">  1        2 0.16389997E-01 0.82904339E+03</pdfrwt>
<pdfrwt beam="2">  1       -2 0.24813552E+00 0.82904339E+03</pdfrwt>
<totfact> 0.24256573E+01</totfact>
</mgrwt>
</event>
<event>
 6    1  0.1831439E-005  0.1997100E+04  0.7818608E-02  0.8607978E-01
          2   -1    0    0  501    0  0.00000000000E+00  0.00000000000E+00  0.97265140525E+03  0.97265140525E+03  0.00000000000E+00 0. -1.
         -2   -1    0    0    0  501 -0.00000000000E+00 -0.00000000000E+00 -0.10251384186E+04  0.10251384186E+04  0.00000000000E+00 0.  1.
         23    2    1    2    0    0  0.49685638996E+03  0.86350831872E+03 -0.26713523671E+01  0.10002957192E+04  0.89841532508E+02 0.  0.
         13    1    3    3    0    0  0.40438649327E+03  0.67404997472E+03  0.31724177514E+02  0.78668813884E+03  0.00000000000E+00 0.  1.
        -13    1    3    3    0    0  0.92469896684E+02  0.18945834401E+03 -0.34395529881E+02  0.21360758035E+03  0.00000000000E+00 0. -1.
         22    1    1    2    0    0 -0.49685638996E+03 -0.86350831872E+03 -0.49815660985E+02  0.99749410465E+03  0.00000000000E+00 0.  1.
<mgrwt>
<rscale>  0 0.19971002E+04</rscale>
<asrwt>0</asrwt>
<pdfrwt beam="1">  1        2 0.14963868E+00 0.19971002E+04</pdfrwt>
<pdfrwt beam="2">  1       -2 0.15771360E+00 0.19971002E+04</pdfrwt>
<totfact> 0.63854835E+00</totfact>
</mgrwt>
</event>
<event>
 6    1  0.1831439E-005  0.3223846E+04  0.7818608E-02  0.8182548E-01
         -2   -1    0    0    0  501 -0.00000000000E+00  0.00000000000E+00  0.69051642602E+03  0.69051642602E+03  0.00000000000E+00 0.  1.
          2   -1    0    0  501    0  0.00000000000E+00 -0.00000000000E+00 -0.37628300740E+04  0.37628300740E+04  0.00000000000E+00 0. -1.
         23    2    1    2    0    0 -0.15636546116E+04  0.30416047403E+03 -0.12119825941E+04  0.20041913460E+04  0.10174382012E+03 0.  0.
         13    1    3    3    0    0 -0.39535863975E+03  0.54446702411E+02 -0.35235848096E+03  0.53238087544E+03  0.00000000000E+00 0. -1.
        -13    1    3    3    0    0 -0.11682959718E+04  0.24971377162E+03 -0.85962411312E+03  0.14718104706E+04  0.00000000000E+00 0.  1.
         22    1    1    2    0    0  0.15636546116E+04 -0.30416047403E+03 -0.18603310539E+04  0.24491551540E+04  0.00000000000E+00 0. -1.
<mgrwt>
<rscale>  0 0.32238461E+04</rscale>
<asrwt>0</asrwt>
<pdfrwt beam="1">  1        2 0.57889695E+00 0.32238461E+04</pdfrwt>
<pdfrwt beam="2">  1       -2 0.10623329E+00 0.32238461E+04</pdfrwt>
<totfact> 0.31423946E-01</totfact>
</mgrwt>
</event>
<event>
 6    1  0.1831439E-005  0.2032178E+04  0.7818608E-02  0.8591722E-01
         -2   -1    0    0    0  501 -0.00000000000E+00  0.00000000000E+00  0.62156199438E+03  0.62156199438E+03  0.00000000000E+00 0.  1.
          2   -1    0    0  501    0  0.00000000000E+00 -0.00000000000E+00 -0.16610368205E+04  0.16610368205E+04  0.00000000000E+00 0. -1.
         23    2    1    2    0    0 -0.37837868061E+02  0.97360754099E+03 -0.20536496415E+03  0.99999107673E+03  0.92000200681E+02 0.  0.
         11    1    3    3    0    0 -0.16798029176E+02  0.54876492385E+03 -0.69204492570E+02  0.55336640414E+03  0.00000000000E+00 0. -1.
        -11    1    3    3    0    0 -0.21039838885E+02  0.42484261713E+03 -0.13616047158E+03  0.44662467260E+03  0.00000000000E+00 0.  1.
         22    1    1    2    0    0  0.37837868061E+02 -0.97360754099E+03 -0.83410986201E+03  0.12826077382E+04  0.00000000000E+00 0. -1.
<mgrwt>
<rscale>  0 0.20321785E+04</rscale>
<asrwt>0</asrwt>
<pdfrwt beam="1">  1        2 0.25554412E+00 0.20321785E+04</pdfrwt>
<pdfrwt beam="2">  1       -2 0.95624923E-01 0.20321785E+04</pdfrwt>
<totfact> 0.87684878E+00</totfact>
</mgrwt>
</event>
<event>
 6    1  0.1831439E-005  0.1761625E+04  0.7818608E-02  0.8726977E-01
         -2   -1    0    0    0  501 -0.00000000000E+00  0.00000000000E+00  0.49842495737E+03  0.49842495737E+03  0.00000000000E+00 0.  1.
          2   -1    0    0  501    0  0.00000000000E+00 -0.00000000000E+00 -0.15565646976E+04  0.15565646976E+04  0.00000000000E+00 0. -1.
         23    2    1    2    0    0  0.74206276917E+03  0.46187919644E+03 -0.43204998727E+03  0.97982551668E+03  0.96960332807E+02 0.  0.
         11    1    3    3    0    0  0.40737125404E+03  0.23952486733E+03 -0.18112730052E+03  0.50609346932E+03  0.00000000000E+00 0.  1.
        -11    1    3    3    0    0  0.33469151513E+03  0.22235432911E+03 -0.25092268674E+03  0.47373204736E+03  0.00000000000E+00 0. -1.
         22    1    1    2    0    0 -0.74206276917E+03 -0.46187919644E+03 -0.62608975296E+03  0.10751641383E+04  0.00000000000E+00 0. -1.
<mgrwt>
<rscale>  0 0.17616250E+04</rscale>
<asrwt>0</asrwt>
<pdfrwt beam="1">  1        2 0.23947149E+00 0.17616250E+04</pdfrwt>
<pdfrwt beam="2">  1       -2 0.76680762E-01 0.17616250E+04</pdfrwt>
<totfact> 0.16976888E+01</totfact>
</mgrwt>
</event>
<event>
 6    1  0.1831439E-005  0.5315602E+04  0.7818608E-02  0.7781585E-01
          2   -1    0    0  501    0  0.00000000000E+00  0.00000000000E+00  0.34489765586E+04  0.34489765586E+04  0.00000000000E+00 0. -1.
         -2   -1    0    0    0  501 -0.00000000000E+00 -0.00000000000E+00 -0.20481165124E+04  0.20481165124E+04  0.00000000000E+00 0.  1.
         23    2    1    2    0    0 -0.20239719734E+04 -0.90231266194E+03  0.22166235273E+04  0.31357161959E+04  0.93088723980E+02 0.  0.
         11    1    3    3    0    0 -0.15174452841E+04 -0.63244377903E+03  0.16522017734E+04  0.23307500990E+04  0.00000000000E+00 0.  1.
        -11    1    3    3    0    0 -0.50652668931E+03 -0.26986888291E+03  0.56442175384E+03  0.80496609690E+03  0.00000000000E+00 0. -1.
         22    1    1    2    0    0  0.20239719734E+04  0.90231266194E+03 -0.81576348112E+03  0.23613768751E+04  0.00000000000E+00 0.  1.
<mgrwt>
<rscale>  0 0.53156019E+04</rscale>
<asrwt>0</asrwt>
<pdfrwt beam="1">  1        2 0.53061178E+00 0.53156019E+04</pdfrwt>
<pdfrwt beam="2">  1       -2 0.31509485E+00 0.53156019E+04</pdfrwt>
<totfact> 0.16053758E-02</totfact>
</mgrwt>
</event>
<event>
 6    1  0.1831439E-005  0.3229094E+04  0.7818608E-02  0.8181175E-01
          1   -1    0    0  501    0  0.00000000000E+00  0.00000000000E+00  0.28488479664E+04  0.28488479664E+04  0.00000000000E+00 0. -1.
         -1   -1    0    0    0  501 -0.00000000000E+00 -0.00000000000E+00 -0.91502326263E+03  0.91502326263E+03  0.00000000000E+00 0.  1.
         23    2    1    2    0    0  0.10113225924E+04  0.95611692223E+03  0.16654266438E+02  0.13948048642E+04  0.90941133413E+02 0.  0.
         11    1    3    3    0    0  0.46925455698E+03  0.50056015465E+03  0.27071018781E+02  0.68665358641E+03  0.00000000000E+00 0. -1.
        -11    1    3    3    0    0  0.54206803547E+03  0.45555676757E+03 -0.10416752343E+02  0.70815127783E+03  0.00000000000E+00 0.  1.
         22    1    1    2    0    0 -0.10113225924E+04 -0.95611692223E+03  0.19171704373E+04  0.23690663648E+04  0.00000000000E+00 0. -1.
<mgrwt>
<rscale>  0 0.32290941E+04</rscale>
<asrwt>0</asrwt>
<pdfrwt beam="1">  1        1 0.43828430E+00 0.32290941E+04</pdfrwt>
<pdfrwt beam="2">  1       -1 0.14077281E+00 0.32290941E+04</pdfrwt>
<totfact> 0.26496352E-01</totfact>
</mgrwt>
</event>
<event>
 6    1  0.1831439E-005  0.1080340E+04  0.7818608E-02  0.9224569E-01
         -2   -1    0    0    0  501 -0.00000000000E+00  0.00000000000E+00  0.18655907594E+03  0.18655907594E+03  0.00000000000E+00 0.  1.
          2   -1    0    0  501    0  0.00000000000E+00 -0.00000000000E+00 -0.15640266929E+04  0.15640266929E+04  0.00000000000E+00 0. -1.
         23    2    1    2    0    0 -0.25143185909E+03 -0.15944154510E+03  0.29287112292E+02  0.31267114886E+03  0.90917139811E+02 0.  0.
         11    1    3    3    0    0 -0.11179123986E+03 -0.29881752468E+02 -0.16156952665E+02  0.11683855339E+03  0.00000000000E+00 0. -1.
        -11    1    3    3    0    0 -0.13964061924E+03 -0.12955979263E+03  0.45444064956E+02  0.19583259546E+03  0.00000000000E+00 0.  1.
         22    1    1    2    0    0  0.25143185909E+03  0.15944154510E+03 -0.14067547292E+04  0.14379146200E+04  0.00000000000E+00 0. -1.
<mgrwt>
<rscale>  0 0.10803395E+04</rscale>
<asrwt>0</asrwt>
<pdfrwt beam="1">  1        2 0.24061948E+00 0.10803395E+04</pdfrwt>
<pdfrwt beam="2">  1       -2 0.28701397E-01 0.10803395E+04</pdfrwt>
<totfact> 0.12922300E+02</totfact>
</mgrwt>
</event>
<event>
 6    1  0.1831439E-005  0.9558027E+03  0.7818608E-02  0.9358394E-01
          1   -1    0    0  501    0  0.00000000000E+00  0.00000000000E+00  0.34129876260E+03  0.34129876260E+03  0.00000000000E+00 0. -1.
         -1   -1    0    0    0  501 -0.00000000000E+00 -0.00000000000E+00 -0.66917824049E+03  0.66917824049E+03  0.00000000000E+00 0.  1.
         23    2    1    2    0    0  0.74177458402E+01 -0.32276080696E+03 -0.53165641155E+03  0.62869879502E+03  0.91509963716E+02 0.  0.
         13    1    3    3    0    0 -0.30792286001E+02 -0.13096238949E+03 -0.16271423735E+03  0.21112848072E+03  0.00000000000E+00 0. -1.
        -13    1    3    3    0    0  0.38210031841E+02 -0.19179841747E+03 -0.36894217420E+03  0.41757031430E+03  0.00000000000E+00 0.  1.
         22    1    1    2    0    0 -0.74177458402E+01  0.32276080696E+03  0.20377693366E+03  0.38177820806E+03  0.00000000000E+00 0. -1.
<mgrwt>
<rscale>  0 0.95580271E+03</rscale>
<asrwt>0</asrwt>
<pdfrwt beam="1">  1        1 0.52507503E-01 0.95580271E+03</pdfrwt>
<pdfrwt beam="2">  1       -1 0.10295050E+00 0.95580271E+03</pdfrwt>
<totfact> 0.66358969E+01</totfact>
</mgrwt>
</event>
<event>
 6    1  0.1831439E-005  0.1189827E+04  0.7818608E-02  0.9121807E-01
         -2   -1    0    0    0  501 -0.00000000000E+00  0.00000000000E+00  0.15840227474E+03  0.15840227474E+03  0.00000000000E+00 0.  1.
          2   -1    0    0  501    0  0.00000000000E+00 -0.00000000000E+00 -0.22343260123E+04  0.22343260123E+04  0.00000000000E+00 0. -1.
         23    2    1    2    0    0 -0.15285776367E+01  0.14409335024E+03 -0.21975796236E+04  0.22041404169E+04  0.90075219881E+02 0.  0.
         11    1    3    3    0    0  0.14612895536E+01  0.56012341776E+02 -0.34970807370E+03  0.35416839866E+03  0.00000000000E+00 0.  1.
        -11    1    3    3    0    0 -0.29898671903E+01  0.88081008469E+02 -0.18478715499E+04  0.18499720183E+04  0.00000000000E+00 0. -1.
         22    1    1    2    0    0  0.15285776367E+01 -0.14409335024E+03  0.12165588607E+03  0.18858787010E+03  0.00000000000E+00 0.  1.
<mgrwt>
<rscale>  0 0.11898274E+04</rscale>
<asrwt>0</asrwt>
<pdfrwt beam="1">  1        2 0.34374245E+00 0.11898274E+04</pdfrwt>
<pdfrwt beam="2">  1       -2 0.24369582E-01 0.11898274E+04</pdfrwt>
<totfact> 0.73526536E+01</totfact>
</mgrwt>
</event>
<event>
 6    1  0.1831439E-005  0.1359093E+04  0.7818608E-02  0.8983973E-01
         -1   -1    0    0    0  501 -0.00000000000E+00  0.00000000000E+00  0.10294056137E+04  0.10294056137E+04  0.00000000000E+00 0.  1.
          1   -1    0    0  501    0  0.00000000000E+00 -0.00000000000E+00 -0.44859257616E+03  0.44859257616E+03  0.00000000000E+00 0. -1.
         23    2    1    2    0    0 -0.15135926260E+02  0.67526617485E+03  0.26504318269E+03  0.73239500827E+03  0.99704845801E+02 0.  0.
         11    1    3    3    0    0  0.31944846837E-01  0.45231988276E+03  0.12730383332E+03  0.46989311906E+03  0.00000000000E+00 0.  1.
        -11    1    3    3    0    0 -0.15167871107E+02  0.22294629210E+03  0.13773934937E+03  0.26250188921E+03  0.00000000000E+00 0. -1.
         22    1    1    2    0    0  0.15135926260E+02 -0.67526617485E+03  0.31576985484E+03  0.74560318159E+03  0.00000000000E+00 0.  1.
<mgrwt>
<rscale>  0 0.13590934E+04</rscale>
<asrwt>0</asrwt>
<pdfrwt beam="1">  1        1 0.69014243E-01 0.13590934E+04</pdfrwt>
<pdfrwt beam="2">  1       -1 0.15837009E+00 0.13590934E+04</pdfrwt>
<totfact> 0.15124650E+01</totfact>
</mgrwt>
</event>
<event>
 6    1  0.1831439E-005  0.1147536E+04  0.7818608E-02  0.9160060E-01
          2   -1    0    0  501    0  0.00000000000E+00  0.00000000000E+00  0.12151281181E+04  0.12151281181E+04  0.00000000000E+00 0. -1.
         -2   -1    0    0    0  501 -0.00000000000E+00 -0.00000000000E+00 -0.27092602503E+03  0.27092602503E+03  0.00000000000E+00 0.  1.
         23    2    1    2    0    0 -0.55744601930E+03 -0.77730990584E+02  0.36034251193E+03  0.67507930886E+03  0.95379117276E+02 0.  0.
         13    1    3    3    0    0 -0.82040183103E+02 -0.32842646170E+02  0.25892948476E+02  0.92085155328E+02  0.00000000000E+00 0.  1.
        -13    1    3    3    0    0 -0.47540583620E+03 -0.44888344413E+02  0.33444956346E+03  0.58299415353E+03  0.00000000000E+00 0. -1.
         22    1    1    2    0    0  0.55744601930E+03  0.77730990584E+02  0.58385958115E+03  0.81097483428E+03  0.00000000000E+00 0. -1.
<mgrwt>
<rscale>  0 0.11475362E+04</rscale>
<asrwt>0</asrwt>
<pdfrwt beam="1">  1        2 0.18694278E+00 0.11475362E+04</pdfrwt>
<pdfrwt beam="2">  1       -2 0.41680928E-01 0.11475362E+04</pdfrwt>
<totfact> 0.10010264E+02</totfact>
</mgrwt>
</event>
<event>
 6    1  0.1831439E-005  0.4100952E+04  0.7818608E-02  0.7984485E-01
          2   -1    0    0  501    0  0.00000000000E+00  0.00000000000E+00  0.31359610554E+04  0.31359610554E+04  0.00000000000E+00 0. -1.
         -2   -1    0    0    0  501 -0.00000000000E+00 -0.00000000000E+00 -0.13407220208E+04  0.13407220208E+04  0.00000000000E+00 0.  1.
         23    2    1    2    0    0 -0.10251061657E+03 -0.18249164831E+04  0.19100785560E+04  0.26452856009E+04  0.91143971990E+02 0.  0.
         11    1    3    3    0    0 -0.16722974059E+02 -0.10422593522E+04  0.11128438932E+04  0.15247969523E+04  0.00000000000E+00 0. -1.
        -11    1    3    3    0    0 -0.85787642516E+02 -0.78265713084E+03  0.79723466285E+03  0.11204886486E+04  0.00000000000E+00 0.  1.
         22    1    1    2    0    0  0.10251061657E+03  0.18249164831E+04 -0.11483952150E+03  0.18313974753E+04  0.00000000000E+00 0.  1.
<mgrwt>
<rscale>  0 0.41009521E+04</rscale>
<asrwt>0</asrwt>
<pdfrwt beam="1">  1        2 0.48245554E+00 0.41009521E+04</pdfrwt>
<pdfrwt beam="2">  1       -2 0.20626493E+00 0.41009521E+04</pdfrwt>
<totfact> 0.13504389E-01</totfact>
</mgrwt>
</event>
<event>
 6    1  0.1831439E-005  0.2709456E+04  0.7818608E-02  0.8331943E-01
          1   -1    0    0  501    0  0.00000000000E+00  0.00000000000E+00  0.21091678375E+04  0.21091678375E+04  0.00000000000E+00 0. -1.
         -1   -1    0    0    0  501 -0.00000000000E+00 -0.00000000000E+00 -0.87014812741E+03  0.87014812741E+03  0.00000000000E+00 0.  1.
         23    2    1    2    0    0  0.86192447738E+03  0.95626068495E+03  0.16152766009E+03  0.13005255015E+04  0.89034222329E+02 0.  0.
         13    1    3    3    0    0  0.36296788793E+03  0.41702538767E+03  0.26059860481E+02  0.55347536346E+03  0.00000000000E+00 0. -1.
        -13    1    3    3    0    0  0.49895658946E+03  0.53923529727E+03  0.13546779961E+03  0.74705013802E+03  0.00000000000E+00 0.  1.
         22    1    1    2    0    0 -0.86192447738E+03 -0.95626068495E+03  0.10774920500E+04  0.16787904634E+04  0.00000000000E+00 0.  1.
<mgrwt>
<rscale>  0 0.27094564E+04</rscale>
<asrwt>0</asrwt>
<pdfrwt beam="1">  1        1 0.32448736E+00 0.27094564E+04</pdfrwt>
<pdfrwt beam="2">  1       -1 0.13386894E+00 0.27094564E+04</pdfrwt>
<totfact> 0.10313925E+00</totfact>
</mgrwt>
</event>
<event>
 6    1  0.1831439E-005  0.1972788E+04  0.7818608E-02  0.8619450E-01
          2   -1    0    0  501    0  0.00000000000E+00  0.00000000000E+00  0.37336034216E+04  0.37336034216E+04  0.00000000000E+00 0. -1.
         -2   -1    0    0    0  501 -0.00000000000E+00 -0.00000000000E+00 -0.26059895241E+03  0.26059895241E+03  0.00000000000E+00 0.  1.
         23    2    1    2    0    0 -0.57054228149E+03 -0.10983971046E+03  0.33488287679E+04  0.34000619346E+04  0.90464277185E+02 0.  0.
         11    1    3    3    0    0 -0.39253226802E+03 -0.11634090288E+03  0.23956430297E+04  0.24303749325E+04  0.00000000000E+00 0.  1.
        -11    1    3    3    0    0 -0.17801001346E+03  0.65011924175E+01  0.95318573823E+03  0.96968700206E+03  0.00000000000E+00 0. -1.
         22    1    1    2    0    0  0.57054228149E+03  0.10983971046E+03  0.12417570130E+03  0.59414043942E+03  0.00000000000E+00 0.  1.
<mgrwt>
<rscale>  0 0.19727880E+04</rscale>
<asrwt>0</asrwt>
<pdfrwt beam="1">  1        2 0.57440049E+00 0.19727880E+04</pdfrwt>
<pdfrwt beam="2">  1       -2 0.40092149E-01 0.19727880E+04</pdfrwt>
<totfact> 0.30457471E+00</totfact>
</mgrwt>
</event>
<event>
 6    1  0.1831439E-005  0.2374853E+04  0.7818608E-02  0.8448979E-01
          1   -1    0    0  501    0  0.00000000000E+00  0.00000000000E+00  0.99532110893E+03  0.99532110893E+03  0.00000000000E+00 0. -1.
         -1   -1    0    0    0  501 -0.00000000000E+00 -0.00000000000E+00 -0.14166098398E+04  0.14166098398E+04  0.00000000000E+00 0.  1.
         23    2    1    2    0    0  0.97639142784E+03  0.26372197670E+03 -0.84053527098E+03  0.13170989239E+04  0.73215655546E+02 0.  0.
         11    1    3    3    0    0  0.26878720297E+03  0.40336206566E+02 -0.21376827891E+03  0.34578959948E+03  0.00000000000E+00 0. -1.
        -11    1    3    3    0    0  0.70760422487E+03  0.22338577013E+03 -0.62676699206E+03  0.97130932441E+03  0.00000000000E+00 0.  1.
         22    1    1    2    0    0 -0.97639142784E+03 -0.26372197670E+03  0.41924654007E+03  0.10948320249E+04  0.00000000000E+00 0. -1.
<mgrwt>
<rscale>  0 0.23748530E+04</rscale>
<asrwt>0</asrwt>
<pdfrwt beam="1">  1        1 0.15312632E+00 0.23748530E+04</pdfrwt>
<pdfrwt beam="2">  1       -1 0.21793998E+00 0.23748530E+04</pdfrwt>
<totfact> 0.15568560E+00</totfact>
</mgrwt>
</event>
<event>
 6    1  0.1831439E-005  0.1926154E+04  0.7818608E-02  0.8641947E-01
         -2   -1    0    0    0  501 -0.00000000000E+00  0.00000000000E+00  0.60014981811E+03  0.60014981811E+03  0.00000000000E+00 0.  1.
          2   -1    0    0  501    0  0.00000000000E+00 -0.00000000000E+00 -0.15454755551E+04  0.15454755551E+04  0.00000000000E+00 0. -1.
         23    2    1    2    0    0 -0.44804424509E+03 -0.27437422766E+03 -0.13694573691E+04  0.14704124410E+04  0.10331698014E+03 0.  0.
         11    1    3    3    0    0 -0.24010926950E+03 -0.14482032488E+03 -0.87061801800E+03  0.91465901901E+03  0.00000000000E+00 0. -1.
        -11    1    3    3    0    0 -0.20793497559E+03 -0.12955390278E+03 -0.49883935114E+03  0.55575342198E+03  0.00000000000E+00 0.  1.
         22    1    1    2    0    0  0.44804424509E+03  0.27437422766E+03  0.42413163218E+03  0.67521293218E+03  0.00000000000E+00 0.  1.
<mgrwt>
<rscale>  0 0.19261535E+04</rscale>
<asrwt>0</asrwt>
<pdfrwt beam="1">  1        2 0.23776547E+00 0.19261535E+04</pdfrwt>
<pdfrwt beam="2">  1       -2 0.92330741E-01 0.19261535E+04</pdfrwt>
<totfact> 0.11139717E+01</totfact>
</mgrwt>
</event>
<event>
 6    1  0.1831439E-005  0.2467494E+04  0.7818608E-02  0.8414658E-01
         -1   -1    0    0    0  501 -0.00000000000E+00  0.00000000000E+00  0.12166745917E+04  0.12166745917E+04  0.00000000000E+00 0.  1.
          1   -1    0    0  501    0  0.00000000000E+00 -0.00000000000E+00 -0.12510584788E+04  0.12510584788E+04  0.00000000000E+00 0. -1.
         23    2    1    2    0    0  0.34810289311E+03 -0.99690701188E+03  0.61762909270E+03  0.12267173010E+04  0.91490031090E+02 0.  0.
         13    1    3    3    0    0  0.27366219099E+03 -0.65439594644E+03  0.42003671021E+03  0.82435179834E+03  0.00000000000E+00 0.  1.
        -13    1    3    3    0    0  0.74440702114E+02 -0.34251106544E+03  0.19759238249E+03  0.40236550262E+03  0.00000000000E+00 0. -1.
         22    1    1    2    0    0 -0.34810289311E+03  0.99690701188E+03 -0.65201297979E+03  0.12410157696E+04  0.00000000000E+00 0. -1.
<mgrwt>
<rscale>  0 0.24674935E+04</rscale>
<asrwt>0</asrwt>
<pdfrwt beam="1">  1        1 0.19247053E+00 0.24674935E+04</pdfrwt>
<pdfrwt beam="2">  1       -1 0.18718071E+00 0.24674935E+04</pdfrwt>
<totfact> 0.16166046E+00</totfact>
</mgrwt>
</event>
<event>
 6    1  0.1831439E-005  0.1844192E+04  0.7818608E-02  0.8683145E-01
          2   -1    0    0  501    0  0.00000000000E+00  0.00000000000E+00  0.29807243548E+03  0.29807243548E+03  0.00000000000E+00 0. -1.
         -2   -1    0    0    0  501 -0.00000000000E+00 -0.00000000000E+00 -0.28525330868E+04  0.28525330868E+04  0.00000000000E+00 0.  1.
         23    2    1    2    0    0 -0.85990568094E+03  0.17201337392E+02 -0.18375620472E+04  0.20309282140E+04  0.91112386269E+02 0.  0.
         11    1    3    3    0    0 -0.33669591463E+03 -0.13342762939E+02 -0.62766879135E+03  0.71239755746E+03  0.00000000000E+00 0.  1.
        -11    1    3    3    0    0 -0.52320976631E+03  0.30544100330E+02 -0.12098932558E+04  0.13185306565E+04  0.00000000000E+00 0. -1.
         22    1    1    2    0    0  0.85990568094E+03 -0.17201337392E+02 -0.71689860412E+03  0.11196773083E+04  0.00000000000E+00 0. -1.
<mgrwt>
<rscale>  0 0.18441925E+04</rscale>
<asrwt>0</asrwt>
<pdfrwt beam="1">  1        2 0.45857296E-01 0.18441925E+04</pdfrwt>
<pdfrwt beam="2">  1       -2 0.43885126E+00 0.18441925E+04</pdfrwt>
<totfact> 0.42947486E-01</totfact>
</mgrwt>
</event>
<event>
 6    1  0.1831439E-005  0.1804977E+04  0.7818608E-02  0.8703657E-01
          2   -1    0    0  501    0  0.00000000000E+00  0.00000000000E+00  0.23453257829E+04  0.23453257829E+04  0.00000000000E+00 0. -1.
         -2   -1    0    0    0  501 -0.00000000000E+00 -0.00000000000E+00 -0.34728043559E+03  0.34728043559E+03  0.00000000000E+00 0.  1.
         23    2    1    2    0    0 -0.24265408612E+03 -0.86414979258E+03  0.92367100086E+03  0.12926361810E+04  0.11001958514E+03 0.  0.
         13    1    3    3    0    0 -0.25157292174E+02 -0.24385111169E+03  0.21527135195E+03  0.32624838543E+03  0.00000000000E+00 0. -1.
        -13    1    3    3    0    0 -0.21749679395E+03 -0.62029868089E+03  0.70839964891E+03  0.96638779559E+03  0.00000000000E+00 0.  1.
         22    1    1    2    0    0  0.24265408612E+03  0.86414979258E+03  0.10743743465E+04  0.13999700375E+04  0.00000000000E+00 0. -1.
<mgrwt>
<rscale>  0 0.18049773E+04</rscale>
<asrwt>0</asrwt>
<pdfrwt beam="1">  1        2 0.36081934E+00 0.18049773E+04</pdfrwt>
<pdfrwt beam="2">  1       -2 0.53427761E-01 0.18049773E+04</pdfrwt>
<totfact> 0.13320698E+01</totfact>
</mgrwt>
</event>
<event>
 6    1  0.1831439E-005  0.2855762E+04  0.7818608E-02  0.8286163E-01
          1   -1    0    0  501    0  0.00000000000E+00  0.00000000000E+00  0.32501172412E+04  0.32501172412E+04  0.00000000000E+00 0. -1.
         -1   -1    0    0    0  501 -0.00000000000E+00 -0.00000000000E+00 -0.62731404995E+03  0.62731404995E+03  0.00000000000E+00 0.  1.
         23    2    1    2    0    0 -0.13493934416E+04 -0.45672297364E+03  0.14107690383E+04  0.20070074561E+04  0.91384432681E+02 0.  0.
         11    1    3    3    0    0 -0.11870916837E+04 -0.42194387044E+03  0.12139725878E+04  0.17495578696E+04  0.00000000000E+00 0.  1.
        -11    1    3    3    0    0 -0.16230175793E+03 -0.34779103204E+02  0.19679645052E+03  0.25744958649E+03  0.00000000000E+00 0. -1.
         22    1    1    2    0    0  0.13493934416E+04  0.45672297364E+03  0.12120341529E+04  0.18704238350E+04  0.00000000000E+00 0. -1.
<mgrwt>
<rscale>  0 0.28557620E+04</rscale>
<asrwt>0</asrwt>
<pdfrwt beam="1">  1        1 0.50001803E+00 0.28557620E+04</pdfrwt>
<pdfrwt beam="2">  1       -1 0.96509856E-01 0.28557620E+04</pdfrwt>
<totfact> 0.34673097E-01</totfact>
</mgrwt>
</event>
<event>
 6    1  0.1831439E-005  0.1333452E+04  0.7818608E-02  0.9003450E-01
          1   -1    0    0  501    0  0.00000000000E+00  0.00000000000E+00  0.46109720847E+03  0.46109720847E+03  0.00000000000E+00 0.  1.
         -1   -1    0    0    0  501 -0.00000000000E+00 -0.00000000000E+00 -0.96405668375E+03  0.96405668375E+03  0.00000000000E+00 0. -1.
         23    2    1    2    0    0  0.16840868158E+03 -0.37755075722E+03 -0.80739560876E+03  0.91174623969E+03  0.92127510685E+02 0.  0.
         13    1    3    3    0    0  0.76844643319E+02 -0.20284932786E+03 -0.32668082364E+03  0.39213940066E+03  0.00000000000E+00 0. -1.
        -13    1    3    3    0    0  0.91564038257E+02 -0.17470142937E+03 -0.48071478512E+03  0.51960683902E+03  0.00000000000E+00 0.  1.
         22    1    1    2    0    0 -0.16840868158E+03  0.37755075722E+03  0.30443613348E+03  0.51340765253E+03  0.00000000000E+00 0.  1.
<mgrwt>
<rscale>  0 0.13334524E+04</rscale>
<asrwt>0</asrwt>
<pdfrwt beam="1">  1        1 0.70938032E-01 0.13334524E+04</pdfrwt>
<pdfrwt beam="2">  1       -1 0.14831641E+00 0.13334524E+04</pdfrwt>
<totfact> 0.17462683E+01</totfact>
</mgrwt>
</event>
<event>
 6    1  0.1831439E-005  0.3255988E+04  0.7818608E-02  0.8174185E-01
          2   -1    0    0  501    0  0.00000000000E+00  0.00000000000E+00  0.14144804673E+04  0.14144804673E+04  0.00000000000E+00 0. -1.
         -2   -1    0    0    0  501 -0.00000000000E+00 -0.00000000000E+00 -0.18737374892E+04  0.18737374892E+04  0.00000000000E+00 0.  1.
         23    2    1    2    0    0 -0.13660078142E+04 -0.38716542539E+03 -0.10316870179E+04  0.17573520201E+04  0.89630375811E+02 0.  0.
         11    1    3    3    0    0 -0.28470387932E+03 -0.11664731028E+03 -0.23910325232E+03  0.38965787451E+03  0.00000000000E+00 0. -1.
        -11    1    3    3    0    0 -0.10813039349E+04 -0.27051811510E+03 -0.79258376563E+03  0.13676941456E+04  0.00000000000E+00 0.  1.
         22    1    1    2    0    0  0.13660078142E+04  0.38716542539E+03  0.57242999604E+03  0.15308659365E+04  0.00000000000E+00 0. -1.
<mgrwt>
<rscale>  0 0.32559884E+04</rscale>
<asrwt>0</asrwt>
<pdfrwt beam="1">  1        2 0.21761238E+00 0.32559884E+04</pdfrwt>
<pdfrwt beam="2">  1       -2 0.28826731E+00 0.32559884E+04</pdfrwt>
<totfact> 0.44613208E-01</totfact>
</mgrwt>
</event>
<event>
 6    1  0.1831439E-005  0.1269431E+04  0.7818608E-02  0.9054164E-01
         -1   -1    0    0    0  501 -0.00000000000E+00  0.00000000000E+00  0.28907003900E+03  0.28907003900E+03  0.00000000000E+00 0.  1.
          1   -1    0    0  501    0  0.00000000000E+00 -0.00000000000E+00 -0.13936548712E+04  0.13936548712E+04  0.00000000000E+00 0. -1.
         23    2    1    2    0    0  0.58930374556E+03 -0.21844215736E+03 -0.63743826434E+03  0.89964011497E+03  0.89604212992E+02 0.  0.
         13    1    3    3    0    0  0.11689699326E+03 -0.80598685394E+02 -0.12496549209E+03  0.18914922504E+03  0.00000000000E+00 0.  1.
        -13    1    3    3    0    0  0.47240675230E+03 -0.13784347197E+03 -0.51247277225E+03  0.71049088994E+03  0.00000000000E+00 0. -1.
         22    1    1    2    0    0 -0.58930374556E+03  0.21844215736E+03 -0.46714656787E+03  0.78308479523E+03  0.00000000000E+00 0.  1.
<mgrwt>
<rscale>  0 0.12694312E+04</rscale>
<asrwt>0</asrwt>
<pdfrwt beam="1">  1        1 0.21440844E+00 0.12694312E+04</pdfrwt>
<pdfrwt beam="2">  1       -1 0.44472314E-01 0.12694312E+04</pdfrwt>
<totfact> 0.38259402E+01</totfact>
</mgrwt>
</event>
<event>
 6    1  0.1831439E-005  0.7033345E+03  0.7818608E-02  0.9711547E-01
         -2   -1    0    0    0  501 -0.00000000000E+00  0.00000000000E+00  0.54834218258E+02  0.54834218258E+02  0.00000000000E+00 0.  1.
          2   -1    0    0  501    0  0.00000000000E+00 -0.00000000000E+00 -0.22553406724E+04  0.22553406724E+04  0.00000000000E+00 0. -1.
         23    2    1    2    0    0  0.11410231090E+02  0.21307720012E+03 -0.20126083195E+04  0.20258550082E+04  0.89242253150E+02 0.  0.
         11    1    3    3    0    0  0.42045048105E+01  0.11160167475E+03 -0.65608718095E+03  0.66552460561E+03  0.00000000000E+00 0. -1.
        -11    1    3    3    0    0  0.72057262796E+01  0.10147552537E+03 -0.13565211385E+04  0.13603304025E+04  0.00000000000E+00 0.  1.
         22    1    1    2    0    0 -0.11410231090E+02 -0.21307720012E+03 -0.18789813464E+03  0.28431988251E+03  0.00000000000E+00 0.  1.
<mgrwt>
<rscale>  0 0.70333447E+03</rscale>
<asrwt>0</asrwt>
<pdfrwt beam="1">  1        2 0.34697548E+00 0.70333447E+03</pdfrwt>
<pdfrwt beam="2">  1       -2 0.84360338E-02 0.70333447E+03</pdfrwt>
<totfact> 0.44921111E+02</totfact>
</mgrwt>
</event>
<event>
 6    1  0.1831439E-005  0.3029172E+04  0.7818608E-02  0.8235449E-01
          2   -1    0    0  501    0  0.00000000000E+00  0.00000000000E+00  0.34915082249E+04  0.34915082249E+04  0.00000000000E+00 0. -1.
         -2   -1    0    0    0  501 -0.00000000000E+00 -0.00000000000E+00 -0.65701433970E+03  0.65701433970E+03  0.00000000000E+00 0.  1.
         23    2    1    2    0    0  0.11097815216E+03 -0.13764131176E+04  0.22660215779E+04  0.26552074657E+04  0.91889465180E+02 0.  0.
         11    1    3    3    0    0  0.45980042490E+02 -0.10556745567E+04  0.17307130595E+04  0.20277895917E+04  0.00000000000E+00 0. -1.
        -11    1    3    3    0    0  0.64998109665E+02 -0.32073856090E+03  0.53530851840E+03  0.62741787397E+03  0.00000000000E+00 0.  1.
         22    1    1    2    0    0 -0.11097815216E+03  0.13764131176E+04  0.56847230731E+03  0.14933150989E+04  0.00000000000E+00 0.  1.
<mgrwt>
<rscale>  0 0.30291721E+04</rscale>
<asrwt>0</asrwt>
<pdfrwt beam="1">  1        2 0.53715510E+00 0.30291721E+04</pdfrwt>
<pdfrwt beam="2">  1       -2 0.10107913E+00 0.30291721E+04</pdfrwt>
<totfact> 0.56621084E-01</totfact>
</mgrwt>
</event>
<event>
 6    1  0.1831439E-005  0.1223008E+04  0.7818608E-02  0.9092953E-01
          2   -1    0    0  501    0  0.00000000000E+00  0.00000000000E+00  0.96552852890E+03  0.96552852890E+03  0.00000000000E+00 0.  1.
         -2   -1    0    0    0  501 -0.00000000000E+00 -0.00000000000E+00 -0.38728731674E+03  0.38728731674E+03  0.00000000000E+00 0. -1.
         23    2    1    2    0    0  0.21662813459E+03  0.14334584069E+03 -0.31737874785E+03  0.42028654770E+03  0.91846251143E+02 0.  0.
         13    1    3    3    0    0  0.21274906404E+03  0.10549595956E+03 -0.27284509233E+03  0.36171260158E+03  0.00000000000E+00 0. -1.
        -13    1    3    3    0    0  0.38790705515E+01  0.37849881127E+02 -0.44533655524E+02  0.58573946119E+02  0.00000000000E+00 0.  1.
         22    1    1    2    0    0 -0.21662813459E+03 -0.14334584069E+03  0.89561996002E+03  0.93252929794E+03  0.00000000000E+00 0.  1.
<mgrwt>
<rscale>  0 0.12230077E+04</rscale>
<asrwt>0</asrwt>
<pdfrwt beam="1">  1        2 0.14854285E+00 0.12230077E+04</pdfrwt>
<pdfrwt beam="2">  1       -2 0.59582664E-01 0.12230077E+04</pdfrwt>
<totfact> 0.68688894E+01</totfact>
</mgrwt>
</event>
<event>
 6    1  0.1831439E-005  0.1040377E+04  0.7818608E-02  0.9265336E-01
         -2   -1    0    0    0  501 -0.00000000000E+00  0.00000000000E+00  0.84896707627E+03  0.84896707627E+03  0.00000000000E+00 0.  1.
          2   -1    0    0  501    0  0.00000000000E+00 -0.00000000000E+00 -0.31873583422E+03  0.31873583422E+03  0.00000000000E+00 0. -1.
         23    2    1    2    0    0 -0.25189672758E+03  0.44304133721E+03  0.36022880437E+03  0.63045211556E+03  0.89260801387E+02 0.  0.
         11    1    3    3    0    0 -0.17219326594E+03  0.31869609898E+03  0.30227429716E+03  0.47179177087E+03  0.00000000000E+00 0. -1.
        -11    1    3    3    0    0 -0.79703461642E+02  0.12434523823E+03  0.57954507212E+02  0.15866034468E+03  0.00000000000E+00 0.  1.
         22    1    1    2    0    0  0.25189672758E+03 -0.44304133721E+03  0.17000243768E+03  0.53725079494E+03  0.00000000000E+00 0.  1.
<mgrwt>
<rscale>  0 0.10403773E+04</rscale>
<asrwt>0</asrwt>
<pdfrwt beam="1">  1        2 0.49036282E-01 0.10403773E+04</pdfrwt>
<pdfrwt beam="2">  1       -2 0.13061032E+00 0.10403773E+04</pdfrwt>
<totfact> 0.43840812E+01</totfact>
</mgrwt>
</event>
<event>
 6    1  0.1831439E-005  0.7303807E+04  0.7818608E-02  0.7546890E-01
         -1   -1    0    0    0  501 -0.00000000000E+00  0.00000000000E+00  0.30985767292E+04  0.30985767292E+04  0.00000000000E+00 0. -1.
          1   -1    0    0  501    0  0.00000000000E+00 -0.00000000000E+00 -0.43040403999E+04  0.43040403999E+04  0.00000000000E+00 0.  1.
         23    2    1    2    0    0 -0.83269299472E+03 -0.14979561516E+04 -0.38705716578E+04  0.42340132034E+04  0.91063672253E+02 0.  0.
         11    1    3    3    0    0 -0.55983079845E+03 -0.10831033537E+04 -0.27955250902E+04  0.30498334262E+04  0.00000000000E+00 0. -1.
        -11    1    3    3    0    0 -0.27286219627E+03 -0.41485279790E+03 -0.10750465676E+04  0.11841797771E+04  0.00000000000E+00 0.  1.
         22    1    1    2    0    0  0.83269299472E+03  0.14979561516E+04  0.26651079871E+04  0.31686039257E+04  0.00000000000E+00 0. -1.
<mgrwt>
<rscale>  0 0.73038071E+04</rscale>
<asrwt>0</asrwt>
<pdfrwt beam="1">  1        1 0.66216006E+00 0.73038071E+04</pdfrwt>
<pdfrwt beam="2">  1       -1 0.47670411E+00 0.73038071E+04</pdfrwt>
<totfact> 0.65137357E-05</totfact>
</mgrwt>
</event>
<event>
 6    1  0.1831439E-005  0.3844467E+04  0.7818608E-02  0.8036679E-01
          2   -1    0    0  501    0  0.00000000000E+00  0.00000000000E+00  0.26311421542E+04  0.26311421542E+04  0.00000000000E+00 0. -1.
         -2   -1    0    0    0  501 -0.00000000000E+00 -0.00000000000E+00 -0.14043257646E+04  0.14043257646E+04  0.00000000000E+00 0.  1.
         23    2    1    2    0    0  0.10232913088E+04  0.10828213606E+04  0.18869310527E+04  0.24059346820E+04  0.91573438825E+02 0.  0.
         11    1    3    3    0    0  0.46286612784E+03  0.53574349127E+03  0.84265624237E+03  0.11006069614E+04  0.00000000000E+00 0. -1.
        -11    1    3    3    0    0  0.56042518099E+03  0.54707786931E+03  0.10442748103E+04  0.13053277205E+04  0.00000000000E+00 0.  1.
         22    1    1    2    0    0 -0.10232913088E+04 -0.10828213606E+04 -0.66011466300E+03  0.16295332368E+04  0.00000000000E+00 0.  1.
<mgrwt>
<rscale>  0 0.38444665E+04</rscale>
<asrwt>0</asrwt>
<pdfrwt beam="1">  1        2 0.40479110E+00 0.38444665E+04</pdfrwt>
<pdfrwt beam="2">  1       -2 0.21605012E+00 0.38444665E+04</pdfrwt>
<totfact> 0.24404186E-01</totfact>
</mgrwt>
</event>
<event>
 6    1  0.1831439E-005  0.1166069E+04  0.7818608E-02  0.9143086E-01
          1   -1    0    0  501    0  0.00000000000E+00  0.00000000000E+00  0.51950799087E+03  0.51950799087E+03  0.00000000000E+00 0. -1.
         -1   -1    0    0    0  501 -0.00000000000E+00 -0.00000000000E+00 -0.65432941301E+03  0.65432941301E+03  0.00000000000E+00 0.  1.
         23    2    1    2    0    0  0.26288182301E+03 -0.51542573578E+03 -0.39377046573E+02  0.58742443438E+03  0.93522042011E+02 0.  0.
         11    1    3    3    0    0  0.16697040062E+03 -0.32994217151E+03  0.20022318698E+02  0.37032667264E+03  0.00000000000E+00 0.  1.
        -11    1    3    3    0    0  0.95911422388E+02 -0.18548356427E+03 -0.59399365271E+02  0.21709776174E+03  0.00000000000E+00 0. -1.
         22    1    1    2    0    0 -0.26288182301E+03  0.51542573578E+03 -0.95444375569E+02  0.58641296950E+03  0.00000000000E+00 0. -1.
<mgrwt>
<rscale>  0 0.11660692E+04</rscale>
<asrwt>0</asrwt>
<pdfrwt beam="1">  1        1 0.79924306E-01 0.11660692E+04</pdfrwt>
<pdfrwt beam="2">  1       -1 0.10066606E+00 0.11660692E+04</pdfrwt>
<totfact> 0.39159885E+01</totfact>
</mgrwt>
</event>
<event>
 6    1  0.1831439E-005  0.3075005E+04  0.7818608E-02  0.8222631E-01
          2   -1    0    0  501    0  0.00000000000E+00  0.00000000000E+00  0.10166550988E+04  0.10166550988E+04  0.00000000000E+00 0. -1.
         -2   -1    0    0    0  501 -0.00000000000E+00 -0.00000000000E+00 -0.23251882562E+04  0.23251882562E+04  0.00000000000E+00 0.  1.
         23    2    1    2    0    0  0.88730661396E+03 -0.11182876154E+04 -0.12713409828E+04  0.19138155277E+04  0.92204997257E+02 0.  0.
         11    1    3    3    0    0  0.24158861008E+03 -0.28469574878E+03 -0.38529107980E+03  0.53653139896E+03  0.00000000000E+00 0. -1.
        -11    1    3    3    0    0  0.64571800389E+03 -0.83359186663E+03 -0.88604990298E+03  0.13772841287E+04  0.00000000000E+00 0.  1.
         22    1    1    2    0    0 -0.88730661396E+03  0.11182876154E+04 -0.37192174620E+02  0.14280278274E+04  0.00000000000E+00 0.  1.
<mgrwt>
<rscale>  0 0.30750054E+04</rscale>
<asrwt>0</asrwt>
<pdfrwt beam="1">  1        2 0.15640848E+00 0.30750054E+04</pdfrwt>
<pdfrwt beam="2">  1       -2 0.35772127E+00 0.30750054E+04</pdfrwt>
<totfact> 0.29059282E-01</totfact>
</mgrwt>
</event>
<event>
 6    1  0.1831439E-005  0.4215464E+04  0.7818608E-02  0.7962437E-01
         -2   -1    0    0    0  501 -0.00000000000E+00  0.00000000000E+00  0.15531975945E+04  0.15531975945E+04  0.00000000000E+00 0.  1.
          2   -1    0    0  501    0  0.00000000000E+00 -0.00000000000E+00 -0.28602499952E+04  0.28602499952E+04  0.00000000000E+00 0. -1.
         23    2    1    2    0    0 -0.97389656974E+01 -0.14783977829E+04 -0.22251709506E+04  0.26731325252E+04  0.92178554412E+02 0.  0.
         11    1    3    3    0    0  0.37806864104E+02 -0.56143786674E+03 -0.87579422557E+03  0.10409886468E+04  0.00000000000E+00 0. -1.
        -11    1    3    3    0    0 -0.47545829801E+02 -0.91695991620E+03 -0.13493767251E+04  0.16321438785E+04  0.00000000000E+00 0.  1.
         22    1    1    2    0    0  0.97389656974E+01  0.14783977829E+04  0.91811854987E+03  0.17403150645E+04  0.00000000000E+00 0.  1.
<mgrwt>
<rscale>  0 0.42154636E+04</rscale>
<asrwt>0</asrwt>
<pdfrwt beam="1">  1        2 0.44003846E+00 0.42154636E+04</pdfrwt>
<pdfrwt beam="2">  1       -2 0.23895348E+00 0.42154636E+04</pdfrwt>
<totfact> 0.12384564E-01</totfact>
</mgrwt>
</event>
<event>
 6    1  0.1831439E-005  0.2172043E+04  0.7818608E-02  0.8530155E-01
         -2   -1    0    0    0  501 -0.00000000000E+00  0.00000000000E+00  0.94123996801E+03  0.94123996801E+03  0.00000000000E+00 0.  1.
          2   -1    0    0  501    0  0.00000000000E+00 -0.00000000000E+00 -0.12530730551E+04  0.12530730551E+04  0.00000000000E+00 0. -1.
         23    2    1    2    0    0 -0.10025632734E+04 -0.75898328278E+02 -0.56604643338E+03  0.11572411361E+04  0.88908991740E+02 0.  0.
         13    1    3    3    0    0 -0.34174895690E+03  0.11102437476E+02 -0.21534286162E+03  0.40408929918E+03  0.00000000000E+00 0. -1.
        -13    1    3    3    0    0 -0.66081431653E+03 -0.87000765754E+02 -0.35070357176E+03  0.75315183689E+03  0.00000000000E+00 0.  1.
         22    1    1    2    0    0  0.10025632734E+04  0.75898328278E+02  0.25421334629E+03  0.10370718870E+04  0.00000000000E+00 0.  1.
<mgrwt>
<rscale>  0 0.21720428E+04</rscale>
<asrwt>0</asrwt>
<pdfrwt beam="1">  1        2 0.19278047E+00 0.21720428E+04</pdfrwt>
<pdfrwt beam="2">  1       -2 0.14480615E+00 0.21720428E+04</pdfrwt>
<totfact> 0.53069585E+00</totfact>
</mgrwt>
</event>
<event>
 6    1  0.1831439E-005  0.6686282E+03  0.7818608E-02  0.9772439E-01
         -1   -1    0    0    0  501 -0.00000000000E+00  0.00000000000E+00  0.11964166510E+03  0.11964166510E+03  0.00000000000E+00 0.  1.
          1   -1    0    0  501    0  0.00000000000E+00 -0.00000000000E+00 -0.93417229583E+03  0.93417229583E+03  0.00000000000E+00 0. -1.
         23    2    1    2    0    0  0.21694862270E+03  0.53526618237E+02 -0.79345099033E+03  0.82936763106E+03  0.91402350307E+02 0.  0.
         13    1    3    3    0    0  0.14168722278E+03  0.51448841686E+02 -0.37438257696E+03  0.40358960138E+03  0.00000000000E+00 0. -1.
        -13    1    3    3    0    0  0.75261399915E+02  0.20777765512E+01 -0.41906841337E+03  0.42577802968E+03  0.00000000000E+00 0.  1.
         22    1    1    2    0    0 -0.21694862270E+03 -0.53526618237E+02 -0.21079640396E+02  0.22444632987E+03  0.00000000000E+00 0.  1.
<mgrwt>
<rscale>  0 0.66862823E+03</rscale>
<asrwt>0</asrwt>
<pdfrwt beam="1">  1        1 0.14371882E+00 0.66862823E+03</pdfrwt>
<pdfrwt beam="2">  1       -1 0.18406410E-01 0.66862823E+03</pdfrwt>
<totfact> 0.40593631E+02</totfact>
</mgrwt>
</event>
<event>
 6    1  0.1831439E-005  0.2766309E+04  0.7818608E-02  0.8313805E-01
          2   -1    0    0  501    0  0.00000000000E+00  0.00000000000E+00  0.30023539982E+04  0.30023539982E+04  0.00000000000E+00 0. -1.
         -2   -1    0    0    0  501 -0.00000000000E+00 -0.00000000000E+00 -0.63720563568E+03  0.63720563568E+03  0.00000000000E+00 0.  1.
         23    2    1    2    0    0  0.50879299690E+03 -0.66187809740E+03  0.26322901252E+04  0.27630223267E+04  0.91586817440E+02 0.  0.
         13    1    3    3    0    0  0.49414382100E+03 -0.60870883796E+03  0.24301942097E+04  0.25535364619E+04  0.00000000000E+00 0.  1.
        -13    1    3    3    0    0  0.14649175908E+02 -0.53169259438E+02  0.20209591546E+03  0.20948586480E+03  0.00000000000E+00 0. -1.
         22    1    1    2    0    0 -0.50879299690E+03  0.66187809740E+03 -0.26714176267E+03  0.87653730718E+03  0.00000000000E+00 0.  1.
<mgrwt>
<rscale>  0 0.27663094E+04</rscale>
<asrwt>0</asrwt>
<pdfrwt beam="1">  1        2 0.46190061E+00 0.27663094E+04</pdfrwt>
<pdfrwt beam="2">  1       -2 0.98031638E-01 0.27663094E+04</pdfrwt>
<totfact> 0.13103276E+00</totfact>
</mgrwt>
</event>
<event>
 6    1  0.1831439E-005  0.6033900E+03  0.7818608E-02  0.9898398E-01
         -1   -1    0    0    0  501 -0.00000000000E+00  0.00000000000E+00  0.20752606601E+03  0.20752606601E+03  0.00000000000E+00 0.  1.
          1   -1    0    0  501    0  0.00000000000E+00 -0.00000000000E+00 -0.43859490714E+03  0.43859490714E+03  0.00000000000E+00 0. -1.
         23    2    1    2    0    0 -0.29082666599E+02  0.13565027049E+03 -0.39664676026E+03  0.43010512956E+03  0.91733160156E+02 0.  0.
         11    1    3    3    0    0 -0.53963127432E+02  0.11105545048E+03 -0.35417153925E+03  0.37507707397E+03  0.00000000000E+00 0.  1.
        -11    1    3    3    0    0  0.24880460833E+02  0.24594820006E+02 -0.42475221007E+02  0.55028055590E+02  0.00000000000E+00 0. -1.
         22    1    1    2    0    0  0.29082666599E+02 -0.13565027049E+03  0.16557791913E+03  0.21601584359E+03  0.00000000000E+00 0.  1.
<mgrwt>
<rscale>  0 0.60339001E+03</rscale>
<asrwt>0</asrwt>
<pdfrwt beam="1">  1        1 0.67476139E-01 0.60339001E+03</pdfrwt>
<pdfrwt beam="2">  1       -1 0.31927087E-01 0.60339001E+03</pdfrwt>
<totfact> 0.48990293E+02</totfact>
</mgrwt>
</event>
<event>
 6    1  0.1831439E-005  0.1912848E+04  0.7818608E-02  0.8648487E-01
          2   -1    0    0  501    0  0.00000000000E+00  0.00000000000E+00  0.46083101404E+04  0.46083101404E+04  0.00000000000E+00 0.  1.
         -2   -1    0    0    0  501 -0.00000000000E+00 -0.00000000000E+00 -0.19849949745E+03  0.19849949745E+03  0.00000000000E+00 0. -1.
         23    2    1    2    0    0  0.56892185042E+03  0.73077121363E+03  0.27877372629E+04  0.29389711307E+04  0.91507494395E+02 0.  0.
         13    1    3    3    0    0  0.31249464653E+03  0.33551788589E+03  0.13075628511E+04  0.13856210757E+04  0.00000000000E+00 0. -1.
        -13    1    3    3    0    0  0.25642720390E+03  0.39525332774E+03  0.14801744118E+04  0.15533500550E+04  0.00000000000E+00 0.  1.
         22    1    1    2    0    0 -0.56892185042E+03 -0.73077121363E+03  0.16220733801E+04  0.18678385072E+04  0.00000000000E+00 0. -1.
<mgrwt>
<rscale>  0 0.19128484E+04</rscale>
<asrwt>0</asrwt>
<pdfrwt beam="1">  1        2 0.70897071E+00 0.19128484E+04</pdfrwt>
<pdfrwt beam="2">  1       -2 0.30538388E-01 0.19128484E+04</pdfrwt>
<totfact> 0.90799609E-01</totfact>
</mgrwt>
</event>
<event>
 6    1  0.1831439E-005  0.8690737E+03  0.7818608E-02  0.9465089E-01
          2   -1    0    0  501    0  0.00000000000E+00  0.00000000000E+00  0.39039387553E+03  0.39039387553E+03  0.00000000000E+00 0.  1.
         -2   -1    0    0    0  501 -0.00000000000E+00 -0.00000000000E+00 -0.48367117139E+03  0.48367117139E+03  0.00000000000E+00 0. -1.
         23    2    1    2    0    0 -0.12859121521E+03 -0.36333517703E+03 -0.23858843451E+03  0.46216277875E+03  0.90121259880E+02 0.  0.
         11    1    3    3    0    0 -0.41338687479E+01 -0.12376505507E+03 -0.97101252054E+02  0.15736432530E+03  0.00000000000E+00 0. -1.
        -11    1    3    3    0    0 -0.12445734646E+03 -0.23957012197E+03 -0.14148718246E+03  0.30479845345E+03  0.00000000000E+00 0.  1.
         22    1    1    2    0    0  0.12859121521E+03  0.36333517703E+03  0.14531113865E+03  0.41190226816E+03  0.00000000000E+00 0.  1.
<mgrwt>
<rscale>  0 0.86907367E+03</rscale>
<asrwt>0</asrwt>
<pdfrwt beam="1">  1        2 0.60060596E-01 0.86907367E+03</pdfrwt>
<pdfrwt beam="2">  1       -2 0.74410950E-01 0.86907367E+03</pdfrwt>
<totfact> 0.13351744E+02</totfact>
</mgrwt>
</event>
<event>
 6    1  0.1831439E-005  0.5966340E+04  0.7818608E-02  0.7694589E-01
         -1   -1    0    0    0  501 -0.00000000000E+00  0.00000000000E+00  0.26030157668E+04  0.26030157668E+04  0.00000000000E+00 0.  1.
          1   -1    0    0  501    0  0.00000000000E+00 -0.00000000000E+00 -0.34188434376E+04  0.34188434376E+04  0.00000000000E+00 0. -1.
         23    2    1    2    0    0  0.19497009381E+04  0.22502032392E+04 -0.58407984737E+03  0.30354808929E+04  0.90810886468E+02 0.  0.
         13    1    3    3    0    0  0.13773153831E+04  0.16112578896E+04 -0.37636289963E+03  0.21528582591E+04  0.00000000000E+00 0. -1.
        -13    1    3    3    0    0  0.57238555500E+03  0.63894534957E+03 -0.20771694774E+03  0.88262263380E+03  0.00000000000E+00 0.  1.
         22    1    1    2    0    0 -0.19497009381E+04 -0.22502032392E+04 -0.23174782347E+03  0.29863783115E+04  0.00000000000E+00 0.  1.
<mgrwt>
<rscale>  0 0.59663400E+04</rscale>
<asrwt>0</asrwt>
<pdfrwt beam="1">  1        1 0.52597592E+00 0.59663400E+04</pdfrwt>
<pdfrwt beam="2">  1       -1 0.40046396E+00 0.59663400E+04</pdfrwt>
<totfact> 0.13759725E-03</totfact>
</mgrwt>
</event>
<event>
 6    1  0.1831439E-005  0.2450314E+04  0.7818608E-02  0.8420903E-01
         -1   -1    0    0    0  501 -0.00000000000E+00  0.00000000000E+00  0.90118816298E+03  0.90118816298E+03  0.00000000000E+00 0.  1.
          1   -1    0    0  501    0  0.00000000000E+00 -0.00000000000E+00 -0.16655891100E+04  0.16655891100E+04  0.00000000000E+00 0. -1.
         23    2    1    2    0    0 -0.68716378816E+03 -0.99824965865E+03 -0.55823189388E+03  0.13374676573E+04  0.92197799537E+02 0.  0.
         13    1    3    3    0    0 -0.10507655123E+02 -0.46194297103E+02 -0.22476648961E+02  0.52435900388E+02  0.00000000000E+00 0.  1.
        -13    1    3    3    0    0 -0.67665613303E+03 -0.95205536155E+03 -0.53575524492E+03  0.12850317569E+04  0.00000000000E+00 0. -1.
         22    1    1    2    0    0  0.68716378816E+03  0.99824965865E+03 -0.20616905315E+03  0.12293096157E+04  0.00000000000E+00 0.  1.
<mgrwt>
<rscale>  0 0.24503136E+04</rscale>
<asrwt>0</asrwt>
<pdfrwt beam="1">  1        1 0.25624448E+00 0.24503136E+04</pdfrwt>
<pdfrwt beam="2">  1       -1 0.13864433E+00 0.24503136E+04</pdfrwt>
<totfact> 0.19300451E+00</totfact>
</mgrwt>
</event>
<event>
 6    1  0.1831439E-005  0.2060321E+04  0.7818608E-02  0.8578927E-01
          1   -1    0    0  501    0  0.00000000000E+00  0.00000000000E+00  0.23028520804E+04  0.23028520804E+04  0.00000000000E+00 0. -1.
         -1   -1    0    0    0  501 -0.00000000000E+00 -0.00000000000E+00 -0.46083301519E+03  0.46083301519E+03  0.00000000000E+00 0.  1.
         23    2    1    2    0    0  0.14263022914E+03 -0.98945785081E+03  0.12454516005E+04  0.15995274771E+04  0.89264998725E+02 0.  0.
         11    1    3    3    0    0  0.14987595608E+03 -0.87169038754E+03  0.10725857209E+04  0.13902327369E+04  0.00000000000E+00 0. -1.
        -11    1    3    3    0    0 -0.72457269391E+01 -0.11776746327E+03  0.17286587954E+03  0.20929474019E+03  0.00000000000E+00 0.  1.
         22    1    1    2    0    0 -0.14263022914E+03  0.98945785081E+03  0.59656746474E+03  0.11641576185E+04  0.00000000000E+00 0.  1.
<mgrwt>
<rscale>  0 0.20603206E+04</rscale>
<asrwt>0</asrwt>
<pdfrwt beam="1">  1        1 0.35428493E+00 0.20603206E+04</pdfrwt>
<pdfrwt beam="2">  1       -1 0.70897388E-01 0.20603206E+04</pdfrwt>
<totfact> 0.34366551E+00</totfact>
</mgrwt>
</event>
<event>
 6    1  0.1831439E-005  0.4241049E+04  0.7818608E-02  0.7957609E-01
          2   -1    0    0  501    0  0.00000000000E+00  0.00000000000E+00  0.12560364665E+04  0.12560364665E+04  0.00000000000E+00 0. -1.
         -2   -1    0    0    0  501 -0.00000000000E+00 -0.00000000000E+00 -0.35800116345E+04  0.35800116345E+04  0.00000000000E+00 0.  1.
         23    2    1    2    0    0  0.57633030432E+03  0.10522371568E+04 -0.31549749629E+04  0.33766234497E+04  0.91428936648E+02 0.  0.
         11    1    3    3    0    0  0.89926669513E+02  0.17406011723E+03 -0.42707279538E+03  0.46986689908E+03  0.00000000000E+00 0.  1.
        -11    1    3    3    0    0  0.48640363481E+03  0.87817703960E+03 -0.27279021675E+04  0.29067565506E+04  0.00000000000E+00 0. -1.
         22    1    1    2    0    0 -0.57633030432E+03 -0.10522371568E+04  0.83099979483E+03  0.14594246513E+04  0.00000000000E+00 0. -1.
<mgrwt>
<rscale>  0 0.42410495E+04</rscale>
<asrwt>0</asrwt>
<pdfrwt beam="1">  1        2 0.19323638E+00 0.42410495E+04</pdfrwt>
<pdfrwt beam="2">  1       -2 0.55077102E+00 0.42410495E+04</pdfrwt>
<totfact> 0.11517428E-02</totfact>
</mgrwt>
</event>
<event>
 6    1  0.1831439E-005  0.3506171E+04  0.7818608E-02  0.8112329E-01
         -1   -1    0    0    0  501 -0.00000000000E+00  0.00000000000E+00  0.15460842412E+04  0.15460842412E+04  0.00000000000E+00 0.  1.
          1   -1    0    0  501    0  0.00000000000E+00 -0.00000000000E+00 -0.19878012484E+04  0.19878012484E+04  0.00000000000E+00 0. -1.
         23    2    1    2    0    0  0.11393604899E+04 -0.74015490324E+02  0.11181247552E+04  0.16008239431E+04  0.93881360010E+02 0.  0.
         13    1    3    3    0    0  0.45029277155E+03 -0.19149543134E+02  0.37948643019E+03  0.58918607910E+03  0.00000000000E+00 0. -1.
        -13    1    3    3    0    0  0.68906771840E+03 -0.54865947190E+02  0.73863832504E+03  0.10116378640E+04  0.00000000000E+00 0.  1.
         22    1    1    2    0    0 -0.11393604899E+04  0.74015490324E+02 -0.15598417624E+04  0.19330615465E+04  0.00000000000E+00 0. -1.
<mgrwt>
<rscale>  0 0.35061707E+04</rscale>
<asrwt>0</asrwt>
<pdfrwt beam="1">  1        1 0.30581558E+00 0.35061707E+04</pdfrwt>
<pdfrwt beam="2">  1       -1 0.23785912E+00 0.35061707E+04</pdfrwt>
<totfact> 0.20743561E-01</totfact>
</mgrwt>
</event>
<event>
 6    1  0.1831439E-005  0.1504288E+04  0.7818608E-02  0.8881607E-01
         -2   -1    0    0    0  501 -0.00000000000E+00  0.00000000000E+00  0.47721833260E+03  0.47721833260E+03  0.00000000000E+00 0.  1.
          2   -1    0    0  501    0  0.00000000000E+00 -0.00000000000E+00 -0.11854542267E+04  0.11854542267E+04  0.00000000000E+00 0. -1.
         23    2    1    2    0    0 -0.50960108497E+03 -0.40517131971E+03  0.54976720970E+02  0.65950230458E+03  0.89798584474E+02 0.  0.
         13    1    3    3    0    0 -0.27939277139E+03 -0.24937708742E+03  0.70590132912E+02  0.38109345219E+03  0.00000000000E+00 0.  1.
        -13    1    3    3    0    0 -0.23020831358E+03 -0.15579423229E+03 -0.15613411941E+02  0.27840885239E+03  0.00000000000E+00 0. -1.
         22    1    1    2    0    0  0.50960108497E+03  0.40517131971E+03 -0.76321261502E+03  0.10031702547E+04  0.00000000000E+00 0. -1.
<mgrwt>
<rscale>  0 0.15042879E+04</rscale>
<asrwt>0</asrwt>
<pdfrwt beam="1">  1        2 0.18237757E+00 0.15042879E+04</pdfrwt>
<pdfrwt beam="2">  1       -2 0.73418206E-01 0.15042879E+04</pdfrwt>
<totfact> 0.31250040E+01</totfact>
</mgrwt>
</event>
<event>
 6    1  0.1831439E-005  0.3001782E+03  0.7818608E-02  0.1085152E+00
          2   -1    0    0  501    0  0.00000000000E+00  0.00000000000E+00  0.32055686232E+02  0.32055686232E+02  0.00000000000E+00 0. -1.
         -2   -1    0    0    0  501 -0.00000000000E+00 -0.00000000000E+00 -0.70273749348E+03  0.70273749348E+03  0.00000000000E+00 0.  1.
         23    2    1    2    0    0  0.12494828456E+03  0.43613142760E+02 -0.45040772363E+03  0.47782070658E+03  0.89058015309E+02 0.  0.
         13    1    3    3    0    0  0.11830918583E+03  0.56366062698E+02 -0.30842906628E+03  0.33511592830E+03  0.00000000000E+00 0. -1.
        -13    1    3    3    0    0  0.66390987306E+01 -0.12752919938E+02 -0.14197865735E+03  0.14270477828E+03  0.00000000000E+00 0.  1.
         22    1    1    2    0    0 -0.12494828456E+03 -0.43613142760E+02 -0.22027408362E+03  0.25697247314E+03  0.00000000000E+00 0. -1.
<mgrwt>
<rscale>  0 0.30017816E+03</rscale>
<asrwt>0</asrwt>
<pdfrwt beam="1">  1        2 0.49316442E-02 0.30017816E+03</pdfrwt>
<pdfrwt beam="2">  1       -2 0.10811346E+00 0.30017816E+03</pdfrwt>
<totfact> 0.11450476E+03</totfact>
</mgrwt>
</event>
<event>
 6    1  0.1831439E-005  0.7108690E+03  0.7818608E-02  0.9698823E-01
         -1   -1    0    0    0  501 -0.00000000000E+00  0.00000000000E+00  0.16289991410E+03  0.16289991410E+03  0.00000000000E+00 0.  1.
          1   -1    0    0  501    0  0.00000000000E+00 -0.00000000000E+00 -0.77552951482E+03  0.77552951482E+03  0.00000000000E+00 0. -1.
         23    2    1    2    0    0  0.10169917167E+03  0.28543569193E+03 -0.54139412283E+03  0.62715664011E+03  0.91660238116E+02 0.  0.
         13    1    3    3    0    0  0.66098988156E+02  0.64519306772E+02 -0.14349705874E+03  0.17065527548E+03  0.00000000000E+00 0.  1.
        -13    1    3    3    0    0  0.35600183510E+02  0.22091638515E+03 -0.39789706409E+03  0.45650136463E+03  0.00000000000E+00 0. -1.
         22    1    1    2    0    0 -0.10169917167E+03 -0.28543569193E+03 -0.71235477886E+02  0.31127278881E+03  0.00000000000E+00 0.  1.
<mgrwt>
<rscale>  0 0.71086902E+03</rscale>
<asrwt>0</asrwt>
<pdfrwt beam="1">  1        1 0.11931223E+00 0.71086902E+03</pdfrwt>
<pdfrwt beam="2">  1       -1 0.25061525E-01 0.71086902E+03</pdfrwt>
<totfact> 0.32765079E+02</totfact>
</mgrwt>
</event>
<event>
 6    1  0.1831439E-005  0.2876538E+04  0.7818608E-02  0.8279892E-01
         -1   -1    0    0    0  501 -0.00000000000E+00  0.00000000000E+00  0.12376317756E+04  0.12376317756E+04  0.00000000000E+00 0.  1.
          1   -1    0    0  501    0  0.00000000000E+00 -0.00000000000E+00 -0.16714327389E+04  0.16714327389E+04  0.00000000000E+00 0. -1.
         23    2    1    2    0    0  0.31441804681E+03  0.18769212907E+03  0.11879079392E+04  0.12465282570E+04  0.92846001163E+02 0.  0.
         13    1    3    3    0    0  0.25879812357E+03  0.11001761426E+03  0.84525791920E+03  0.89080934783E+03  0.00000000000E+00 0.  1.
        -13    1    3    3    0    0  0.55619923234E+02  0.77674514812E+02  0.34265002000E+03  0.35571890913E+03  0.00000000000E+00 0. -1.
         22    1    1    2    0    0 -0.31441804681E+03 -0.18769212907E+03 -0.16217089025E+04  0.16625362576E+04  0.00000000000E+00 0. -1.
<mgrwt>
<rscale>  0 0.28765384E+04</rscale>
<asrwt>0</asrwt>
<pdfrwt beam="1">  1        1 0.25714350E+00 0.28765384E+04</pdfrwt>
<pdfrwt beam="2">  1       -1 0.19040489E+00 0.28765384E+04</pdfrwt>
<totfact> 0.75271019E-01</totfact>
</mgrwt>
</event>
<event>
 6    1  0.1831439E-005  0.5647566E+04  0.7818608E-02  0.7735704E-01
         -1   -1    0    0    0  501 -0.00000000000E+00  0.00000000000E+00  0.19730097701E+04  0.19730097701E+04  0.00000000000E+00 0.  1.
          1   -1    0    0  501    0  0.00000000000E+00 -0.00000000000E+00 -0.40414141087E+04  0.40414141087E+04  0.00000000000E+00 0. -1.
         23    2    1    2    0    0  0.25975053006E+04 -0.13746448184E+03 -0.22029997561E+04  0.34098037152E+04  0.87310828682E+02 0.  0.
         13    1    3    3    0    0  0.10069136435E+04 -0.12571421142E+02 -0.83612802555E+03  0.13088709643E+04  0.00000000000E+00 0.  1.
        -13    1    3    3    0    0  0.15905916571E+04 -0.12489306069E+03 -0.13668717306E+04  0.21009327509E+04  0.00000000000E+00 0. -1.
         22    1    1    2    0    0 -0.25975053006E+04  0.13746448184E+03  0.13459541752E+03  0.26046201636E+04  0.00000000000E+00 0. -1.
<mgrwt>
<rscale>  0 0.56475657E+04</rscale>
<asrwt>0</asrwt>
<pdfrwt beam="1">  1        1 0.62175601E+00 0.56475657E+04</pdfrwt>
<pdfrwt beam="2">  1       -1 0.30353997E+00 0.56475657E+04</pdfrwt>
<totfact> 0.18879962E-03</totfact>
</mgrwt>
</event>
<event>
 6    1  0.1831439E-005  0.1577261E+04  0.7818608E-02  0.8834640E-01
         -2   -1    0    0    0  501 -0.00000000000E+00  0.00000000000E+00  0.66706569176E+03  0.66706569176E+03  0.00000000000E+00 0.  1.
          2   -1    0    0  501    0  0.00000000000E+00 -0.00000000000E+00 -0.93234907154E+03  0.93234907154E+03  0.00000000000E+00 0. -1.
         23    2    1    2    0    0  0.22885361894E+02 -0.67616069092E+03 -0.53835036907E+03  0.86983776232E+03  0.95286899130E+02 0.  0.
         11    1    3    3    0    0 -0.37545610035E+02 -0.26027124536E+03 -0.20841456213E+03  0.33554049488E+03  0.00000000000E+00 0.  1.
        -11    1    3    3    0    0  0.60430971930E+02 -0.41588944555E+03 -0.32993580694E+03  0.53429726744E+03  0.00000000000E+00 0. -1.
         22    1    1    2    0    0 -0.22885361894E+02  0.67616069092E+03  0.27306698929E+03  0.72957700099E+03  0.00000000000E+00 0.  1.
<mgrwt>
<rscale>  0 0.15772610E+04</rscale>
<asrwt>0</asrwt>
<pdfrwt beam="1">  1        2 0.14343832E+00 0.15772610E+04</pdfrwt>
<pdfrwt beam="2">  1       -2 0.10262549E+00 0.15772610E+04</pdfrwt>
<totfact> 0.20807989E+01</totfact>
</mgrwt>
</event>
<event>
 6    1  0.1831439E-005  0.1536733E+04  0.7818608E-02  0.8860387E-01
         -2   -1    0    0    0  501 -0.00000000000E+00  0.00000000000E+00  0.25880550160E+03  0.25880550160E+03  0.00000000000E+00 0.  1.
          2   -1    0    0  501    0  0.00000000000E+00 -0.00000000000E+00 -0.22811984786E+04  0.22811984786E+04  0.00000000000E+00 0. -1.
         23    2    1    2    0    0  0.47125292223E+03 -0.19862400765E+03 -0.19565689003E+04  0.20243843314E+04  0.91865371264E+02 0.  0.
         11    1    3    3    0    0  0.92686996167E+02 -0.35398240271E+02 -0.25587912757E+03  0.27444132815E+03  0.00000000000E+00 0.  1.
        -11    1    3    3    0    0  0.37856592607E+03 -0.16322576738E+03 -0.17006897727E+04  0.17499430033E+04  0.00000000000E+00 0. -1.
         22    1    1    2    0    0 -0.47125292223E+03  0.19862400765E+03 -0.65824076665E+02  0.51561964877E+03  0.00000000000E+00 0.  1.
<mgrwt>
<rscale>  0 0.15367325E+04</rscale>
<asrwt>0</asrwt>
<pdfrwt beam="1">  1        2 0.35095361E+00 0.15367325E+04</pdfrwt>
<pdfrwt beam="2">  1       -2 0.39816231E-01 0.15367325E+04</pdfrwt>
<totfact> 0.26752373E+01</totfact>
</mgrwt>
</event>
<event>
 6    1  0.1831439E-005  0.1277809E+04  0.7818608E-02  0.9047350E-01
          2   -1    0    0  501    0  0.00000000000E+00  0.00000000000E+00  0.13812313278E+04  0.13812313278E+04  0.00000000000E+00 0. -1.
         -2   -1    0    0    0  501 -0.00000000000E+00 -0.00000000000E+00 -0.29553254058E+03  0.29553254058E+03  0.00000000000E+00 0.  1.
         23    2    1    2    0    0  0.39655505643E+03  0.39220976484E+03  0.14684226070E+03  0.58473090651E+03  0.96245369188E+02 0.  0.
         13    1    3    3    0    0  0.67195002929E+02  0.83128949940E+02  0.66723960389E+02  0.12600665707E+03  0.00000000000E+00 0. -1.
        -13    1    3    3    0    0  0.32936005350E+03  0.30908081490E+03  0.80118300315E+02  0.45872424944E+03  0.00000000000E+00 0.  1.
         22    1    1    2    0    0 -0.39655505643E+03 -0.39220976484E+03  0.93885652650E+03  0.10920329618E+04  0.00000000000E+00 0. -1.
<mgrwt>
<rscale>  0 0.12778088E+04</rscale>
<asrwt>0</asrwt>
<pdfrwt beam="1">  1        2 0.21249712E+00 0.12778088E+04</pdfrwt>
<pdfrwt beam="2">  1       -2 0.45466545E-01 0.12778088E+04</pdfrwt>
<totfact> 0.66774104E+01</totfact>
</mgrwt>
</event>
<event>
 6    1  0.1831439E-005  0.1870685E+04  0.7818608E-02  0.8669588E-01
         -1   -1    0    0    0  501 -0.00000000000E+00  0.00000000000E+00  0.23937760940E+03  0.23937760940E+03  0.00000000000E+00 0.  1.
          1   -1    0    0  501    0  0.00000000000E+00 -0.00000000000E+00 -0.36547504787E+04  0.36547504787E+04  0.00000000000E+00 0. -1.
         23    2    1    2    0    0  0.44889502329E+03 -0.44160346720E+03 -0.27823045631E+03  0.69441202515E+03  0.90969828396E+02 0.  0.
         11    1    3    3    0    0  0.22760083139E+02 -0.13566349313E+02  0.55561553493E+01  0.27072829192E+02  0.00000000000E+00 0.  1.
        -11    1    3    3    0    0  0.42613494015E+03 -0.42803711789E+03 -0.28378661166E+03  0.66733919596E+03  0.00000000000E+00 0. -1.
         22    1    1    2    0    0 -0.44889502329E+03  0.44160346720E+03 -0.31371424130E+04  0.31997160629E+04  0.00000000000E+00 0. -1.
<mgrwt>
<rscale>  0 0.18706848E+04</rscale>
<asrwt>0</asrwt>
<pdfrwt beam="1">  1        1 0.56226927E+00 0.18706848E+04</pdfrwt>
<pdfrwt beam="2">  1       -1 0.36827327E-01 0.18706848E+04</pdfrwt>
<totfact> 0.12561861E+00</totfact>
</mgrwt>
</event>
<event>
 6    1  0.1831439E-005  0.2226014E+04  0.7818608E-02  0.8507678E-01
         -1   -1    0    0    0  501 -0.00000000000E+00  0.00000000000E+00  0.59540057469E+03  0.59540057469E+03  0.00000000000E+00 0.  1.
          1   -1    0    0  501    0  0.00000000000E+00 -0.00000000000E+00 -0.20805895411E+04  0.20805895411E+04  0.00000000000E+00 0. -1.
         23    2    1    2    0    0 -0.10144048924E+03  0.10231457015E+04 -0.23727501465E+03  0.10590774619E+04  0.90710189140E+02 0.  0.
         11    1    3    3    0    0  0.12319584955E+02  0.28611886799E+03 -0.63095289562E+02  0.29325210035E+03  0.00000000000E+00 0. -1.
        -11    1    3    3    0    0 -0.11376007420E+03  0.73702683348E+03 -0.17417972509E+03  0.76582536154E+03  0.00000000000E+00 0.  1.
         22    1    1    2    0    0  0.10144048924E+03 -0.10231457015E+04 -0.12479139517E+04  0.16169126539E+04  0.00000000000E+00 0. -1.
<mgrwt>
<rscale>  0 0.22260137E+04</rscale>
<asrwt>0</asrwt>
<pdfrwt beam="1">  1        1 0.32009070E+00 0.22260137E+04</pdfrwt>
<pdfrwt beam="2">  1       -1 0.91600089E-01 0.22260137E+04</pdfrwt>
<totfact> 0.27755842E+00</totfact>
</mgrwt>
</event>
<event>
 6    1  0.1831439E-005  0.1775815E+04  0.7818608E-02  0.8719268E-01
         -2   -1    0    0    0  501 -0.00000000000E+00  0.00000000000E+00  0.34591040004E+03  0.34591040004E+03  0.00000000000E+00 0.  1.
          2   -1    0    0  501    0  0.00000000000E+00 -0.00000000000E+00 -0.22791433202E+04  0.22791433202E+04  0.00000000000E+00 0. -1.
         23    2    1    2    0    0  0.82131417924E+03 -0.22773447445E+03 -0.13246906359E+04  0.15777984105E+04  0.90678397036E+02 0.  0.
         11    1    3    3    0    0  0.39385212447E+03 -0.82378925625E+02 -0.55613141351E+03  0.68643130204E+03  0.00000000000E+00 0. -1.
        -11    1    3    3    0    0  0.42746205478E+03 -0.14535554883E+03 -0.76855922236E+03  0.89136710851E+03  0.00000000000E+00 0.  1.
         22    1    1    2    0    0 -0.82131417924E+03  0.22773447445E+03 -0.60854228426E+03  0.10472553097E+04  0.00000000000E+00 0.  1.
<mgrwt>
<rscale>  0 0.17758146E+04</rscale>
<asrwt>0</asrwt>
<pdfrwt beam="1">  1        2 0.35063745E+00 0.17758146E+04</pdfrwt>
<pdfrwt beam="2">  1       -2 0.53216983E-01 0.17758146E+04</pdfrwt>
<totfact> 0.14677782E+01</totfact>
</mgrwt>
</event>
<event>
 6    1  0.1831439E-005  0.9318366E+03  0.7818608E-02  0.9386636E-01
          4   -1    0    0  501    0  0.00000000000E+00  0.00000000000E+00  0.37539100718E+03  0.37539100718E+03  0.00000000000E+00 0. -1.
         -4   -1    0    0    0  501 -0.00000000000E+00 -0.00000000000E+00 -0.57827667189E+03  0.57827667189E+03  0.00000000000E+00 0.  1.
         23    2    1    2    0    0 -0.22586995128E+03  0.28127701182E+03  0.19250409265E+03  0.41844150959E+03  0.88890263750E+02 0.  0.
         13    1    3    3    0    0 -0.12422023744E+03  0.19169366484E+03  0.79026037865E+02  0.24170693657E+03  0.00000000000E+00 0. -1.
        -13    1    3    3    0    0 -0.10164971385E+03  0.89583346987E+02  0.11347805478E+03  0.17673457302E+03  0.00000000000E+00 0.  1.
         22    1    1    2    0    0  0.22586995128E+03 -0.28127701182E+03 -0.39538975735E+03  0.53522616948E+03  0.00000000000E+00 0.  1.
<mgrwt>
<rscale>  0 0.93183660E+03</rscale>
<asrwt>0</asrwt>
<pdfrwt beam="1">  1        4 0.57752463E-01 0.93183660E+03</pdfrwt>
<pdfrwt beam="2">  1       -4 0.88965642E-01 0.93183660E+03</pdfrwt>
<totfact> 0.61475522E+00</totfact>
</mgrwt>
</event>
<event>
 6    1  0.1831439E-005  0.3693652E+04  0.7818608E-02  0.8069370E-01
         -2   -1    0    0    0  501 -0.00000000000E+00  0.00000000000E+00  0.19193334719E+04  0.19193334719E+04  0.00000000000E+00 0.  1.
          2   -1    0    0  501    0  0.00000000000E+00 -0.00000000000E+00 -0.17770574264E+04  0.17770574264E+04  0.00000000000E+00 0. -1.
         23    2    1    2    0    0 -0.13877421309E+04  0.10589709363E+04  0.67113919924E+03  0.18723996972E+04  0.90582201921E+02 0.  0.
         11    1    3    3    0    0 -0.10444540082E+04  0.74677631443E+03  0.49507799364E+03  0.13761036512E+04  0.00000000000E+00 0. -1.
        -11    1    3    3    0    0 -0.34328812277E+03  0.31219462190E+03  0.17606120560E+03  0.49629604602E+03  0.00000000000E+00 0.  1.
         22    1    1    2    0    0  0.13877421309E+04 -0.10589709363E+04 -0.52886315375E+03  0.18239912010E+04  0.00000000000E+00 0. -1.
<mgrwt>
<rscale>  0 0.36936517E+04</rscale>
<asrwt>0</asrwt>
<pdfrwt beam="1">  1        2 0.27339345E+00 0.36936517E+04</pdfrwt>
<pdfrwt beam="2">  1       -2 0.29528207E+00 0.36936517E+04</pdfrwt>
<totfact> 0.24411894E-01</totfact>
</mgrwt>
</event>
<event>
 6    1  0.1831439E-005  0.4072594E+03  0.7818608E-02  0.1041295E+00
          2   -1    0    0  501    0  0.00000000000E+00  0.00000000000E+00  0.21005115982E+04  0.21005115982E+04  0.00000000000E+00 0. -1.
         -2   -1    0    0    0  501 -0.00000000000E+00 -0.00000000000E+00 -0.19740455763E+02  0.19740455763E+02  0.00000000000E+00 0.  1.
         23    2    1    2    0    0 -0.10523851316E+03  0.11508258532E+03  0.16881470115E+04  0.16977915773E+04  0.91305868506E+02 0.  0.
         11    1    3    3    0    0 -0.18653412014E+02  0.69446083198E+02  0.10177952594E+04  0.10203322490E+04  0.00000000000E+00 0.  1.
        -11    1    3    3    0    0 -0.86585101143E+02  0.45636502126E+02  0.67035175207E+03  0.67745932835E+03  0.00000000000E+00 0. -1.
         22    1    1    2    0    0  0.10523851316E+03 -0.11508258532E+03  0.39262413093E+03  0.42246047659E+03  0.00000000000E+00 0.  1.
<mgrwt>
<rscale>  0 0.40725941E+03</rscale>
<asrwt>0</asrwt>
<pdfrwt beam="1">  1        2 0.32315545E+00 0.40725941E+03</pdfrwt>
<pdfrwt beam="2">  1       -2 0.30369948E-02 0.40725941E+03</pdfrwt>
<totfact> 0.27160321E+03</totfact>
</mgrwt>
</event>
<event>
 6    1  0.2661183E-005  0.4532271E+04  0.7818608E-02  0.7905011E-01
         -2   -1    0    0    0  501 -0.00000000000E+00  0.00000000000E+00  0.14540106253E+04  0.14540106253E+04  0.00000000000E+00 0.  1.
          2   -1    0    0  501    0  0.00000000000E+00 -0.00000000000E+00 -0.35318653222E+04  0.35318653222E+04  0.00000000000E+00 0. -1.
         23    2    1    2    0    0  0.13564394553E+02  0.17078529260E+04 -0.26763115735E+04  0.31761532498E+04  0.91434227734E+02 0.  0.
         11    1    3    3    0    0 -0.29458470134E+02  0.93707590201E+03 -0.15170667610E+04  0.17833873962E+04  0.00000000000E+00 0.  1.
        -11    1    3    3    0    0  0.43022864688E+02  0.77077702401E+03 -0.11592448125E+04  0.13927658536E+04  0.00000000000E+00 0. -1.
         22    1    1    2    0    0 -0.13564394553E+02 -0.17078529260E+04  0.59845687654E+03  0.18097226978E+04  0.00000000000E+00 0.  1.
<mgrwt>
<rscale>  0 0.45322708E+04</rscale>
<asrwt>0</asrwt>
<pdfrwt beam="1">  1        2 0.54336388E+00 0.45322708E+04</pdfrwt>
<pdfrwt beam="2">  1       -2 0.22369395E+00 0.45322708E+04</pdfrwt>
<totfact> 0.54539217E-02</totfact>
</mgrwt>
</event>
<event>
 6    1  0.1831439E-005  0.1242763E+04  0.7818608E-02  0.9076229E-01
         -1   -1    0    0    0  501 -0.00000000000E+00  0.00000000000E+00  0.17221445222E+03  0.17221445222E+03  0.00000000000E+00 0.  1.
          1   -1    0    0  501    0  0.00000000000E+00 -0.00000000000E+00 -0.22420574134E+04  0.22420574134E+04  0.00000000000E+00 0. -1.
         23    2    1    2    0    0 -0.47452944102E+03 -0.23280953254E+03 -0.16634421304E+04  0.17475334581E+04  0.86342325371E+02 0.  0.
         11    1    3    3    0    0 -0.98848077623E+02 -0.31576606153E+02 -0.43705925976E+03  0.44920910615E+03  0.00000000000E+00 0.  1.
        -11    1    3    3    0    0 -0.37568136339E+03 -0.20123292639E+03 -0.12263828706E+04  0.12983243519E+04  0.00000000000E+00 0. -1.
         22    1    1    2    0    0  0.47452944102E+03  0.23280953254E+03 -0.40640083084E+03  0.66673840758E+03  0.00000000000E+00 0.  1.
<mgrwt>
<rscale>  0 0.12427626E+04</rscale>
<asrwt>0</asrwt>
<pdfrwt beam="1">  1        1 0.34493187E+00 0.12427626E+04</pdfrwt>
<pdfrwt beam="2">  1       -1 0.26494534E-01 0.12427626E+04</pdfrwt>
<totfact> 0.25580009E+01</totfact>
</mgrwt>
</event>
<event>
 6    1  0.1831439E-005  0.3172679E+04  0.7818608E-02  0.8196070E-01
         -2   -1    0    0    0  501 -0.00000000000E+00  0.00000000000E+00  0.81672883113E+03  0.81672883113E+03  0.00000000000E+00 0.  1.
          2   -1    0    0  501    0  0.00000000000E+00 -0.00000000000E+00 -0.30811602403E+04  0.30811602403E+04  0.00000000000E+00 0. -1.
         23    2    1    2    0    0  0.42053607041E+03  0.12876677255E+03 -0.30040054053E+04  0.30374234045E+04  0.91983667248E+02 0.  0.
         11    1    3    3    0    0  0.27906255063E+03  0.77845353345E+02 -0.22496991879E+04  0.22682773733E+04  0.00000000000E+00 0.  1.
        -11    1    3    3    0    0  0.14147351978E+03  0.50921419201E+02 -0.75430621746E+03  0.76914603128E+03  0.00000000000E+00 0. -1.
         22    1    1    2    0    0 -0.42053607041E+03 -0.12876677255E+03  0.73957399611E+03  0.86046566692E+03  0.00000000000E+00 0.  1.
<mgrwt>
<rscale>  0 0.31726786E+04</rscale>
<asrwt>0</asrwt>
<pdfrwt beam="1">  1        2 0.47402465E+00 0.31726786E+04</pdfrwt>
<pdfrwt beam="2">  1       -2 0.12565059E+00 0.31726786E+04</pdfrwt>
<totfact> 0.61745312E-01</totfact>
</mgrwt>
</event>
<event>
 6    1  0.1831439E-005  0.5007818E+04  0.7818608E-02  0.7827302E-01
          1   -1    0    0  501    0  0.00000000000E+00  0.00000000000E+00  0.40935530011E+04  0.40935530011E+04  0.00000000000E+00 0.  1.
         -1   -1    0    0    0  501 -0.00000000000E+00 -0.00000000000E+00 -0.15315695303E+04  0.15315695303E+04  0.00000000000E+00 0. -1.
         23    2    1    2    0    0 -0.80644833028E+03  0.23432217572E+04  0.16790647871E+04  0.29944206261E+04  0.79051969222E+02 0.  0.
         13    1    3    3    0    0 -0.43956974472E+03  0.11647167830E+04  0.86111794340E+03  0.15137076526E+04  0.00000000000E+00 0.  1.
        -13    1    3    3    0    0 -0.36687858556E+03  0.11785049742E+04  0.81794684366E+03  0.14807129735E+04  0.00000000000E+00 0. -1.
         22    1    1    2    0    0  0.80644833028E+03 -0.23432217572E+04  0.88291868378E+03  0.26307019054E+04  0.00000000000E+00 0. -1.
<mgrwt>
<rscale>  0 0.50078183E+04</rscale>
<asrwt>0</asrwt>
<pdfrwt beam="1">  1        1 0.62977738E+00 0.50078183E+04</pdfrwt>
<pdfrwt beam="2">  1       -1 0.23562608E+00 0.50078183E+04</pdfrwt>
<totfact> 0.49293988E-03</totfact>
</mgrwt>
</event>
<event>
 6    1  0.1831439E-005  0.2004757E+04  0.7818608E-02  0.8604400E-01
         -2   -1    0    0    0  501 -0.00000000000E+00  0.00000000000E+00  0.29885088008E+03  0.29885088008E+03  0.00000000000E+00 0.  1.
          2   -1    0    0  501    0  0.00000000000E+00 -0.00000000000E+00 -0.33620869751E+04  0.33620869751E+04  0.00000000000E+00 0. -1.
         23    2    1    2    0    0  0.96263675063E+03  0.40942793503E+02 -0.20251044154E+04  0.22445822465E+04  0.93572121909E+02 0.  0.
         13    1    3    3    0    0  0.29925927542E+03  0.24322039227E+02 -0.73104952341E+03  0.79030442311E+03  0.00000000000E+00 0.  1.
        -13    1    3    3    0    0  0.66337747521E+03  0.16620754276E+02 -0.12940548920E+04  0.14542778234E+04  0.00000000000E+00 0. -1.
         22    1    1    2    0    0 -0.96263675063E+03 -0.40942793503E+02 -0.10381316796E+04  0.14163556087E+04  0.00000000000E+00 0.  1.
<mgrwt>
<rscale>  0 0.20047570E+04</rscale>
<asrwt>0</asrwt>
<pdfrwt beam="1">  1        2 0.51724413E+00 0.20047570E+04</pdfrwt>
<pdfrwt beam="2">  1       -2 0.45977060E-01 0.20047570E+04</pdfrwt>
<totfact> 0.42339398E+00</totfact>
</mgrwt>
</event>
<event>
 6    1  0.1831439E-005  0.1198821E+04  0.7818608E-02  0.9113889E-01
         -1   -1    0    0    0  501 -0.00000000000E+00  0.00000000000E+00  0.21622733441E+03  0.21622733441E+03  0.00000000000E+00 0.  1.
          1   -1    0    0  501    0  0.00000000000E+00 -0.00000000000E+00 -0.16616434500E+04  0.16616434500E+04  0.00000000000E+00 0. -1.
         23    2    1    2    0    0  0.22486426530E+03 -0.46579270668E+03 -0.11903655453E+04  0.13011753909E+04  0.92522879086E+02 0.  0.
         13    1    3    3    0    0  0.15529527082E+03 -0.34424270859E+03 -0.76112960172E+03  0.84966930871E+03  0.00000000000E+00 0. -1.
        -13    1    3    3    0    0  0.69568994482E+02 -0.12154999809E+03 -0.42923594358E+03  0.45150608223E+03  0.00000000000E+00 0.  1.
         22    1    1    2    0    0 -0.22486426530E+03  0.46579270668E+03 -0.25505057024E+03  0.57669539342E+03  0.00000000000E+00 0.  1.
<mgrwt>
<rscale>  0 0.11988206E+04</rscale>
<asrwt>0</asrwt>
<pdfrwt beam="1">  1        1 0.25563745E+00 0.11988206E+04</pdfrwt>
<pdfrwt beam="2">  1       -1 0.33265744E-01 0.11988206E+04</pdfrwt>
<totfact> 0.42593312E+01</totfact>
</mgrwt>
</event>
<event>
 6    1  0.1831439E-005  0.5346116E+04  0.7818608E-02  0.7777226E-01
          2   -1    0    0  501    0  0.00000000000E+00  0.00000000000E+00  0.37427532914E+04  0.37427532914E+04  0.00000000000E+00 0.  1.
         -2   -1    0    0    0  501 -0.00000000000E+00 -0.00000000000E+00 -0.19090865300E+04  0.19090865300E+04  0.00000000000E+00 0. -1.
         23    2    1    2    0    0 -0.24100668777E+04 -0.95773767780E+03  0.15987227260E+04  0.30478270498E+04  0.87473174479E+02 0.  0.
         11    1    3    3    0    0 -0.12691040962E+04 -0.51907385260E+03  0.79647093133E+03  0.15856950577E+04  0.00000000000E+00 0. -1.
        -11    1    3    3    0    0 -0.11409627815E+04 -0.43866382520E+03  0.80225179469E+03  0.14621319921E+04  0.00000000000E+00 0.  1.
         22    1    1    2    0    0  0.24100668777E+04  0.95773767780E+03  0.23494403540E+03  0.26040127716E+04  0.00000000000E+00 0. -1.
<mgrwt>
<rscale>  0 0.53461163E+04</rscale>
<asrwt>0</asrwt>
<pdfrwt beam="1">  1        2 0.57580820E+00 0.53461163E+04</pdfrwt>
<pdfrwt beam="2">  1       -2 0.29370562E+00 0.53461163E+04</pdfrwt>
<totfact> 0.13302629E-02</totfact>
</mgrwt>
</event>
<event>
 6    1  0.1831439E-005  0.1924478E+04  0.7818608E-02  0.8642767E-01
          2   -1    0    0  501    0  0.00000000000E+00  0.00000000000E+00  0.13299498452E+04  0.13299498452E+04  0.00000000000E+00 0. -1.
         -2   -1    0    0    0  501 -0.00000000000E+00 -0.00000000000E+00 -0.69619460159E+03  0.69619460159E+03  0.00000000000E+00 0.  1.
         23    2    1    2    0    0  0.39676579919E+03 -0.40806951942E+03 -0.49636204707E+03  0.76079511842E+03  0.92141729687E+02 0.  0.
         11    1    3    3    0    0  0.30512698368E+03 -0.35051420195E+03 -0.43420295411E+03  0.63599912523E+03  0.00000000000E+00 0.  1.
        -11    1    3    3    0    0  0.91638815512E+02 -0.57555317470E+02 -0.62159092956E+02  0.12479599318E+03  0.00000000000E+00 0. -1.
         22    1    1    2    0    0 -0.39676579919E+03  0.40806951942E+03  0.11301172907E+04  0.12653493283E+04  0.00000000000E+00 0. -1.
<mgrwt>
<rscale>  0 0.19244780E+04</rscale>
<asrwt>0</asrwt>
<pdfrwt beam="1">  1        2 0.20460767E+00 0.19244780E+04</pdfrwt>
<pdfrwt beam="2">  1       -2 0.10710686E+00 0.19244780E+04</pdfrwt>
<totfact> 0.10404036E+01</totfact>
</mgrwt>
</event>
<event>
 6    1  0.1831439E-005  0.4254546E+03  0.7818608E-02  0.1035306E+00
         -1   -1    0    0    0  501 -0.00000000000E+00  0.00000000000E+00  0.70557073627E+02  0.70557073627E+02  0.00000000000E+00 0.  1.
          1   -1    0    0  501    0  0.00000000000E+00 -0.00000000000E+00 -0.64136606236E+03  0.64136606236E+03  0.00000000000E+00 0. -1.
         23    2    1    2    0    0  0.30763072297E+02 -0.10714811729E+03 -0.58208051725E+03  0.59987790845E+03  0.92783030922E+02 0.  0.
         13    1    3    3    0    0 -0.17218116505E+02  0.37761400907E+01 -0.15586690969E+03  0.15686049951E+03  0.00000000000E+00 0. -1.
        -13    1    3    3    0    0  0.47981188801E+02 -0.11092425739E+03 -0.42621360757E+03  0.44301740895E+03  0.00000000000E+00 0.  1.
         22    1    1    2    0    0 -0.30763072297E+02  0.10714811729E+03  0.11271528525E+02  0.11204522753E+03  0.00000000000E+00 0.  1.
<mgrwt>
<rscale>  0 0.42545464E+03</rscale>
<asrwt>0</asrwt>
<pdfrwt beam="1">  1        1 0.98671698E-01 0.42545464E+03</pdfrwt>
<pdfrwt beam="2">  1       -1 0.10854935E-01 0.42545464E+03</pdfrwt>
<totfact> 0.17212540E+03</totfact>
</mgrwt>
</event>
<event>
 6    1  0.1831439E-005  0.1760025E+04  0.7818608E-02  0.8727851E-01
          1   -1    0    0  501    0  0.00000000000E+00  0.00000000000E+00  0.80278221515E+03  0.80278221515E+03  0.00000000000E+00 0. -1.
         -1   -1    0    0    0  501 -0.00000000000E+00 -0.00000000000E+00 -0.96467307756E+03  0.96467307756E+03  0.00000000000E+00 0.  1.
         23    2    1    2    0    0  0.45294492876E+03 -0.41971429567E+03  0.54490599140E+03  0.82890268841E+03  0.94010259598E+02 0.  0.
         11    1    3    3    0    0  0.26408474978E+03 -0.28043888140E+03  0.38715530094E+03  0.54614645317E+03  0.00000000000E+00 0.  1.
        -11    1    3    3    0    0  0.18886017898E+03 -0.13927541427E+03  0.15775069046E+03  0.28275623523E+03  0.00000000000E+00 0. -1.
         22    1    1    2    0    0 -0.45294492876E+03  0.41971429567E+03 -0.70679685381E+03  0.93855260430E+03  0.00000000000E+00 0.  1.
<mgrwt>
<rscale>  0 0.17600254E+04</rscale>
<asrwt>0</asrwt>
<pdfrwt beam="1">  1        1 0.12350496E+00 0.17600254E+04</pdfrwt>
<pdfrwt beam="2">  1       -1 0.14841124E+00 0.17600254E+04</pdfrwt>
<totfact> 0.74750373E+00</totfact>
</mgrwt>
</event>
<event>
 6    1  0.1831439E-005  0.1169425E+04  0.7818608E-02  0.9140048E-01
          2   -1    0    0  501    0  0.00000000000E+00  0.00000000000E+00  0.27340509409E+03  0.27340509409E+03  0.00000000000E+00 0. -1.
         -2   -1    0    0    0  501 -0.00000000000E+00 -0.00000000000E+00 -0.12504847564E+04  0.12504847564E+04  0.00000000000E+00 0.  1.
         23    2    1    2    0    0  0.24114166245E+02  0.57450071661E+03 -0.59552141854E+03  0.83380343577E+03  0.99748900584E+02 0.  0.
         11    1    3    3    0    0  0.12585220642E+02  0.38275304625E+03 -0.32656432330E+03  0.50329170412E+03  0.00000000000E+00 0. -1.
        -11    1    3    3    0    0  0.11528945603E+02  0.19174767036E+03 -0.26895709524E+03  0.33051173165E+03  0.00000000000E+00 0.  1.
         22    1    1    2    0    0 -0.24114166245E+02 -0.57450071661E+03 -0.38155824378E+03  0.69008641473E+03  0.00000000000E+00 0.  1.
<mgrwt>
<rscale>  0 0.11694253E+04</rscale>
<asrwt>0</asrwt>
<pdfrwt beam="1">  1        2 0.42062322E-01 0.11694253E+04</pdfrwt>
<pdfrwt beam="2">  1       -2 0.19238227E+00 0.11694253E+04</pdfrwt>
<totfact> 0.17975164E+01</totfact>
</mgrwt>
</event>
<event>
 6    1  0.1831439E-005  0.2307287E+04  0.7818608E-02  0.8475053E-01
         -2   -1    0    0    0  501 -0.00000000000E+00  0.00000000000E+00  0.65839454446E+03  0.65839454446E+03  0.00000000000E+00 0.  1.
          2   -1    0    0  501    0  0.00000000000E+00 -0.00000000000E+00 -0.20214222346E+04  0.20214222346E+04  0.00000000000E+00 0. -1.
         23    2    1    2    0    0 -0.22072590044E+03  0.11284712355E+04 -0.60264595092E+03  0.13012858067E+04  0.89416754335E+02 0.  0.
         13    1    3    3    0    0 -0.16966466060E+03  0.69725880672E+03 -0.40739180422E+03  0.82518120601E+03  0.00000000000E+00 0.  1.
        -13    1    3    3    0    0 -0.51061239840E+02  0.43121242880E+03 -0.19525414670E+03  0.47610460066E+03  0.00000000000E+00 0. -1.
         22    1    1    2    0    0  0.22072590044E+03 -0.11284712355E+04 -0.76038173926E+03  0.13785309724E+04  0.00000000000E+00 0. -1.
<mgrwt>
<rscale>  0 0.23072870E+04</rscale>
<asrwt>0</asrwt>
<pdfrwt beam="1">  1        2 0.31098803E+00 0.23072870E+04</pdfrwt>
<pdfrwt beam="2">  1       -2 0.10129147E+00 0.23072870E+04</pdfrwt>
<totfact> 0.47182448E+00</totfact>
</mgrwt>
</event>
<event>
 6    1  0.1831439E-005  0.7864101E+04  0.7818608E-02  0.7494342E-01
          2   -1    0    0  501    0  0.00000000000E+00  0.00000000000E+00  0.39747338851E+04  0.39747338851E+04  0.00000000000E+00 0. -1.
         -2   -1    0    0    0  501 -0.00000000000E+00 -0.00000000000E+00 -0.38898258419E+04  0.38898258419E+04  0.00000000000E+00 0.  1.
         23    2    1    2    0    0 -0.28578625967E+04  0.18115698780E+03 -0.26515149900E+04  0.39037255355E+04  0.91350088121E+02 0.  0.
         11    1    3    3    0    0 -0.22901945489E+04  0.15207352151E+03 -0.20756615393E+04  0.30945901592E+04  0.00000000000E+00 0.  1.
        -11    1    3    3    0    0 -0.56766804785E+03  0.29083466289E+02 -0.57585345075E+03  0.80913537637E+03  0.00000000000E+00 0. -1.
         22    1    1    2    0    0  0.28578625967E+04 -0.18115698780E+03  0.27364230332E+04  0.39608341915E+04  0.00000000000E+00 0. -1.
<mgrwt>
<rscale>  0 0.78641014E+04</rscale>
<asrwt>0</asrwt>
<pdfrwt beam="1">  1        2 0.61149752E+00 0.78641014E+04</pdfrwt>
<pdfrwt beam="2">  1       -2 0.59843474E+00 0.78641014E+04</pdfrwt>
<totfact> 0.11117823E-04</totfact>
</mgrwt>
</event>
<event>
 6    1  0.1831439E-005  0.1812104E+04  0.7818608E-02  0.8699889E-01
         -2   -1    0    0    0  501 -0.00000000000E+00  0.00000000000E+00  0.81262415137E+03  0.81262415137E+03  0.00000000000E+00 0.  1.
          2   -1    0    0  501    0  0.00000000000E+00 -0.00000000000E+00 -0.10102208037E+04  0.10102208037E+04  0.00000000000E+00 0. -1.
         23    2    1    2    0    0  0.95354384752E+02  0.25478152923E+03  0.76746438319E+03  0.82017407756E+03  0.98376072854E+02 0.  0.
         13    1    3    3    0    0  0.11014906670E+03  0.19443898691E+03  0.54090150975E+03  0.58524676827E+03  0.00000000000E+00 0. -1.
        -13    1    3    3    0    0 -0.14794681947E+02  0.60342542321E+02  0.22656287345E+03  0.23492730930E+03  0.00000000000E+00 0.  1.
         22    1    1    2    0    0 -0.95354384752E+02 -0.25478152923E+03 -0.96506103549E+03  0.10026708775E+04  0.00000000000E+00 0. -1.
<mgrwt>
<rscale>  0 0.18121036E+04</rscale>
<asrwt>0</asrwt>
<pdfrwt beam="1">  1        2 0.15541858E+00 0.18121036E+04</pdfrwt>
<pdfrwt beam="2">  1       -2 0.12501910E+00 0.18121036E+04</pdfrwt>
<totfact> 0.11216231E+01</totfact>
</mgrwt>
</event>
<event>
 6    1  0.1831439E-005  0.3568186E+04  0.7818608E-02  0.8097818E-01
          1   -1    0    0  501    0  0.00000000000E+00  0.00000000000E+00  0.15799006574E+04  0.15799006574E+04  0.00000000000E+00 0. -1.
         -1   -1    0    0    0  501 -0.00000000000E+00 -0.00000000000E+00 -0.20146758505E+04  0.20146758505E+04  0.00000000000E+00 0.  1.
         23    2    1    2    0    0  0.24151592246E+03 -0.78726862591E+03  0.13754826058E+04  0.16058193261E+04  0.92636273227E+02 0.  0.
         11    1    3    3    0    0  0.15934119930E+03 -0.41416841721E+03  0.80537580838E+03  0.91954080298E+03  0.00000000000E+00 0.  1.
        -11    1    3    3    0    0  0.82174723166E+02 -0.37310020870E+03  0.57010679737E+03  0.68627852310E+03  0.00000000000E+00 0. -1.
         22    1    1    2    0    0 -0.24151592246E+03  0.78726862591E+03 -0.18102577988E+04  0.19887571818E+04  0.00000000000E+00 0.  1.
<mgrwt>
<rscale>  0 0.35681859E+04</rscale>
<asrwt>0</asrwt>
<pdfrwt beam="1">  1        1 0.24306164E+00 0.35681859E+04</pdfrwt>
<pdfrwt beam="2">  1       -1 0.30995013E+00 0.35681859E+04</pdfrwt>
<totfact> 0.13296203E-01</totfact>
</mgrwt>
</event>
<event>
 6    1  0.1831439E-005  0.1325507E+04  0.7818608E-02  0.9009579E-01
          1   -1    0    0  501    0  0.00000000000E+00  0.00000000000E+00  0.81015960839E+03  0.81015960839E+03  0.00000000000E+00 0. -1.
         -1   -1    0    0    0  501 -0.00000000000E+00 -0.00000000000E+00 -0.54216788985E+03  0.54216788985E+03  0.00000000000E+00 0.  1.
         23    2    1    2    0    0  0.82492202076E+01 -0.28238529715E+03 -0.47366391640E+03  0.55868867200E+03  0.89252567680E+02 0.  0.
         11    1    3    3    0    0  0.23770418136E+02 -0.21065057954E+02 -0.78485877411E+02  0.84668780539E+02  0.00000000000E+00 0. -1.
        -11    1    3    3    0    0 -0.15521197929E+02 -0.26132023919E+03 -0.39517803899E+03  0.47401989146E+03  0.00000000000E+00 0.  1.
         22    1    1    2    0    0 -0.82492202076E+01  0.28238529715E+03  0.74165563494E+03  0.79363882624E+03  0.00000000000E+00 0. -1.
<mgrwt>
<rscale>  0 0.13255075E+04</rscale>
<asrwt>0</asrwt>
<pdfrwt beam="1">  1        1 0.12463994E+00 0.13255075E+04</pdfrwt>
<pdfrwt beam="2">  1       -1 0.83410444E-01 0.13255075E+04</pdfrwt>
<totfact> 0.30312022E+01</totfact>
</mgrwt>
</event>
<event>
 6    1  0.1831439E-005  0.1526855E+04  0.7818608E-02  0.8866789E-01
         -1   -1    0    0    0  501 -0.00000000000E+00  0.00000000000E+00  0.41395523745E+03  0.41395523745E+03  0.00000000000E+00 0.  1.
          1   -1    0    0  501    0  0.00000000000E+00 -0.00000000000E+00 -0.14079329226E+04  0.14079329226E+04  0.00000000000E+00 0. -1.
         23    2    1    2    0    0 -0.75506483629E+03  0.90729110071E+02 -0.51394334284E+03  0.92256194102E+03  0.92887550009E+02 0.  0.
         13    1    3    3    0    0 -0.26994541180E+03  0.34630611979E+01 -0.22327479072E+03  0.35033434076E+03  0.00000000000E+00 0.  1.
        -13    1    3    3    0    0 -0.48511942449E+03  0.87266048873E+02 -0.29066855212E+03  0.57222760025E+03  0.00000000000E+00 0. -1.
         22    1    1    2    0    0  0.75506483629E+03 -0.90729110071E+02 -0.48003434229E+03  0.89932621901E+03  0.00000000000E+00 0.  1.
<mgrwt>
<rscale>  0 0.15268546E+04</rscale>
<asrwt>0</asrwt>
<pdfrwt beam="1">  1        1 0.21660507E+00 0.15268546E+04</pdfrwt>
<pdfrwt beam="2">  1       -1 0.63685421E-01 0.15268546E+04</pdfrwt>
<totfact> 0.18306217E+01</totfact>
</mgrwt>
</event>
<event>
 6    1  0.1831439E-005  0.1359311E+04  0.7818608E-02  0.8983810E-01
          2   -1    0    0  501    0  0.00000000000E+00  0.00000000000E+00  0.11751084707E+04  0.11751084707E+04  0.00000000000E+00 0. -1.
         -2   -1    0    0    0  501 -0.00000000000E+00 -0.00000000000E+00 -0.39309702565E+03  0.39309702565E+03  0.00000000000E+00 0.  1.
         23    2    1    2    0    0  0.41080151411E+03  0.25107933390E+03 -0.15476344851E+03  0.51495058079E+03  0.97075536336E+02 0.  0.
         13    1    3    3    0    0  0.16794230483E+03  0.15853765446E+03 -0.81786412599E+02  0.24500576099E+03  0.00000000000E+00 0.  1.
        -13    1    3    3    0    0  0.24285920929E+03  0.92541679443E+02 -0.72977035914E+02  0.26994481981E+03  0.00000000000E+00 0. -1.
         22    1    1    2    0    0 -0.41080151411E+03 -0.25107933390E+03  0.93677489355E+03  0.10532549155E+04  0.00000000000E+00 0. -1.
<mgrwt>
<rscale>  0 0.13593111E+04</rscale>
<asrwt>0</asrwt>
<pdfrwt beam="1">  1        2 0.18078592E+00 0.13593111E+04</pdfrwt>
<pdfrwt beam="2">  1       -2 0.60476466E-01 0.13593111E+04</pdfrwt>
<totfact> 0.48738960E+01</totfact>
</mgrwt>
</event>
<event>
 6    1  0.1831439E-005  0.2372929E+04  0.7818608E-02  0.8449708E-01
         -2   -1    0    0    0  501 -0.00000000000E+00  0.00000000000E+00  0.90552236128E+03  0.90552236128E+03  0.00000000000E+00 0.  1.
          2   -1    0    0  501    0  0.00000000000E+00 -0.00000000000E+00 -0.15545707270E+04  0.15545707270E+04  0.00000000000E+00 0. -1.
         23    2    1    2    0    0  0.10921305516E+04  0.41097105063E+03 -0.53743952861E+03  0.12878717445E+04  0.90144536081E+02 0.  0.
         11    1    3    3    0    0  0.34215622963E+03  0.11578078200E+03 -0.12299345588E+03  0.38158022111E+03  0.00000000000E+00 0. -1.
        -11    1    3    3    0    0  0.74997432193E+03  0.29519026863E+03 -0.41444607273E+03  0.90629152344E+03  0.00000000000E+00 0.  1.
         22    1    1    2    0    0 -0.10921305516E+04 -0.41097105063E+03 -0.11160883708E+03  0.11722213437E+04  0.00000000000E+00 0. -1.
<mgrwt>
<rscale>  0 0.23729295E+04</rscale>
<asrwt>0</asrwt>
<pdfrwt beam="1">  1        2 0.23916473E+00 0.23729295E+04</pdfrwt>
<pdfrwt beam="2">  1       -2 0.13931113E+00 0.23729295E+04</pdfrwt>
<totfact> 0.38779387E+00</totfact>
</mgrwt>
</event>
<event>
 6    1  0.1831439E-005  0.3656085E+04  0.7818608E-02  0.8077764E-01
         -1   -1    0    0    0  501 -0.00000000000E+00  0.00000000000E+00  0.15776896564E+04  0.15776896564E+04  0.00000000000E+00 0.  1.
          1   -1    0    0  501    0  0.00000000000E+00 -0.00000000000E+00 -0.21181215836E+04  0.21181215836E+04  0.00000000000E+00 0. -1.
         23    2    1    2    0    0  0.39060638457E+03  0.41826151583E+03  0.14833906539E+04  0.15926293926E+04  0.92219883380E+02 0.  0.
         13    1    3    3    0    0  0.35763646029E+03  0.34217063562E+03  0.12233220984E+04  0.13196596297E+04  0.00000000000E+00 0. -1.
        -13    1    3    3    0    0  0.32969924280E+02  0.76090880213E+02  0.26006855544E+03  0.27296976296E+03  0.00000000000E+00 0.  1.
         22    1    1    2    0    0 -0.39060638457E+03 -0.41826151583E+03 -0.20238225811E+04  0.21031818474E+04  0.00000000000E+00 0. -1.
<mgrwt>
<rscale>  0 0.36560845E+04</rscale>
<asrwt>0</asrwt>
<pdfrwt beam="1">  1        1 0.32586486E+00 0.36560845E+04</pdfrwt>
<pdfrwt beam="2">  1       -1 0.24272149E+00 0.36560845E+04</pdfrwt>
<totfact> 0.15521514E-01</totfact>
</mgrwt>
</event>
<event>
 6    1  0.1831439E-005  0.3144109E+04  0.7818608E-02  0.8203736E-01
          2   -1    0    0  501    0  0.00000000000E+00  0.00000000000E+00  0.24759976041E+04  0.24759976041E+04  0.00000000000E+00 0. -1.
         -2   -1    0    0    0  501 -0.00000000000E+00 -0.00000000000E+00 -0.99812487918E+03  0.99812487918E+03  0.00000000000E+00 0.  1.
         23    2    1    2    0    0  0.13845345185E+04  0.64838834529E+03  0.11401052590E+04  0.19084181241E+04  0.69831623838E+02 0.  0.
         13    1    3    3    0    0  0.12936195052E+04  0.62255011398E+03  0.10605350487E+04  0.17848682468E+04  0.00000000000E+00 0.  1.
        -13    1    3    3    0    0  0.90915013275E+02  0.25838231312E+02  0.79570210235E+02  0.12354987735E+03  0.00000000000E+00 0. -1.
         22    1    1    2    0    0 -0.13845345185E+04 -0.64838834529E+03  0.33776746594E+03  0.15657043592E+04  0.00000000000E+00 0.  1.
<mgrwt>
<rscale>  0 0.31441087E+04</rscale>
<asrwt>0</asrwt>
<pdfrwt beam="1">  1        2 0.38092271E+00 0.31441087E+04</pdfrwt>
<pdfrwt beam="2">  1       -2 0.15355767E+00 0.31441087E+04</pdfrwt>
<totfact> 0.85573424E-01</totfact>
</mgrwt>
</event>
<event>
 6    1  0.1831439E-005  0.2417931E+04  0.7818608E-02  0.8432821E-01
         -1   -1    0    0    0  501 -0.00000000000E+00  0.00000000000E+00  0.70649847318E+03  0.70649847318E+03  0.00000000000E+00 0.  1.
          1   -1    0    0  501    0  0.00000000000E+00 -0.00000000000E+00 -0.20687913026E+04  0.20687913026E+04  0.00000000000E+00 0. -1.
         23    2    1    2    0    0  0.35615597736E+03  0.93789011170E+03  0.88650773125E+02  0.10112823269E+04  0.91367627487E+02 0.  0.
         13    1    3    3    0    0  0.32496077787E+03  0.79821748245E+03  0.10054499937E+03  0.86767502750E+03  0.00000000000E+00 0. -1.
        -13    1    3    3    0    0  0.31195199492E+02  0.13967262925E+03 -0.11894226247E+02  0.14360729943E+03  0.00000000000E+00 0.  1.
         22    1    1    2    0    0 -0.35615597736E+03 -0.93789011170E+03 -0.14509436026E+04  0.17640074489E+04  0.00000000000E+00 0.  1.
<mgrwt>
<rscale>  0 0.24179313E+04</rscale>
<asrwt>0</asrwt>
<pdfrwt beam="1">  1        1 0.31827558E+00 0.24179313E+04</pdfrwt>
<pdfrwt beam="2">  1       -1 0.10869207E+00 0.24179313E+04</pdfrwt>
<totfact> 0.18793063E+00</totfact>
</mgrwt>
</event>
<event>
 6    1  0.1831439E-005  0.1655445E+04  0.7818608E-02  0.8787192E-01
         -2   -1    0    0    0  501 -0.00000000000E+00  0.00000000000E+00  0.75467310078E+03  0.75467310078E+03  0.00000000000E+00 0. -1.
          2   -1    0    0  501    0  0.00000000000E+00 -0.00000000000E+00 -0.90784246902E+03  0.90784246902E+03  0.00000000000E+00 0.  1.
         23    2    1    2    0    0  0.50717454919E+03 -0.40249518240E+02  0.57576424414E+03  0.77358910584E+03  0.89942163523E+02 0.  0.
         11    1    3    3    0    0  0.30880549188E+03 -0.22553568577E+02  0.28278573318E+03  0.41932954363E+03  0.00000000000E+00 0. -1.
        -11    1    3    3    0    0  0.19836905731E+03 -0.17695949663E+02  0.29297851096E+03  0.35425956221E+03  0.00000000000E+00 0.  1.
         22    1    1    2    0    0 -0.50717454919E+03  0.40249518240E+02 -0.72893361238E+03  0.88892646396E+03  0.00000000000E+00 0.  1.
<mgrwt>
<rscale>  0 0.16554447E+04</rscale>
<asrwt>0</asrwt>
<pdfrwt beam="1">  1        2 0.13966807E+00 0.16554447E+04</pdfrwt>
<pdfrwt beam="2">  1       -2 0.11610355E+00 0.16554447E+04</pdfrwt>
<totfact> 0.15932679E+01</totfact>
</mgrwt>
</event>
<event>
 6    1  0.1831439E-005  0.1982301E+04  0.7818608E-02  0.8614940E-01
          1   -1    0    0  501    0  0.00000000000E+00  0.00000000000E+00  0.47960577107E+03  0.47960577107E+03  0.00000000000E+00 0. -1.
         -1   -1    0    0    0  501 -0.00000000000E+00 -0.00000000000E+00 -0.20483061016E+04  0.20483061016E+04  0.00000000000E+00 0.  1.
         23    2    1    2    0    0 -0.13849540633E+03  0.37877668287E+03  0.36564966948E+03  0.55196585226E+03  0.91180415709E+02 0.  0.
         13    1    3    3    0    0 -0.50555835746E+02  0.18786284135E+03  0.23245837412E+03  0.30312577486E+03  0.00000000000E+00 0. -1.
        -13    1    3    3    0    0 -0.87939570583E+02  0.19091384152E+03  0.13319129536E+03  0.24884007739E+03  0.00000000000E+00 0.  1.
         22    1    1    2    0    0  0.13849540633E+03 -0.37877668287E+03 -0.19343500000E+04  0.19759460204E+04  0.00000000000E+00 0.  1.
<mgrwt>
<rscale>  0 0.19823011E+04</rscale>
<asrwt>0</asrwt>
<pdfrwt beam="1">  1        1 0.73785503E-01 0.19823011E+04</pdfrwt>
<pdfrwt beam="2">  1       -1 0.31512401E+00 0.19823011E+04</pdfrwt>
<totfact> 0.11495948E+00</totfact>
</mgrwt>
</event>
<event>
 6    1  0.1831439E-005  0.2460260E+04  0.7818608E-02  0.8417281E-01
          2   -1    0    0  501    0  0.00000000000E+00  0.00000000000E+00  0.38552113081E+04  0.38552113081E+04  0.00000000000E+00 0. -1.
         -2   -1    0    0    0  501 -0.00000000000E+00 -0.00000000000E+00 -0.39251294850E+03  0.39251294850E+03  0.00000000000E+00 0.  1.
         23    2    1    2    0    0 -0.11844599926E+04  0.10683020520E+03  0.22650536567E+04  0.25599117667E+04  0.91225098151E+02 0.  0.
         11    1    3    3    0    0 -0.30628248011E+03 -0.12312944927E+02  0.57778864737E+03  0.65406443663E+03  0.00000000000E+00 0. -1.
        -11    1    3    3    0    0 -0.87817751250E+03  0.11914315012E+03  0.16872650094E+04  0.19058473301E+04  0.00000000000E+00 0.  1.
         22    1    1    2    0    0  0.11844599926E+04 -0.10683020520E+03  0.11976447029E+04  0.16878124899E+04  0.00000000000E+00 0.  1.
<mgrwt>
<rscale>  0 0.24602604E+04</rscale>
<asrwt>0</asrwt>
<pdfrwt beam="1">  1        2 0.59310941E+00 0.24602604E+04</pdfrwt>
<pdfrwt beam="2">  1       -2 0.60386610E-01 0.24602604E+04</pdfrwt>
<totfact> 0.10215889E+00</totfact>
</mgrwt>
</event>
<event>
 6    1  0.1831439E-005  0.1749665E+04  0.7818608E-02  0.8733535E-01
         -1   -1    0    0    0  501 -0.00000000000E+00  0.00000000000E+00  0.64022140981E+03  0.64022140981E+03  0.00000000000E+00 0.  1.
          1   -1    0    0  501    0  0.00000000000E+00 -0.00000000000E+00 -0.11954179354E+04  0.11954179354E+04  0.00000000000E+00 0. -1.
         23    2    1    2    0    0  0.11545564259E+03 -0.68879366869E+03 -0.82709605493E+03  0.10861754852E+04  0.89008859316E+02 0.  0.
         11    1    3    3    0    0  0.84467826594E+02 -0.42773054699E+03 -0.45082683445E+03  0.62716271351E+03  0.00000000000E+00 0. -1.
        -11    1    3    3    0    0  0.30987815993E+02 -0.26106312170E+03 -0.37626922047E+03  0.45901277164E+03  0.00000000000E+00 0.  1.
         22    1    1    2    0    0 -0.11545564259E+03  0.68879366869E+03  0.27189952936E+03  0.74946386004E+03  0.00000000000E+00 0.  1.
<mgrwt>
<rscale>  0 0.17496653E+04</rscale>
<asrwt>0</asrwt>
<pdfrwt beam="1">  1        1 0.18391045E+00 0.17496653E+04</pdfrwt>
<pdfrwt beam="2">  1       -1 0.98495602E-01 0.17496653E+04</pdfrwt>
<totfact> 0.10070076E+01</totfact>
</mgrwt>
</event>
<event>
 6    1  0.1831439E-005  0.2670198E+04  0.7818608E-02  0.8344740E-01
         -2   -1    0    0    0  501 -0.00000000000E+00  0.00000000000E+00  0.46697832098E+03  0.46697832098E+03  0.00000000000E+00 0.  1.
          2   -1    0    0  501    0  0.00000000000E+00 -0.00000000000E+00 -0.38170722077E+04  0.38170722077E+04  0.00000000000E+00 0. -1.
         23    2    1    2    0    0 -0.80885016769E+03  0.10097734152E+04 -0.21957974785E+04  0.25501874597E+04  0.89713818292E+02 0.  0.
         11    1    3    3    0    0 -0.57170977710E+03  0.74369464408E+03 -0.16590510913E+04  0.19058815064E+04  0.00000000000E+00 0. -1.
        -11    1    3    3    0    0 -0.23714039058E+03  0.26607877117E+03 -0.53674638718E+03  0.64430595330E+03  0.00000000000E+00 0.  1.
         22    1    1    2    0    0  0.80885016769E+03 -0.10097734152E+04 -0.11542964082E+04  0.17338630690E+04  0.00000000000E+00 0.  1.
<mgrwt>
<rscale>  0 0.26701985E+04</rscale>
<asrwt>0</asrwt>
<pdfrwt beam="1">  1        2 0.58724188E+00 0.26701985E+04</pdfrwt>
<pdfrwt beam="2">  1       -2 0.71842819E-01 0.26701985E+04</pdfrwt>
<totfact> 0.73684312E-01</totfact>
</mgrwt>
</event>
<event>
 6    1  0.1831439E-005  0.2744968E+04  0.7818608E-02  0.8320560E-01
         -2   -1    0    0    0  501 -0.00000000000E+00  0.00000000000E+00  0.24310302753E+04  0.24310302753E+04  0.00000000000E+00 0.  1.
          2   -1    0    0  501    0  0.00000000000E+00 -0.00000000000E+00 -0.77486170770E+03  0.77486170770E+03  0.00000000000E+00 0. -1.
         23    2    1    2    0    0  0.53180114448E+03  0.11695036387E+04  0.27011338001E+03  0.13159977528E+04  0.91310618629E+02 0.  0.
         11    1    3    3    0    0  0.27656663262E+03  0.52785522536E+03  0.15691592530E+03  0.61623278786E+03  0.00000000000E+00 0.  1.
        -11    1    3    3    0    0  0.25523451185E+03  0.64164841337E+03  0.11319745471E+03  0.69976496495E+03  0.00000000000E+00 0. -1.
         22    1    1    2    0    0 -0.53180114448E+03 -0.11695036387E+04  0.13860551876E+04  0.18898942302E+04  0.00000000000E+00 0. -1.
<mgrwt>
<rscale>  0 0.27449680E+04</rscale>
<asrwt>0</asrwt>
<pdfrwt beam="1">  1        2 0.11920949E+00 0.27449680E+04</pdfrwt>
<pdfrwt beam="2">  1       -2 0.37400466E+00 0.27449680E+04</pdfrwt>
<totfact> 0.34368983E-01</totfact>
</mgrwt>
</event>
<event>
 6    1  0.1831439E-005  0.3515547E+04  0.7818608E-02  0.8110115E-01
         -2   -1    0    0    0  501 -0.00000000000E+00  0.00000000000E+00  0.11105585397E+04  0.11105585397E+04  0.00000000000E+00 0.  1.
          2   -1    0    0  501    0  0.00000000000E+00 -0.00000000000E+00 -0.27821748355E+04  0.27821748355E+04  0.00000000000E+00 0. -1.
         23    2    1    2    0    0 -0.55294935702E+03 -0.28372489313E+03 -0.26556090067E+04  0.27289058701E+04  0.91734645794E+02 0.  0.
         13    1    3    3    0    0 -0.84696238300E+02 -0.13790227238E+02 -0.29605252651E+03  0.30823809239E+03  0.00000000000E+00 0.  1.
        -13    1    3    3    0    0 -0.46825311872E+03 -0.26993466589E+03 -0.23595564802E+04  0.24206677777E+04  0.00000000000E+00 0. -1.
         22    1    1    2    0    0  0.55294935702E+03  0.28372489313E+03  0.98399271085E+03  0.11638275050E+04  0.00000000000E+00 0.  1.
<mgrwt>
<rscale>  0 0.35155472E+04</rscale>
<asrwt>0</asrwt>
<pdfrwt beam="1">  1        2 0.42802690E+00 0.35155472E+04</pdfrwt>
<pdfrwt beam="2">  1       -2 0.17085516E+00 0.35155472E+04</pdfrwt>
<totfact> 0.40870707E-01</totfact>
</mgrwt>
</event>
<event>
 6    1  0.1831439E-005  0.3530797E+04  0.7818608E-02  0.8106530E-01
         -1   -1    0    0    0  501 -0.00000000000E+00  0.00000000000E+00  0.15629179584E+04  0.15629179584E+04  0.00000000000E+00 0.  1.
          1   -1    0    0  501    0  0.00000000000E+00 -0.00000000000E+00 -0.19941115081E+04  0.19941115081E+04  0.00000000000E+00 0. -1.
         23    2    1    2    0    0  0.11524925972E+03  0.80774644229E+03  0.13600205321E+04  0.15887346222E+04  0.93194126540E+02 0.  0.
         11    1    3    3    0    0  0.81422604225E+02  0.39279284629E+03  0.74339351206E+03  0.84471875458E+03  0.00000000000E+00 0. -1.
        -11    1    3    3    0    0  0.33826655494E+02  0.41495359600E+03  0.61662702007E+03  0.74401586766E+03  0.00000000000E+00 0.  1.
         22    1    1    2    0    0 -0.11524925972E+03 -0.80774644229E+03 -0.17912140818E+04  0.19682948442E+04  0.00000000000E+00 0. -1.
<mgrwt>
<rscale>  0 0.35307975E+04</rscale>
<asrwt>0</asrwt>
<pdfrwt beam="1">  1        1 0.30678639E+00 0.35307975E+04</pdfrwt>
<pdfrwt beam="2">  1       -1 0.24044892E+00 0.35307975E+04</pdfrwt>
<totfact> 0.19708981E-01</totfact>
</mgrwt>
</event>
<event>
 6    1  0.1831439E-005  0.7503182E+03  0.7818608E-02  0.9634851E-01
         -3   -1    0    0    0  501 -0.00000000000E+00  0.00000000000E+00  0.33100349548E+03  0.33100349548E+03  0.00000000000E+00 0.  1.
          3   -1    0    0  501    0  0.00000000000E+00 -0.00000000000E+00 -0.42520506904E+03  0.42520506904E+03  0.00000000000E+00 0. -1.
         23    2    1    2    0    0  0.76320733484E+02 -0.22737739445E+03 -0.33001795807E+03  0.41985354216E+03  0.99195818189E+02 0.  0.
         11    1    3    3    0    0  0.48343620751E+02 -0.88659922398E+02 -0.21485803966E+03  0.23740611768E+03  0.00000000000E+00 0.  1.
        -11    1    3    3    0    0  0.27977112734E+02 -0.13871747205E+03 -0.11515991842E+03  0.18244742448E+03  0.00000000000E+00 0. -1.
         22    1    1    2    0    0 -0.76320733484E+02  0.22737739445E+03  0.23581638451E+03  0.33635502236E+03  0.00000000000E+00 0.  1.
<mgrwt>
<rscale>  0 0.75031824E+03</rscale>
<asrwt>0</asrwt>
<pdfrwt beam="1">  1        3 0.65416164E-01 0.75031824E+03</pdfrwt>
<pdfrwt beam="2">  1       -3 0.50923615E-01 0.75031824E+03</pdfrwt>
<totfact> 0.22757006E+01</totfact>
</mgrwt>
</event>
<event>
 6    1  0.1831439E-005  0.1601934E+04  0.7818608E-02  0.8819361E-01
          2   -1    0    0  501    0  0.00000000000E+00  0.00000000000E+00  0.18354634997E+04  0.18354634997E+04  0.00000000000E+00 0. -1.
         -2   -1    0    0    0  501 -0.00000000000E+00 -0.00000000000E+00 -0.34952902251E+03  0.34952902251E+03  0.00000000000E+00 0.  1.
         23    2    1    2    0    0 -0.18195468714E+03 -0.76799465811E+03  0.91050220503E+03  0.12082399420E+04  0.88916753687E+02 0.  0.
         13    1    3    3    0    0 -0.14166700191E+03 -0.45319207224E+03  0.58787518478E+03  0.75567838837E+03  0.00000000000E+00 0. -1.
        -13    1    3    3    0    0 -0.40287685237E+02 -0.31480258587E+03  0.32262702025E+03  0.45256155365E+03  0.00000000000E+00 0.  1.
         22    1    1    2    0    0  0.18195468714E+03  0.76799465811E+03  0.57543227218E+03  0.97675258020E+03  0.00000000000E+00 0.  1.
<mgrwt>
<rscale>  0 0.16019335E+04</rscale>
<asrwt>0</asrwt>
<pdfrwt beam="1">  1        2 0.28237900E+00 0.16019335E+04</pdfrwt>
<pdfrwt beam="2">  1       -2 0.53773696E-01 0.16019335E+04</pdfrwt>
<totfact> 0.25759190E+01</totfact>
</mgrwt>
</event>
<event>
 6    1  0.1831439E-005  0.1625578E+04  0.7818608E-02  0.8804987E-01
         -2   -1    0    0    0  501 -0.00000000000E+00  0.00000000000E+00  0.74048821097E+03  0.74048821097E+03  0.00000000000E+00 0.  1.
          2   -1    0    0  501    0  0.00000000000E+00 -0.00000000000E+00 -0.89214866159E+03  0.89214866159E+03  0.00000000000E+00 0. -1.
         23    2    1    2    0    0 -0.37276262101E+03  0.39744520085E+03  0.52613934160E+03  0.76296612013E+03  0.91542527737E+02 0.  0.
         13    1    3    3    0    0 -0.15058535578E+03  0.22490422745E+03  0.27527849644E+03  0.38605195441E+03  0.00000000000E+00 0. -1.
        -13    1    3    3    0    0 -0.22217726523E+03  0.17254097340E+03  0.25086084516E+03  0.37691416572E+03  0.00000000000E+00 0.  1.
         22    1    1    2    0    0  0.37276262101E+03 -0.39744520085E+03 -0.67779979222E+03  0.86967075243E+03  0.00000000000E+00 0. -1.
<mgrwt>
<rscale>  0 0.16255775E+04</rscale>
<asrwt>0</asrwt>
<pdfrwt beam="1">  1        2 0.13725364E+00 0.16255775E+04</pdfrwt>
<pdfrwt beam="2">  1       -2 0.11392126E+00 0.16255775E+04</pdfrwt>
<totfact> 0.17142477E+01</totfact>
</mgrwt>
</event>
<event>
 6    1  0.1831439E-005  0.3264005E+04  0.7818608E-02  0.8172115E-01
         -2   -1    0    0    0  501 -0.00000000000E+00  0.00000000000E+00  0.13739294495E+04  0.13739294495E+04  0.00000000000E+00 0.  1.
          2   -1    0    0  501    0  0.00000000000E+00 -0.00000000000E+00 -0.19385513080E+04  0.19385513080E+04  0.00000000000E+00 0. -1.
         23    2    1    2    0    0  0.12015134109E+04 -0.18043194083E+03  0.82119296841E+03  0.14694742745E+04  0.93843435374E+02 0.  0.
         13    1    3    3    0    0  0.11121782959E+04 -0.14180473558E+03  0.76049504596E+03  0.13547700394E+04  0.00000000000E+00 0. -1.
        -13    1    3    3    0    0  0.89335115040E+02 -0.38627205253E+02  0.60697922454E+02  0.11470423512E+03  0.00000000000E+00 0.  1.
         22    1    1    2    0    0 -0.12015134109E+04  0.18043194083E+03 -0.13858148269E+04  0.18430064830E+04  0.00000000000E+00 0. -1.
<mgrwt>
<rscale>  0 0.32640054E+04</rscale>
<asrwt>0</asrwt>
<pdfrwt beam="1">  1        2 0.29823866E+00 0.32640054E+04</pdfrwt>
<pdfrwt beam="2">  1       -2 0.21137376E+00 0.32640054E+04</pdfrwt>
<totfact> 0.67939780E-01</totfact>
</mgrwt>
</event>
<event>
 6    1  0.1831439E-005  0.1155523E+04  0.7818608E-02  0.9152703E-01
         -1   -1    0    0    0  501 -0.00000000000E+00  0.00000000000E+00  0.48925642284E+03  0.48925642284E+03  0.00000000000E+00 0.  1.
          1   -1    0    0  501    0  0.00000000000E+00 -0.00000000000E+00 -0.68227712858E+03  0.68227712858E+03  0.00000000000E+00 0. -1.
         23    2    1    2    0    0  0.44302898639E+03 -0.19066515387E+02 -0.46678496706E+03  0.65039529187E+03  0.92128255272E+02 0.  0.
         11    1    3    3    0    0  0.26178869193E+03 -0.33204499995E+02 -0.33194277347E+03  0.42405408016E+03  0.00000000000E+00 0. -1.
        -11    1    3    3    0    0  0.18124029446E+03  0.14137984608E+02 -0.13484219359E+03  0.22634121171E+03  0.00000000000E+00 0.  1.
         22    1    1    2    0    0 -0.44302898639E+03  0.19066515387E+02  0.27376426132E+03  0.52113825955E+03  0.00000000000E+00 0.  1.
<mgrwt>
<rscale>  0 0.11555232E+04</rscale>
<asrwt>0</asrwt>
<pdfrwt beam="1">  1        1 0.10496571E+00 0.11555232E+04</pdfrwt>
<pdfrwt beam="2">  1       -1 0.75270219E-01 0.11555232E+04</pdfrwt>
<totfact> 0.49921875E+01</totfact>
</mgrwt>
</event>
<event>
 6    1  0.1831439E-005  0.2467817E+04  0.7818608E-02  0.8414541E-01
         -2   -1    0    0    0  501 -0.00000000000E+00  0.00000000000E+00  0.12959038947E+04  0.12959038947E+04  0.00000000000E+00 0.  1.
          2   -1    0    0  501    0  0.00000000000E+00 -0.00000000000E+00 -0.11748789525E+04  0.11748789525E+04  0.00000000000E+00 0. -1.
         23    2    1    2    0    0  0.17384087398E+03 -0.84529543687E+03 -0.81985303134E+03  0.11940697290E+04  0.94331859805E+02 0.  0.
         13    1    3    3    0    0  0.12991470038E+03 -0.49095360434E+03 -0.53146751140E+03  0.73509930395E+03  0.00000000000E+00 0.  1.
        -13    1    3    3    0    0  0.43926173604E+02 -0.35434183252E+03 -0.28838551993E+03  0.45897042509E+03  0.00000000000E+00 0. -1.
         22    1    1    2    0    0 -0.17384087398E+03  0.84529543687E+03  0.94087797357E+03  0.12767131182E+04  0.00000000000E+00 0.  1.
<mgrwt>
<rscale>  0 0.24678170E+04</rscale>
<asrwt>0</asrwt>
<pdfrwt beam="1">  1        2 0.18075061E+00 0.24678170E+04</pdfrwt>
<pdfrwt beam="2">  1       -2 0.19936983E+00 0.24678170E+04</pdfrwt>
<totfact> 0.23546124E+00</totfact>
</mgrwt>
</event>
<event>
 6    1  0.5041821E-005  0.3795152E+04  0.7818608E-02  0.8047196E-01
          2   -1    0    0  501    0  0.00000000000E+00  0.00000000000E+00  0.23815918134E+04  0.23815918134E+04  0.00000000000E+00 0. -1.
         -2   -1    0    0    0  501 -0.00000000000E+00 -0.00000000000E+00 -0.15119278258E+04  0.15119278258E+04  0.00000000000E+00 0.  1.
         23    2    1    2    0    0  0.31571494837E+03 -0.10435095171E+04 -0.11571923915E+04  0.15920560131E+04  0.83427075653E+02 0.  0.
         13    1    3    3    0    0  0.21679093421E+03 -0.61788003672E+03 -0.73625595840E+03  0.98531562721E+03  0.00000000000E+00 0.  1.
        -13    1    3    3    0    0  0.98924014164E+02 -0.42562948043E+03 -0.42093643311E+03  0.60674038592E+03  0.00000000000E+00 0. -1.
         22    1    1    2    0    0 -0.31571494837E+03  0.10435095171E+04  0.20268563791E+04  0.23014636261E+04  0.00000000000E+00 0. -1.
<mgrwt>
<rscale>  0 0.37951521E+04</rscale>
<asrwt>0</asrwt>
<pdfrwt beam="1">  1        2 0.36639874E+00 0.37951521E+04</pdfrwt>
<pdfrwt beam="2">  1       -2 0.23260428E+00 0.37951521E+04</pdfrwt>
<totfact> 0.26907064E-01</totfact>
</mgrwt>
</event>
<event>
 6    1  0.1831439E-005  0.2555026E+04  0.7818608E-02  0.8383640E-01
         -2   -1    0    0    0  501 -0.00000000000E+00  0.00000000000E+00  0.90376568502E+03  0.90376568502E+03  0.00000000000E+00 0.  1.
          2   -1    0    0  501    0  0.00000000000E+00 -0.00000000000E+00 -0.18058220282E+04  0.18058220282E+04  0.00000000000E+00 0. -1.
         23    2    1    2    0    0 -0.98659218198E+03 -0.42247085216E+03 -0.11829153593E+04  0.16002061101E+04  0.97596583423E+02 0.  0.
         13    1    3    3    0    0 -0.63670083761E+03 -0.31206892014E+03 -0.82164119448E+03  0.10852968350E+04  0.00000000000E+00 0.  1.
        -13    1    3    3    0    0 -0.34989134437E+03 -0.11040193202E+03 -0.36127416484E+03  0.51490927516E+03  0.00000000000E+00 0. -1.
         22    1    1    2    0    0  0.98659218198E+03  0.42247085216E+03  0.28085901609E+03  0.11093816031E+04  0.00000000000E+00 0.  1.
<mgrwt>
<rscale>  0 0.25550264E+04</rscale>
<asrwt>0</asrwt>
<pdfrwt beam="1">  1        2 0.27781877E+00 0.25550264E+04</pdfrwt>
<pdfrwt beam="2">  1       -2 0.13904088E+00 0.25550264E+04</pdfrwt>
<totfact> 0.27807176E+00</totfact>
</mgrwt>
</event>
<event>
 6    1  0.2708235E-005  0.4089629E+04  0.7818608E-02  0.7986706E-01
         -2   -1    0    0    0  501 -0.00000000000E+00  0.00000000000E+00  0.17751945527E+04  0.17751945527E+04  0.00000000000E+00 0.  1.
          2   -1    0    0  501    0  0.00000000000E+00 -0.00000000000E+00 -0.23553849932E+04  0.23553849932E+04  0.00000000000E+00 0. -1.
         23    2    1    2    0    0 -0.33204542654E+03 -0.51223309339E+03 -0.22602919898E+04  0.23430174846E+04  0.90410987923E+02 0.  0.
         13    1    3    3    0    0 -0.13867400134E+03 -0.20495942198E+03 -0.75313231057E+03  0.79274656766E+03  0.00000000000E+00 0. -1.
        -13    1    3    3    0    0 -0.19337142520E+03 -0.30727367141E+03 -0.15071596792E+04  0.15502709169E+04  0.00000000000E+00 0.  1.
         22    1    1    2    0    0  0.33204542654E+03  0.51223309339E+03  0.16801015493E+04  0.17875620613E+04  0.00000000000E+00 0.  1.
<mgrwt>
<rscale>  0 0.40896291E+04</rscale>
<asrwt>0</asrwt>
<pdfrwt beam="1">  1        2 0.36236692E+00 0.40896291E+04</pdfrwt>
<pdfrwt beam="2">  1       -2 0.27310686E+00 0.40896291E+04</pdfrwt>
<totfact> 0.15320997E-01</totfact>
</mgrwt>
</event>
<event>
 6    1  0.1831439E-005  0.1177145E+04  0.7818608E-02  0.9133100E-01
         -2   -1    0    0    0  501 -0.00000000000E+00  0.00000000000E+00  0.50630131563E+03  0.50630131563E+03  0.00000000000E+00 0.  1.
          2   -1    0    0  501    0  0.00000000000E+00 -0.00000000000E+00 -0.68421192306E+03  0.68421192306E+03  0.00000000000E+00 0. -1.
         23    2    1    2    0    0 -0.41075195360E+03  0.39626497660E+03 -0.21928659677E+03  0.61827633709E+03  0.91847255883E+02 0.  0.
         13    1    3    3    0    0 -0.29325640824E+03  0.30692119644E+03 -0.20053878666E+03  0.46948455433E+03  0.00000000000E+00 0. -1.
        -13    1    3    3    0    0 -0.11749554536E+03  0.89343780158E+02 -0.18747810112E+02  0.14879178276E+03  0.00000000000E+00 0.  1.
         22    1    1    2    0    0  0.41075195360E+03 -0.39626497660E+03  0.41375989337E+02  0.57223690160E+03  0.00000000000E+00 0.  1.
<mgrwt>
<rscale>  0 0.11771447E+04</rscale>
<asrwt>0</asrwt>
<pdfrwt beam="1">  1        2 0.10526337E+00 0.11771447E+04</pdfrwt>
<pdfrwt beam="2">  1       -2 0.77892510E-01 0.11771447E+04</pdfrwt>
<totfact> 0.61195714E+01</totfact>
</mgrwt>
</event>
<event>
 6    1  0.1831439E-005  0.2228978E+04  0.7818608E-02  0.8506463E-01
          1   -1    0    0  501    0  0.00000000000E+00  0.00000000000E+00  0.12479946447E+04  0.12479946447E+04  0.00000000000E+00 0. -1.
         -1   -1    0    0    0  501 -0.00000000000E+00 -0.00000000000E+00 -0.99526525653E+03  0.99526525653E+03  0.00000000000E+00 0.  1.
         23    2    1    2    0    0 -0.21337380073E+03  0.30700504502E+03 -0.92816596717E+03  0.10045935552E+04  0.89082389032E+02 0.  0.
         13    1    3    3    0    0 -0.11916273490E+03  0.24140840283E+03 -0.63152048980E+03  0.68650994413E+03  0.00000000000E+00 0.  1.
        -13    1    3    3    0    0 -0.94211065835E+02  0.65596642192E+02 -0.29664547737E+03  0.31808361108E+03  0.00000000000E+00 0. -1.
         22    1    1    2    0    0  0.21337380073E+03 -0.30700504502E+03  0.11808953553E+04  0.12386663460E+04  0.00000000000E+00 0. -1.
<mgrwt>
<rscale>  0 0.22289780E+04</rscale>
<asrwt>0</asrwt>
<pdfrwt beam="1">  1        1 0.19199918E+00 0.22289780E+04</pdfrwt>
<pdfrwt beam="2">  1       -1 0.15311773E+00 0.22289780E+04</pdfrwt>
<totfact> 0.29589264E+00</totfact>
</mgrwt>
</event>
<event>
 6    1  0.1831439E-005  0.3598195E+03  0.7818608E-02  0.1058655E+00
          2   -1    0    0  501    0  0.00000000000E+00  0.00000000000E+00  0.22234075628E+03  0.22234075628E+03  0.00000000000E+00 0. -1.
         -2   -1    0    0    0  501 -0.00000000000E+00 -0.00000000000E+00 -0.14557618881E+03  0.14557618881E+03  0.00000000000E+00 0.  1.
         23    2    1    2    0    0  0.31723396968E+02 -0.15374265228E+03 -0.21931134014E+02  0.18248766331E+03  0.90430059031E+02 0.  0.
         13    1    3    3    0    0  0.33316093289E+01 -0.12768074216E+03  0.15623567255E+02  0.12867621145E+03  0.00000000000E+00 0. -1.
        -13    1    3    3    0    0  0.28391787639E+02 -0.26061910129E+02 -0.37554701269E+02  0.53811451870E+02  0.00000000000E+00 0.  1.
         22    1    1    2    0    0 -0.31723396968E+02  0.15374265228E+03  0.98695701481E+02  0.18542928177E+03  0.00000000000E+00 0. -1.
<mgrwt>
<rscale>  0 0.35981951E+03</rscale>
<asrwt>0</asrwt>
<pdfrwt beam="1">  1        2 0.34206270E-01 0.35981951E+03</pdfrwt>
<pdfrwt beam="2">  1       -2 0.22396337E-01 0.35981951E+03</pdfrwt>
<totfact> 0.26309056E+03</totfact>
</mgrwt>
</event>
<event>
 6    1  0.1831439E-005  0.1304551E+04  0.7818608E-02  0.9025964E-01
         -3   -1    0    0    0  501 -0.00000000000E+00  0.00000000000E+00  0.12858708465E+04  0.12858708465E+04  0.00000000000E+00 0.  1.
          3   -1    0    0  501    0  0.00000000000E+00 -0.00000000000E+00 -0.33087570516E+03  0.33087570516E+03  0.00000000000E+00 0. -1.
         23    2    1    2    0    0 -0.49918555990E+03 -0.12574168067E+03  0.97008766372E+03  0.11017465733E+04  0.88194347677E+02 0.  0.
         11    1    3    3    0    0 -0.24181694038E+03 -0.53034163695E+02  0.55838859432E+03  0.61080756171E+03  0.00000000000E+00 0. -1.
        -11    1    3    3    0    0 -0.25736861951E+03 -0.72707516979E+02  0.41169906940E+03  0.49093901157E+03  0.00000000000E+00 0.  1.
         22    1    1    2    0    0  0.49918555990E+03  0.12574168067E+03 -0.15092522403E+02  0.51499997835E+03  0.00000000000E+00 0. -1.
<mgrwt>
<rscale>  0 0.13045511E+04</rscale>
<asrwt>0</asrwt>
<pdfrwt beam="1">  1        3 0.50903955E-01 0.13045511E+04</pdfrwt>
<pdfrwt beam="2">  1       -3 0.19782628E+00 0.13045511E+04</pdfrwt>
<totfact> 0.14854917E+00</totfact>
</mgrwt>
</event>
<event>
 6    1  0.1831439E-005  0.2592822E+04  0.7818608E-02  0.8370643E-01
         -1   -1    0    0    0  501 -0.00000000000E+00  0.00000000000E+00  0.83328719195E+03  0.83328719195E+03  0.00000000000E+00 0.  1.
          1   -1    0    0  501    0  0.00000000000E+00 -0.00000000000E+00 -0.20169296934E+04  0.20169296934E+04  0.00000000000E+00 0. -1.
         23    2    1    2    0    0  0.12651374391E+04  0.93039348432E+02 -0.30749741022E+03  0.13085102722E+04  0.91735570114E+02 0.  0.
         11    1    3    3    0    0  0.89642733573E+03  0.10754602003E+03 -0.22122693986E+03  0.92956413097E+03  0.00000000000E+00 0. -1.
        -11    1    3    3    0    0  0.36871010341E+03 -0.14506671593E+02 -0.86270470360E+02  0.37894614121E+03  0.00000000000E+00 0.  1.
         22    1    1    2    0    0 -0.12651374391E+04 -0.93039348432E+02 -0.87614509127E+03  0.15417066132E+04  0.00000000000E+00 0.  1.
<mgrwt>
<rscale>  0 0.25928222E+04</rscale>
<asrwt>0</asrwt>
<pdfrwt beam="1">  1        1 0.31029687E+00 0.25928222E+04</pdfrwt>
<pdfrwt beam="2">  1       -1 0.12819803E+00 0.25928222E+04</pdfrwt>
<totfact> 0.13433567E+00</totfact>
</mgrwt>
</event>
<event>
 6    1  0.1831439E-005  0.2143102E+04  0.7818608E-02  0.8542491E-01
          1   -1    0    0  501    0  0.00000000000E+00  0.00000000000E+00  0.14323692790E+04  0.14323692790E+04  0.00000000000E+00 0. -1.
         -1   -1    0    0    0  501 -0.00000000000E+00 -0.00000000000E+00 -0.80162427303E+03  0.80162427303E+03  0.00000000000E+00 0.  1.
         23    2    1    2    0    0  0.69585200125E+02  0.95783210133E+03  0.80732934078E+03  0.12575374794E+04  0.85647027335E+02 0.  0.
         11    1    3    3    0    0 -0.19305470573E+02  0.24133351640E+03  0.20943023621E+03  0.32011808942E+03  0.00000000000E+00 0.  1.
        -11    1    3    3    0    0  0.88890670698E+02  0.71649858493E+03  0.59789910456E+03  0.93741939002E+03  0.00000000000E+00 0. -1.
         22    1    1    2    0    0 -0.69585200125E+02 -0.95783210133E+03 -0.17658433481E+03  0.97645607260E+03  0.00000000000E+00 0.  1.
<mgrwt>
<rscale>  0 0.21431024E+04</rscale>
<asrwt>0</asrwt>
<pdfrwt beam="1">  1        1 0.22036450E+00 0.21431024E+04</pdfrwt>
<pdfrwt beam="2">  1       -1 0.12332681E+00 0.21431024E+04</pdfrwt>
<totfact> 0.38662230E+00</totfact>
</mgrwt>
</event>
<event>
 6    1  0.1831439E-005  0.1906289E+04  0.7818608E-02  0.8651732E-01
          1   -1    0    0  501    0  0.00000000000E+00  0.00000000000E+00  0.18865257121E+04  0.18865257121E+04  0.00000000000E+00 0. -1.
         -1   -1    0    0    0  501 -0.00000000000E+00 -0.00000000000E+00 -0.48156479687E+03  0.48156479687E+03  0.00000000000E+00 0.  1.
         23    2    1    2    0    0  0.35408194002E+03  0.35563041065E+02 -0.39133697614E+03  0.53688192864E+03  0.91971877601E+02 0.  0.
         13    1    3    3    0    0  0.29851392274E+03  0.29643482197E+02 -0.37169777507E+03  0.47764896535E+03  0.00000000000E+00 0. -1.
        -13    1    3    3    0    0  0.55568017285E+02  0.59195588672E+01 -0.19639201069E+02  0.59232963296E+02  0.00000000000E+00 0.  1.
         22    1    1    2    0    0 -0.35408194002E+03 -0.35563041065E+02  0.17962978914E+04  0.18312085804E+04  0.00000000000E+00 0. -1.
<mgrwt>
<rscale>  0 0.19062889E+04</rscale>
<asrwt>0</asrwt>
<pdfrwt beam="1">  1        1 0.29023472E+00 0.19062889E+04</pdfrwt>
<pdfrwt beam="2">  1       -1 0.74086893E-01 0.19062889E+04</pdfrwt>
<totfact> 0.61030647E+00</totfact>
</mgrwt>
</event>
<event>
 6    1  0.1831439E-005  0.2173718E+04  0.7818608E-02  0.8529448E-01
         -2   -1    0    0    0  501 -0.00000000000E+00  0.00000000000E+00  0.74662435893E+03  0.74662435893E+03  0.00000000000E+00 0.  1.
          2   -1    0    0  501    0  0.00000000000E+00 -0.00000000000E+00 -0.15821373466E+04  0.15821373466E+04  0.00000000000E+00 0. -1.
         23    2    1    2    0    0  0.61811718336E+03  0.28658487235E+03  0.48605213300E+03  0.84190794351E+03  0.91447077206E+02 0.  0.
         11    1    3    3    0    0  0.12789131934E+03  0.35358003228E+02  0.13153506418E+03  0.18683642863E+03  0.00000000000E+00 0. -1.
        -11    1    3    3    0    0  0.49022586402E+03  0.25122686912E+03  0.35451706882E+03  0.65507151488E+03  0.00000000000E+00 0.  1.
         22    1    1    2    0    0 -0.61811718336E+03 -0.28658487235E+03 -0.13215651206E+04  0.14868537620E+04  0.00000000000E+00 0. -1.
<mgrwt>
<rscale>  0 0.21737178E+04</rscale>
<asrwt>0</asrwt>
<pdfrwt beam="1">  1        2 0.24340574E+00 0.21737178E+04</pdfrwt>
<pdfrwt beam="2">  1       -2 0.11486529E+00 0.21737178E+04</pdfrwt>
<totfact> 0.61823942E+00</totfact>
</mgrwt>
</event>
<event>
 6    1  0.1831439E-005  0.2540277E+04  0.7818608E-02  0.8388776E-01
          2   -1    0    0  501    0  0.00000000000E+00  0.00000000000E+00  0.10050320856E+04  0.10050320856E+04  0.00000000000E+00 0. -1.
         -2   -1    0    0    0  501 -0.00000000000E+00 -0.00000000000E+00 -0.16051745437E+04  0.16051745437E+04  0.00000000000E+00 0.  1.
         23    2    1    2    0    0  0.84201294171E+03 -0.68422512492E+03 -0.97581265830E+03  0.14620437859E+04  0.90619380805E+02 0.  0.
         13    1    3    3    0    0  0.72626504607E+03 -0.56108215192E+03 -0.79079817623E+03  0.12114602156E+04  0.00000000000E+00 0. -1.
        -13    1    3    3    0    0  0.11574789563E+03 -0.12314297300E+03 -0.18501448207E+03  0.25058357033E+03  0.00000000000E+00 0.  1.
         22    1    1    2    0    0 -0.84201294171E+03  0.68422512492E+03  0.37567020026E+03  0.11481628434E+04  0.00000000000E+00 0. -1.
<mgrwt>
<rscale>  0 0.25402771E+04</rscale>
<asrwt>0</asrwt>
<pdfrwt beam="1">  1        2 0.15462032E+00 0.25402771E+04</pdfrwt>
<pdfrwt beam="2">  1       -2 0.24694993E+00 0.25402771E+04</pdfrwt>
<totfact> 0.14911821E+00</totfact>
</mgrwt>
</event>
<event>
 6    1  0.1831439E-005  0.2036043E+04  0.7818608E-02  0.8589952E-01
          2   -1    0    0  501    0  0.00000000000E+00  0.00000000000E+00  0.11049093365E+04  0.11049093365E+04  0.00000000000E+00 0.  1.
         -2   -1    0    0    0  501 -0.00000000000E+00 -0.00000000000E+00 -0.93796662030E+03  0.93796662030E+03  0.00000000000E+00 0. -1.
         23    2    1    2    0    0  0.33760588726E+03  0.88623387624E+03  0.44911090953E+03  0.10534280764E+04  0.92854104133E+02 0.  0.
         11    1    3    3    0    0  0.18054798472E+03  0.43402732277E+03  0.17367302503E+03  0.50113831556E+03  0.00000000000E+00 0.  1.
        -11    1    3    3    0    0  0.15705790254E+03  0.45220655347E+03  0.27543788450E+03  0.55228976087E+03  0.00000000000E+00 0. -1.
         22    1    1    2    0    0 -0.33760588726E+03 -0.88623387624E+03 -0.28216819338E+03  0.98944788032E+03  0.00000000000E+00 0. -1.
<mgrwt>
<rscale>  0 0.20360433E+04</rscale>
<asrwt>0</asrwt>
<pdfrwt beam="1">  1        2 0.16998605E+00 0.20360433E+04</pdfrwt>
<pdfrwt beam="2">  1       -2 0.14430256E+00 0.20360433E+04</pdfrwt>
<totfact> 0.66509321E+00</totfact>
</mgrwt>
</event>
<event>
 6    1  0.1831439E-005  0.2123758E+04  0.7818608E-02  0.8550849E-01
          2   -1    0    0  501    0  0.00000000000E+00  0.00000000000E+00  0.17796554387E+04  0.17796554387E+04  0.00000000000E+00 0.  1.
         -2   -1    0    0    0  501 -0.00000000000E+00 -0.00000000000E+00 -0.63359853587E+03  0.63359853587E+03  0.00000000000E+00 0. -1.
         23    2    1    2    0    0  0.36764356859E+03  0.40567276413E+03  0.16051684949E+04  0.16987502034E+04  0.97232564371E+02 0.  0.
         11    1    3    3    0    0  0.20224340982E+03  0.15108886822E+03  0.72687708475E+03  0.76946769864E+03  0.00000000000E+00 0. -1.
        -11    1    3    3    0    0  0.16540015876E+03  0.25458389591E+03  0.87829141014E+03  0.92928250479E+03  0.00000000000E+00 0.  1.
         22    1    1    2    0    0 -0.36764356859E+03 -0.40567276413E+03 -0.45911159203E+03  0.71450377117E+03  0.00000000000E+00 0. -1.
<mgrwt>
<rscale>  0 0.21237581E+04</rscale>
<asrwt>0</asrwt>
<pdfrwt beam="1">  1        2 0.27379314E+00 0.21237581E+04</pdfrwt>
<pdfrwt beam="2">  1       -2 0.97476699E-01 0.21237581E+04</pdfrwt>
<totfact> 0.71469331E+00</totfact>
</mgrwt>
</event>
<event>
 6    1  0.1831439E-005  0.3422964E+04  0.7818608E-02  0.8132293E-01
         -2   -1    0    0    0  501 -0.00000000000E+00  0.00000000000E+00  0.19134743312E+04  0.19134743312E+04  0.00000000000E+00 0.  1.
          2   -1    0    0  501    0  0.00000000000E+00 -0.00000000000E+00 -0.15308121726E+04  0.15308121726E+04  0.00000000000E+00 0. -1.
         23    2    1    2    0    0  0.93862332158E+03  0.75590223120E+03  0.14124157013E+04  0.18591069298E+04  0.94649565791E+02 0.  0.
         13    1    3    3    0    0  0.62792100359E+03  0.50235195644E+03  0.87248308688E+03  0.11865365615E+04  0.00000000000E+00 0. -1.
        -13    1    3    3    0    0  0.31070231799E+03  0.25355027476E+03  0.53993261442E+03  0.67257036832E+03  0.00000000000E+00 0.  1.
         22    1    1    2    0    0 -0.93862332158E+03 -0.75590223120E+03 -0.10297535427E+04  0.15851795740E+04  0.00000000000E+00 0. -1.
<mgrwt>
<rscale>  0 0.34229635E+04</rscale>
<asrwt>0</asrwt>
<pdfrwt beam="1">  1        2 0.23550956E+00 0.34229635E+04</pdfrwt>
<pdfrwt beam="2">  1       -2 0.29438067E+00 0.34229635E+04</pdfrwt>
<totfact> 0.34689723E-01</totfact>
</mgrwt>
</event>
<event>
 6    1  0.1831439E-005  0.3391997E+04  0.7818608E-02  0.8139873E-01
         -2   -1    0    0    0  501 -0.00000000000E+00  0.00000000000E+00  0.11911653576E+04  0.11911653576E+04  0.00000000000E+00 0.  1.
          2   -1    0    0  501    0  0.00000000000E+00 -0.00000000000E+00 -0.24147874272E+04  0.24147874272E+04  0.00000000000E+00 0. -1.
         23    2    1    2    0    0 -0.16671721632E+04  0.26280342775E+02 -0.29014076273E+03  0.16950522044E+04  0.94162812679E+02 0.  0.
         13    1    3    3    0    0 -0.39077241361E+03 -0.33335173422E+02 -0.73876483175E+02  0.39908902239E+03  0.00000000000E+00 0. -1.
        -13    1    3    3    0    0 -0.12763997496E+04  0.59615516198E+02 -0.21626427956E+03  0.12959631820E+04  0.00000000000E+00 0.  1.
         22    1    1    2    0    0  0.16671721632E+04 -0.26280342775E+02 -0.93348130688E+03  0.19109005805E+04  0.00000000000E+00 0.  1.
<mgrwt>
<rscale>  0 0.33919971E+04</rscale>
<asrwt>0</asrwt>
<pdfrwt beam="1">  1        2 0.37150576E+00 0.33919971E+04</pdfrwt>
<pdfrwt beam="2">  1       -2 0.18325621E+00 0.33919971E+04</pdfrwt>
<totfact> 0.55650385E-01</totfact>
</mgrwt>
</event>
<event>
 6    1  0.1831439E-005  0.2597511E+04  0.7818608E-02  0.8369047E-01
         -1   -1    0    0    0  501 -0.00000000000E+00  0.00000000000E+00  0.23924604823E+04  0.23924604823E+04  0.00000000000E+00 0.  1.
          1   -1    0    0  501    0  0.00000000000E+00 -0.00000000000E+00 -0.70503371673E+03  0.70503371673E+03  0.00000000000E+00 0. -1.
         23    2    1    2    0    0 -0.64186482468E+02  0.71708968175E+03 -0.44196296342E+03  0.84968679310E+03  0.91098129125E+02 0.  0.
         13    1    3    3    0    0 -0.44550058669E+02  0.58380730368E+03 -0.31640763452E+03  0.66552946346E+03  0.00000000000E+00 0. -1.
        -13    1    3    3    0    0 -0.19636423799E+02  0.13328237807E+03 -0.12555532890E+03  0.18415732964E+03  0.00000000000E+00 0.  1.
         22    1    1    2    0    0  0.64186482468E+02 -0.71708968175E+03  0.21293897290E+04  0.22478074059E+04  0.00000000000E+00 0.  1.
<mgrwt>
<rscale>  0 0.25975106E+04</rscale>
<asrwt>0</asrwt>
<pdfrwt beam="1">  1        1 0.10846673E+00 0.25975106E+04</pdfrwt>
<pdfrwt beam="2">  1       -1 0.36807084E+00 0.25975106E+04</pdfrwt>
<totfact> 0.27947790E-01</totfact>
</mgrwt>
</event>
<event>
 6    1  0.1831439E-005  0.2076205E+04  0.7818608E-02  0.8571798E-01
         -2   -1    0    0    0  501 -0.00000000000E+00  0.00000000000E+00  0.85244873684E+03  0.85244873684E+03  0.00000000000E+00 0.  1.
          2   -1    0    0  501    0  0.00000000000E+00 -0.00000000000E+00 -0.12641892193E+04  0.12641892193E+04  0.00000000000E+00 0. -1.
         23    2    1    2    0    0  0.33562369806E+03 -0.80713218305E+02  0.78958522548E+03  0.86670141900E+03  0.92566900627E+02 0.  0.
         13    1    3    3    0    0  0.45983739848E+02 -0.47062550213E+02  0.14655123904E+03  0.16064449454E+03  0.00000000000E+00 0.  1.
        -13    1    3    3    0    0  0.28963995822E+03 -0.33650668092E+02  0.64303398645E+03  0.70605692446E+03  0.00000000000E+00 0. -1.
         22    1    1    2    0    0 -0.33562369806E+03  0.80713218305E+02 -0.12013257079E+04  0.12499365371E+04  0.00000000000E+00 0. -1.
<mgrwt>
<rscale>  0 0.20762047E+04</rscale>
<asrwt>0</asrwt>
<pdfrwt beam="1">  1        2 0.19449065E+00 0.20762047E+04</pdfrwt>
<pdfrwt beam="2">  1       -2 0.13114596E+00 0.20762047E+04</pdfrwt>
<totfact> 0.68054091E+00</totfact>
</mgrwt>
</event>
<event>
 6    1  0.1831439E-005  0.2615728E+04  0.7818608E-02  0.8362878E-01
          1   -1    0    0  501    0  0.00000000000E+00  0.00000000000E+00  0.34194654692E+04  0.34194654692E+04  0.00000000000E+00 0. -1.
         -1   -1    0    0    0  501 -0.00000000000E+00 -0.00000000000E+00 -0.50022674703E+03  0.50022674703E+03  0.00000000000E+00 0.  1.
         23    2    1    2    0    0  0.63094207994E+03  0.10561634819E+04  0.21192923149E+04  0.24522170160E+04  0.91646980404E+02 0.  0.
         13    1    3    3    0    0  0.27898634211E+03  0.47137314407E+03  0.10346218401E+04  0.11706700526E+04  0.00000000000E+00 0. -1.
        -13    1    3    3    0    0  0.35195573783E+03  0.58479033780E+03  0.10846704748E+04  0.12815469635E+04  0.00000000000E+00 0.  1.
         22    1    1    2    0    0 -0.63094207994E+03 -0.10561634819E+04  0.79994640725E+03  0.14674752002E+04  0.00000000000E+00 0.  1.
<mgrwt>
<rscale>  0 0.26157279E+04</rscale>
<asrwt>0</asrwt>
<pdfrwt beam="1">  1        1 0.52607160E+00 0.26157279E+04</pdfrwt>
<pdfrwt beam="2">  1       -1 0.76957963E-01 0.26157279E+04</pdfrwt>
<totfact> 0.43052863E-01</totfact>
</mgrwt>
</event>
<event>
 6    1  0.1831439E-005  0.1680803E+04  0.7818608E-02  0.8772390E-01
          2   -1    0    0  501    0  0.00000000000E+00  0.00000000000E+00  0.43511787120E+04  0.43511787120E+04  0.00000000000E+00 0. -1.
         -2   -1    0    0    0  501 -0.00000000000E+00 -0.00000000000E+00 -0.16231793975E+03  0.16231793975E+03  0.00000000000E+00 0.  1.
         23    2    1    2    0    0  0.31974438535E+03  0.33060802643E+02  0.41785350025E+04  0.41918818042E+04  0.91590418532E+02 0.  0.
         11    1    3    3    0    0  0.43509266510E+02 -0.17558908373E+01  0.10755014923E+04  0.10763826455E+04  0.00000000000E+00 0. -1.
        -11    1    3    3    0    0  0.27623511884E+03  0.34816693480E+02  0.31030335101E+04  0.31154991587E+04  0.00000000000E+00 0.  1.
         22    1    1    2    0    0 -0.31974438535E+03 -0.33060802643E+02  0.10325769759E+02  0.32161484754E+03  0.00000000000E+00 0.  1.
<mgrwt>
<rscale>  0 0.16808026E+04</rscale>
<asrwt>0</asrwt>
<pdfrwt beam="1">  1        2 0.66941202E+00 0.16808026E+04</pdfrwt>
<pdfrwt beam="2">  1       -2 0.24971994E-01 0.16808026E+04</pdfrwt>
<totfact> 0.23911359E+00</totfact>
</mgrwt>
</event>
<event>
 6    1  0.1831439E-005  0.3428448E+04  0.7818608E-02  0.8130959E-01
         -2   -1    0    0    0  501 -0.00000000000E+00  0.00000000000E+00  0.26247007622E+04  0.26247007622E+04  0.00000000000E+00 0.  1.
          2   -1    0    0  501    0  0.00000000000E+00 -0.00000000000E+00 -0.11195806985E+04  0.11195806985E+04  0.00000000000E+00 0. -1.
         23    2    1    2    0    0  0.78632875298E+03 -0.64804008551E+03 -0.75077036267E+03  0.12689409839E+04  0.91028692595E+02 0.  0.
         13    1    3    3    0    0  0.18247044371E+02 -0.24533759801E+02 -0.42001147757E+02  0.51951481318E+02  0.00000000000E+00 0.  1.
        -13    1    3    3    0    0  0.76808170861E+03 -0.62350632571E+03 -0.70876921491E+03  0.12169895025E+04  0.00000000000E+00 0. -1.
         22    1    1    2    0    0 -0.78632875298E+03  0.64804008551E+03  0.22558904264E+04  0.24753404768E+04  0.00000000000E+00 0.  1.
<mgrwt>
<rscale>  0 0.34284482E+04</rscale>
<asrwt>0</asrwt>
<pdfrwt beam="1">  1        2 0.17224319E+00 0.34284482E+04</pdfrwt>
<pdfrwt beam="2">  1       -2 0.40380012E+00 0.34284482E+04</pdfrwt>
<totfact> 0.12263928E-01</totfact>
</mgrwt>
</event>
<event>
 6    1  0.1831439E-005  0.3228912E+04  0.7818608E-02  0.8181223E-01
          1   -1    0    0  501    0  0.00000000000E+00  0.00000000000E+00  0.16838902783E+04  0.16838902783E+04  0.00000000000E+00 0. -1.
         -1   -1    0    0    0  501 -0.00000000000E+00 -0.00000000000E+00 -0.15478851469E+04  0.15478851469E+04  0.00000000000E+00 0.  1.
         23    2    1    2    0    0 -0.53667387135E+03  0.14212814093E+03  0.15841190343E+04  0.16808875736E+04  0.87924214642E+02 0.  0.
         11    1    3    3    0    0 -0.15474471367E+03  0.15169464766E+02  0.35522602936E+03  0.38776483983E+03  0.00000000000E+00 0. -1.
        -11    1    3    3    0    0 -0.38192915768E+03  0.12695867616E+03  0.12288930049E+04  0.12931227337E+04  0.00000000000E+00 0.  1.
         22    1    1    2    0    0  0.53667387135E+03 -0.14212814093E+03 -0.14481139029E+04  0.15508878516E+04  0.00000000000E+00 0.  1.
<mgrwt>
<rscale>  0 0.32289124E+04</rscale>
<asrwt>0</asrwt>
<pdfrwt beam="1">  1        1 0.25906004E+00 0.32289124E+04</pdfrwt>
<pdfrwt beam="2">  1       -1 0.23813618E+00 0.32289124E+04</pdfrwt>
<totfact> 0.34024938E-01</totfact>
</mgrwt>
</event>
<event>
 6    1  0.1831439E-005  0.3970868E+04  0.7818608E-02  0.8010449E-01
          1   -1    0    0  501    0  0.00000000000E+00  0.00000000000E+00  0.19375368087E+04  0.19375368087E+04  0.00000000000E+00 0.  1.
         -1   -1    0    0    0  501 -0.00000000000E+00 -0.00000000000E+00 -0.20345156717E+04  0.20345156717E+04  0.00000000000E+00 0. -1.
         23    2    1    2    0    0  0.70040088879E+03 -0.47565712176E+03  0.17467384186E+04  0.19432339777E+04  0.90840995383E+02 0.  0.
         13    1    3    3    0    0  0.32684424533E+03 -0.25809241418E+03  0.93521257498E+03  0.10237487071E+04  0.00000000000E+00 0.  1.
        -13    1    3    3    0    0  0.37355664346E+03 -0.21756470759E+03  0.81152584364E+03  0.91948527055E+03  0.00000000000E+00 0. -1.
         22    1    1    2    0    0 -0.70040088879E+03  0.47565712176E+03 -0.18437172816E+04  0.20288185027E+04  0.00000000000E+00 0. -1.
<mgrwt>
<rscale>  0 0.39708684E+04</rscale>
<asrwt>0</asrwt>
<pdfrwt beam="1">  1        1 0.29808259E+00 0.39708684E+04</pdfrwt>
<pdfrwt beam="2">  1       -1 0.31300241E+00 0.39708684E+04</pdfrwt>
<totfact> 0.70066332E-02</totfact>
</mgrwt>
</event>
<event>
 6    1  0.1831439E-005  0.1620982E+04  0.7818608E-02  0.8807761E-01
          2   -1    0    0  501    0  0.00000000000E+00  0.00000000000E+00  0.22106848710E+04  0.22106848710E+04  0.00000000000E+00 0. -1.
         -2   -1    0    0    0  501 -0.00000000000E+00 -0.00000000000E+00 -0.29714582073E+03  0.29714582073E+03  0.00000000000E+00 0.  1.
         23    2    1    2    0    0 -0.28492466902E+03  0.70234815509E+02  0.21246148134E+04  0.21463504376E+04  0.81957911908E+02 0.  0.
         13    1    3    3    0    0 -0.11302055433E+03 -0.12791525977E+02  0.80955770024E+03  0.81750898396E+03  0.00000000000E+00 0. -1.
        -13    1    3    3    0    0 -0.17190411468E+03  0.83026341487E+02  0.13150571131E+04  0.13288414536E+04  0.00000000000E+00 0.  1.
         22    1    1    2    0    0  0.28492466902E+03 -0.70234815509E+02 -0.21107576315E+03  0.36148025411E+03  0.00000000000E+00 0.  1.
<mgrwt>
<rscale>  0 0.16209821E+04</rscale>
<asrwt>0</asrwt>
<pdfrwt beam="1">  1        2 0.34010535E+00 0.16209821E+04</pdfrwt>
<pdfrwt beam="2">  1       -2 0.45714743E-01 0.16209821E+04</pdfrwt>
<totfact> 0.22140242E+01</totfact>
</mgrwt>
</event>
<event>
 6    1  0.1831439E-005  0.1895310E+04  0.7818608E-02  0.8657194E-01
         -2   -1    0    0    0  501 -0.00000000000E+00  0.00000000000E+00  0.81018914662E+03  0.81018914662E+03  0.00000000000E+00 0.  1.
          2   -1    0    0  501    0  0.00000000000E+00 -0.00000000000E+00 -0.11084450637E+04  0.11084450637E+04  0.00000000000E+00 0. -1.
         23    2    1    2    0    0  0.88249013647E+03 -0.66019102013E+02 -0.48642716546E+03  0.10138934842E+04  0.90671093706E+02 0.  0.
         13    1    3    3    0    0  0.52395886662E+03 -0.83793423867E+02 -0.28956982091E+03  0.60448731416E+03  0.00000000000E+00 0. -1.
        -13    1    3    3    0    0  0.35853126985E+03  0.17774321854E+02 -0.19685734455E+03  0.40940617006E+03  0.00000000000E+00 0.  1.
         22    1    1    2    0    0 -0.88249013647E+03  0.66019102013E+02  0.18817124836E+03  0.90474072613E+03  0.00000000000E+00 0. -1.
<mgrwt>
<rscale>  0 0.18953102E+04</rscale>
<asrwt>0</asrwt>
<pdfrwt beam="1">  1        2 0.17053001E+00 0.18953102E+04</pdfrwt>
<pdfrwt beam="2">  1       -2 0.12464448E+00 0.18953102E+04</pdfrwt>
<totfact> 0.97408192E+00</totfact>
</mgrwt>
</event>
<event>
 6    1  0.1831439E-005  0.6168811E+03  0.7818608E-02  0.9870989E-01
         -2   -1    0    0    0  501 -0.00000000000E+00  0.00000000000E+00  0.35888693470E+02  0.35888693470E+02  0.00000000000E+00 0.  1.
          2   -1    0    0  501    0  0.00000000000E+00 -0.00000000000E+00 -0.26508505899E+04  0.26508505899E+04  0.00000000000E+00 0. -1.
         23    2    1    2    0    0  0.27656631981E+03  0.85727691163E+02 -0.17166104221E+04  0.17428783097E+04  0.83876663541E+02 0.  0.
         13    1    3    3    0    0  0.76303165445E+02 -0.14041135258E+02 -0.46463373921E+03  0.47106670244E+03  0.00000000000E+00 0.  1.
        -13    1    3    3    0    0  0.20026315436E+03  0.99768826420E+02 -0.12519766829E+04  0.12718116072E+04  0.00000000000E+00 0. -1.
         22    1    1    2    0    0 -0.27656631981E+03 -0.85727691163E+02 -0.89835147426E+03  0.94386097366E+03  0.00000000000E+00 0. -1.
<mgrwt>
<rscale>  0 0.61688107E+03</rscale>
<asrwt>0</asrwt>
<pdfrwt beam="1">  1        2 0.40782306E+00 0.61688107E+03</pdfrwt>
<pdfrwt beam="2">  1       -2 0.55213389E-02 0.61688107E+03</pdfrwt>
<totfact> 0.53035619E+02</totfact>
</mgrwt>
</event>
<event>
 6    1  0.1831439E-005  0.3668510E+04  0.7818608E-02  0.8074976E-01
         -2   -1    0    0    0  501 -0.00000000000E+00  0.00000000000E+00  0.11063350223E+04  0.11063350223E+04  0.00000000000E+00 0.  1.
          2   -1    0    0  501    0  0.00000000000E+00 -0.00000000000E+00 -0.30411144294E+04  0.30411144294E+04  0.00000000000E+00 0. -1.
         23    2    1    2    0    0 -0.18912253912E+03 -0.90638220069E+03 -0.27566815294E+04  0.29093787239E+04  0.88856491892E+02 0.  0.
         13    1    3    3    0    0 -0.21002744006E+02 -0.28622195949E+03 -0.90093447470E+03  0.94554061417E+03  0.00000000000E+00 0. -1.
        -13    1    3    3    0    0 -0.16811979511E+03 -0.62016024120E+03 -0.18557470547E+04  0.19638381097E+04  0.00000000000E+00 0.  1.
         22    1    1    2    0    0  0.18912253912E+03  0.90638220069E+03  0.82190212225E+03  0.12380707278E+04  0.00000000000E+00 0.  1.
<mgrwt>
<rscale>  0 0.36685100E+04</rscale>
<asrwt>0</asrwt>
<pdfrwt beam="1">  1        2 0.46786375E+00 0.36685100E+04</pdfrwt>
<pdfrwt beam="2">  1       -2 0.17020539E+00 0.36685100E+04</pdfrwt>
<totfact> 0.28219594E-01</totfact>
</mgrwt>
</event>
<event>
 6    1  0.1831439E-005  0.2519774E+04  0.7818608E-02  0.8395975E-01
         -1   -1    0    0    0  501 -0.00000000000E+00  0.00000000000E+00  0.64837148102E+03  0.64837148102E+03  0.00000000000E+00 0.  1.
          1   -1    0    0  501    0  0.00000000000E+00 -0.00000000000E+00 -0.24481569995E+04  0.24481569995E+04  0.00000000000E+00 0. -1.
         23    2    1    2    0    0  0.65824582186E+03 -0.45194120065E+03  0.29407204902E+03  0.85559610230E+03  0.89598601590E+02 0.  0.
         11    1    3    3    0    0  0.35632565395E+03 -0.21040407207E+03  0.18899498296E+03  0.45492521230E+03  0.00000000000E+00 0. -1.
        -11    1    3    3    0    0  0.30192016791E+03 -0.24153712859E+03  0.10507706606E+03  0.40067089000E+03  0.00000000000E+00 0.  1.
         22    1    1    2    0    0 -0.65824582186E+03  0.45194120065E+03 -0.20938575675E+04  0.22409323783E+04  0.00000000000E+00 0. -1.
<mgrwt>
<rscale>  0 0.25197739E+04</rscale>
<asrwt>0</asrwt>
<pdfrwt beam="1">  1        1 0.37663953E+00 0.25197739E+04</pdfrwt>
<pdfrwt beam="2">  1       -1 0.99749461E-01 0.25197739E+04</pdfrwt>
<totfact> 0.12506977E+00</totfact>
</mgrwt>
</event>
<event>
 6    1  0.1831439E-005  0.1245297E+04  0.7818608E-02  0.9074106E-01
         -1   -1    0    0    0  501 -0.00000000000E+00  0.00000000000E+00  0.27484526793E+03  0.27484526793E+03  0.00000000000E+00 0.  1.
          1   -1    0    0  501    0  0.00000000000E+00 -0.00000000000E+00 -0.14105805302E+04  0.14105805302E+04  0.00000000000E+00 0. -1.
         23    2    1    2    0    0  0.24491894110E+03  0.30451197371E+03  0.79458727343E+02  0.40894263637E+03  0.90595588458E+02 0.  0.
         11    1    3    3    0    0  0.10547267645E+03  0.88426332521E+02 -0.64840203583E+01  0.13778876688E+03  0.00000000000E+00 0. -1.
        -11    1    3    3    0    0  0.13944626465E+03  0.21608564119E+03  0.85942747702E+02  0.27115386949E+03  0.00000000000E+00 0.  1.
         22    1    1    2    0    0 -0.24491894110E+03 -0.30451197371E+03 -0.12151939896E+04  0.12764831618E+04  0.00000000000E+00 0. -1.
<mgrwt>
<rscale>  0 0.12452974E+04</rscale>
<asrwt>0</asrwt>
<pdfrwt beam="1">  1        1 0.21701239E+00 0.12452974E+04</pdfrwt>
<pdfrwt beam="2">  1       -1 0.42283888E-01 0.12452974E+04</pdfrwt>
<totfact> 0.40956675E+01</totfact>
</mgrwt>
</event>
<event>
 6    1  0.1831439E-005  0.6938727E+03  0.7818608E-02  0.9727768E-01
         -1   -1    0    0    0  501 -0.00000000000E+00  0.00000000000E+00  0.14126300742E+03  0.14126300742E+03  0.00000000000E+00 0.  1.
          1   -1    0    0  501    0  0.00000000000E+00 -0.00000000000E+00 -0.85206203314E+03  0.85206203314E+03  0.00000000000E+00 0. -1.
         23    2    1    2    0    0  0.60970299193E+02  0.33536981158E+03 -0.35367733745E+03  0.49963871491E+03  0.91437948953E+02 0.  0.
         11    1    3    3    0    0  0.43125476056E+02  0.11383154128E+03 -0.18128661123E+03  0.21836268428E+03  0.00000000000E+00 0. -1.
        -11    1    3    3    0    0  0.17844823136E+02  0.22153827030E+03 -0.17239072622E+03  0.28127603063E+03  0.00000000000E+00 0.  1.
         22    1    1    2    0    0 -0.60970299193E+02 -0.33536981158E+03 -0.35712168827E+03  0.49368632565E+03  0.00000000000E+00 0. -1.
<mgrwt>
<rscale>  0 0.69387274E+03</rscale>
<asrwt>0</asrwt>
<pdfrwt beam="1">  1        1 0.13108647E+00 0.69387274E+03</pdfrwt>
<pdfrwt beam="2">  1       -1 0.21732771E-01 0.69387274E+03</pdfrwt>
<totfact> 0.35877038E+02</totfact>
</mgrwt>
</event>
<event>
 6    1  0.1831439E-005  0.1146441E+04  0.7818608E-02  0.9161073E-01
          1   -1    0    0  501    0  0.00000000000E+00  0.00000000000E+00  0.21087509320E+03  0.21087509320E+03  0.00000000000E+00 0. -1.
         -1   -1    0    0    0  501 -0.00000000000E+00 -0.00000000000E+00 -0.15581808523E+04  0.15581808523E+04  0.00000000000E+00 0.  1.
         23    2    1    2    0    0 -0.33429864931E+03  0.11076566528E+03  0.11653848675E+02  0.36520558485E+03  0.95993163706E+02 0.  0.
         13    1    3    3    0    0 -0.22286113272E+03  0.45219939622E+02 -0.30007680284E+02  0.22937390499E+03  0.00000000000E+00 0.  1.
        -13    1    3    3    0    0 -0.11143751659E+03  0.65545725663E+02  0.41661528959E+02  0.13583167986E+03  0.00000000000E+00 0. -1.
         22    1    1    2    0    0  0.33429864931E+03 -0.11076566528E+03 -0.13589596078E+04  0.14038503607E+04  0.00000000000E+00 0.  1.
<mgrwt>
<rscale>  0 0.11464406E+04</rscale>
<asrwt>0</asrwt>
<pdfrwt beam="1">  1        1 0.32442324E-01 0.11464406E+04</pdfrwt>
<pdfrwt beam="2">  1       -1 0.23972012E+00 0.11464406E+04</pdfrwt>
<totfact> 0.11257327E+01</totfact>
</mgrwt>
</event>
<event>
 6    1  0.1831439E-005  0.6920586E+03  0.7818608E-02  0.9730910E-01
          2   -1    0    0  501    0  0.00000000000E+00  0.00000000000E+00  0.18230882912E+04  0.18230882912E+04  0.00000000000E+00 0. -1.
         -2   -1    0    0    0  501 -0.00000000000E+00 -0.00000000000E+00 -0.65677715697E+02  0.65677715697E+02  0.00000000000E+00 0.  1.
         23    2    1    2    0    0 -0.32950359070E+03 -0.84045442077E+02  0.87213614435E+03  0.94042689504E+03  0.90249864406E+02 0.  0.
         11    1    3    3    0    0 -0.26952036710E+03 -0.95766844765E+02  0.76990038626E+03  0.82131548238E+03  0.00000000000E+00 0. -1.
        -11    1    3    3    0    0 -0.59983223598E+02  0.11721402688E+02  0.10223575809E+03  0.11911141266E+03  0.00000000000E+00 0.  1.
         22    1    1    2    0    0  0.32950359070E+03  0.84045442077E+02  0.88527443117E+03  0.94833911187E+03  0.00000000000E+00 0. -1.
<mgrwt>
<rscale>  0 0.69205859E+03</rscale>
<asrwt>0</asrwt>
<pdfrwt beam="1">  1        2 0.28047508E+00 0.69205859E+03</pdfrwt>
<pdfrwt beam="2">  1       -2 0.10104265E-01 0.69205859E+03</pdfrwt>
<totfact> 0.57839750E+02</totfact>
</mgrwt>
</event>
<event>
 6    1  0.1831439E-005  0.3086717E+04  0.7818608E-02  0.8219393E-01
          1   -1    0    0  501    0  0.00000000000E+00  0.00000000000E+00  0.30617102518E+04  0.30617102518E+04  0.00000000000E+00 0. -1.
         -1   -1    0    0    0  501 -0.00000000000E+00 -0.00000000000E+00 -0.77798176086E+03  0.77798176086E+03  0.00000000000E+00 0.  1.
         23    2    1    2    0    0  0.33651351722E+03  0.62449376946E+03  0.28460037866E+04  0.29344918561E+04  0.90945505049E+02 0.  0.
         11    1    3    3    0    0  0.23095286705E+03  0.40930200126E+03  0.17050303061E+04  0.17686140618E+04  0.00000000000E+00 0. -1.
        -11    1    3    3    0    0  0.10556065017E+03  0.21519176820E+03  0.11409734805E+04  0.11658777943E+04  0.00000000000E+00 0.  1.
         22    1    1    2    0    0 -0.33651351722E+03 -0.62449376946E+03 -0.56227529564E+03  0.90520015657E+03  0.00000000000E+00 0.  1.
<mgrwt>
<rscale>  0 0.30867165E+04</rscale>
<asrwt>0</asrwt>
<pdfrwt beam="1">  1        1 0.47103234E+00 0.30867165E+04</pdfrwt>
<pdfrwt beam="2">  1       -1 0.11968950E+00 0.30867165E+04</pdfrwt>
<totfact> 0.28323851E-01</totfact>
</mgrwt>
</event>
<event>
 6    1  0.1831439E-005  0.1308729E+04  0.7818608E-02  0.9022671E-01
          3   -1    0    0  501    0  0.00000000000E+00  0.00000000000E+00  0.88845734868E+03  0.88845734868E+03  0.00000000000E+00 0. -1.
         -3   -1    0    0    0  501 -0.00000000000E+00 -0.00000000000E+00 -0.48195125658E+03  0.48195125658E+03  0.00000000000E+00 0.  1.
         23    2    1    2    0    0  0.75662396136E+02  0.62304254162E+03  0.38551861171E+03  0.74243784066E+03  0.93180150310E+02 0.  0.
         11    1    3    3    0    0  0.57639022810E+01  0.97540296957E+01  0.25392581353E+02  0.27805518384E+02  0.00000000000E+00 0.  1.
        -11    1    3    3    0    0  0.69898493855E+02  0.61328851193E+03  0.36012603036E+03  0.71463232228E+03  0.00000000000E+00 0. -1.
         22    1    1    2    0    0 -0.75662396136E+02 -0.62304254162E+03  0.20987480380E+02  0.62797076460E+03  0.00000000000E+00 0.  1.
<mgrwt>
<rscale>  0 0.13087294E+04</rscale>
<asrwt>0</asrwt>
<pdfrwt beam="1">  1        3 0.13668575E+00 0.13087294E+04</pdfrwt>
<pdfrwt beam="2">  1       -3 0.74146347E-01 0.13087294E+04</pdfrwt>
<totfact> 0.18129186E+00</totfact>
</mgrwt>
</event>
<event>
 6    1  0.1831439E-005  0.1439578E+04  0.7818608E-02  0.8925658E-01
          2   -1    0    0  501    0  0.00000000000E+00  0.00000000000E+00  0.34052066616E+04  0.34052066616E+04  0.00000000000E+00 0.  1.
         -2   -1    0    0    0  501 -0.00000000000E+00 -0.00000000000E+00 -0.15214821618E+03  0.15214821618E+03  0.00000000000E+00 0. -1.
         23    2    1    2    0    0 -0.37851979375E+03 -0.60873994956E+03  0.16589358349E+04  0.18094794652E+04  0.91138741880E+02 0.  0.
         11    1    3    3    0    0 -0.34751718331E+03 -0.59001763930E+03  0.15454952178E+04  0.16903977270E+04  0.00000000000E+00 0. -1.
        -11    1    3    3    0    0 -0.31002610447E+02 -0.18722310262E+02  0.11344061715E+03  0.11908173821E+03  0.00000000000E+00 0.  1.
         22    1    1    2    0    0  0.37851979375E+03  0.60873994956E+03  0.15941226105E+04  0.17478754126E+04  0.00000000000E+00 0.  1.
<mgrwt>
<rscale>  0 0.14395779E+04</rscale>
<asrwt>0</asrwt>
<pdfrwt beam="1">  1        2 0.52387789E+00 0.14395779E+04</pdfrwt>
<pdfrwt beam="2">  1       -2 0.23407420E-01 0.14395779E+04</pdfrwt>
<totfact> 0.15042916E+01</totfact>
</mgrwt>
</event>
<event>
 6    1  0.1831439E-005  0.1627812E+04  0.7818608E-02  0.8803642E-01
          1   -1    0    0  501    0  0.00000000000E+00  0.00000000000E+00  0.13697050977E+04  0.13697050977E+04  0.00000000000E+00 0. -1.
         -1   -1    0    0    0  501 -0.00000000000E+00 -0.00000000000E+00 -0.48363940567E+03  0.48363940567E+03  0.00000000000E+00 0.  1.
         23    2    1    2    0    0  0.55460740558E+03  0.54118729042E+03  0.17122527028E+03  0.79908178174E+03  0.93490871689E+02 0.  0.
         13    1    3    3    0    0  0.26119592307E+03  0.29537049008E+03  0.49328894717E+02  0.39736680346E+03  0.00000000000E+00 0. -1.
        -13    1    3    3    0    0  0.29341148251E+03  0.24581680034E+03  0.12189637556E+03  0.40171497828E+03  0.00000000000E+00 0.  1.
         22    1    1    2    0    0 -0.55460740558E+03 -0.54118729042E+03  0.71484042177E+03  0.10542627216E+04  0.00000000000E+00 0. -1.
<mgrwt>
<rscale>  0 0.16278125E+04</rscale>
<asrwt>0</asrwt>
<pdfrwt beam="1">  1        1 0.21072386E+00 0.16278125E+04</pdfrwt>
<pdfrwt beam="2">  1       -1 0.74406063E-01 0.16278125E+04</pdfrwt>
<totfact> 0.14044682E+01</totfact>
</mgrwt>
</event>
<event>
 6    1  0.1831439E-005  0.1233627E+04  0.7818608E-02  0.9083921E-01
         -2   -1    0    0    0  501 -0.00000000000E+00  0.00000000000E+00  0.27801379627E+03  0.27801379627E+03  0.00000000000E+00 0.  1.
          2   -1    0    0  501    0  0.00000000000E+00 -0.00000000000E+00 -0.13684900150E+04  0.13684900150E+04  0.00000000000E+00 0. -1.
         23    2    1    2    0    0  0.33496679342E+03  0.17508364985E+03  0.97392328546E+02  0.39995308116E+03  0.87293552627E+02 0.  0.
         13    1    3    3    0    0  0.26981527185E+03  0.12590641922E+03  0.40575150992E+02  0.30049800366E+03  0.00000000000E+00 0.  1.
        -13    1    3    3    0    0  0.65151521563E+02  0.49177230631E+02  0.56817177554E+02  0.99455077496E+02  0.00000000000E+00 0. -1.
         22    1    1    2    0    0 -0.33496679342E+03 -0.17508364985E+03 -0.11878685473E+04  0.12465507301E+04  0.00000000000E+00 0. -1.
<mgrwt>
<rscale>  0 0.12336273E+04</rscale>
<asrwt>0</asrwt>
<pdfrwt beam="1">  1        2 0.21053692E+00 0.12336273E+04</pdfrwt>
<pdfrwt beam="2">  1       -2 0.42771354E-01 0.12336273E+04</pdfrwt>
<totfact> 0.76937724E+01</totfact>
</mgrwt>
</event>
<event>
 6    1  0.1831439E-005  0.2410601E+04  0.7818608E-02  0.8435545E-01
         -2   -1    0    0    0  501 -0.00000000000E+00  0.00000000000E+00  0.12492308312E+04  0.12492308312E+04  0.00000000000E+00 0.  1.
          2   -1    0    0  501    0  0.00000000000E+00 -0.00000000000E+00 -0.11629153551E+04  0.11629153551E+04  0.00000000000E+00 0. -1.
         23    2    1    2    0    0 -0.34763498493E+03  0.58064755380E+03  0.10392515312E+04  0.12433481756E+04  0.88708940747E+02 0.  0.
         11    1    3    3    0    0 -0.15212380826E+03  0.17531146957E+03  0.37428118917E+03  0.44041136790E+03  0.00000000000E+00 0. -1.
        -11    1    3    3    0    0 -0.19551117667E+03  0.40533608423E+03  0.66497034204E+03  0.80293680771E+03  0.00000000000E+00 0.  1.
         22    1    1    2    0    0  0.34763498493E+03 -0.58064755380E+03 -0.95293605517E+03  0.11687980107E+04  0.00000000000E+00 0. -1.
<mgrwt>
<rscale>  0 0.24106013E+04</rscale>
<asrwt>0</asrwt>
<pdfrwt beam="1">  1        2 0.17891005E+00 0.24106013E+04</pdfrwt>
<pdfrwt beam="2">  1       -2 0.19218936E+00 0.24106013E+04</pdfrwt>
<totfact> 0.26844320E+00</totfact>
</mgrwt>
</event>
<event>
 6    1  0.1831439E-005  0.3440248E+04  0.7818608E-02  0.8128098E-01
         -2   -1    0    0    0  501 -0.00000000000E+00  0.00000000000E+00  0.10121966660E+04  0.10121966660E+04  0.00000000000E+00 0.  1.
          2   -1    0    0  501    0  0.00000000000E+00 -0.00000000000E+00 -0.29231740193E+04  0.29231740193E+04  0.00000000000E+00 0. -1.
         23    2    1    2    0    0  0.10640018317E+04  0.29936317525E+03  0.54958467015E+03  0.12379490128E+04  0.93574783189E+02 0.  0.
         11    1    3    3    0    0  0.63174541398E+03  0.19725672025E+03  0.28184404617E+03  0.71933896609E+03  0.00000000000E+00 0. -1.
        -11    1    3    3    0    0  0.43225641772E+03  0.10210645499E+03  0.26774062398E+03  0.51861004670E+03  0.00000000000E+00 0.  1.
         22    1    1    2    0    0 -0.10640018317E+04 -0.29936317525E+03 -0.24605620234E+04  0.26974216725E+04  0.00000000000E+00 0. -1.
<mgrwt>
<rscale>  0 0.34402482E+04</rscale>
<asrwt>0</asrwt>
<pdfrwt beam="1">  1        2 0.44971907E+00 0.34402482E+04</pdfrwt>
<pdfrwt beam="2">  1       -2 0.15572257E+00 0.34402482E+04</pdfrwt>
<totfact> 0.43490913E-01</totfact>
</mgrwt>
</event>
<event>
 6    1  0.1831439E-005  0.2979662E+04  0.7818608E-02  0.8249562E-01
         -2   -1    0    0    0  501 -0.00000000000E+00  0.00000000000E+00  0.86947800584E+03  0.86947800584E+03  0.00000000000E+00 0.  1.
          2   -1    0    0  501    0  0.00000000000E+00 -0.00000000000E+00 -0.25527918857E+04  0.25527918857E+04  0.00000000000E+00 0. -1.
         23    2    1    2    0    0  0.14438555973E+04  0.22008557241E+03 -0.11695159986E+04  0.18739983043E+04  0.10461992446E+03 0.  0.
         13    1    3    3    0    0  0.10288325455E+04  0.18965990731E+03 -0.79215598675E+03  0.13122417439E+04  0.00000000000E+00 0. -1.
        -13    1    3    3    0    0  0.41502305181E+03  0.30425665095E+02 -0.37736001189E+03  0.56175656045E+03  0.00000000000E+00 0.  1.
         22    1    1    2    0    0 -0.14438555973E+04 -0.22008557241E+03 -0.51379788127E+03  0.15482715872E+04  0.00000000000E+00 0.  1.
<mgrwt>
<rscale>  0 0.29796620E+04</rscale>
<asrwt>0</asrwt>
<pdfrwt beam="1">  1        2 0.39273720E+00 0.29796620E+04</pdfrwt>
<pdfrwt beam="2">  1       -2 0.13376585E+00 0.29796620E+04</pdfrwt>
<totfact> 0.11228973E+00</totfact>
</mgrwt>
</event>
<event>
 6    1  0.1831439E-005  0.2820439E+04  0.7818608E-02  0.8296951E-01
          2   -1    0    0  501    0  0.00000000000E+00  0.00000000000E+00  0.19396603936E+04  0.19396603936E+04  0.00000000000E+00 0. -1.
         -2   -1    0    0    0  501 -0.00000000000E+00 -0.00000000000E+00 -0.10252923060E+04  0.10252923060E+04  0.00000000000E+00 0.  1.
         23    2    1    2    0    0 -0.12528671244E+04 -0.18218132193E+03  0.11071037981E+04  0.16843227298E+04  0.91641544961E+02 0.  0.
         11    1    3    3    0    0 -0.98379697668E+03 -0.17001392746E+03  0.83612515962E+03  0.13022543950E+04  0.00000000000E+00 0.  1.
        -11    1    3    3    0    0 -0.26907014770E+03 -0.12167394471E+02  0.27097863850E+03  0.38206833472E+03  0.00000000000E+00 0. -1.
         22    1    1    2    0    0  0.12528671244E+04  0.18218132193E+03 -0.19273571052E+03  0.12806299698E+04  0.00000000000E+00 0.  1.
<mgrwt>
<rscale>  0 0.28204389E+04</rscale>
<asrwt>0</asrwt>
<pdfrwt beam="1">  1        2 0.29840929E+00 0.28204389E+04</pdfrwt>
<pdfrwt beam="2">  1       -2 0.15773728E+00 0.28204389E+04</pdfrwt>
<totfact> 0.16419414E+00</totfact>
</mgrwt>
</event>
<event>
 6    1  0.1831439E-005  0.8500510E+03  0.7818608E-02  0.9490268E-01
          1   -1    0    0  501    0  0.00000000000E+00  0.00000000000E+00  0.14735352487E+04  0.14735352487E+04  0.00000000000E+00 0. -1.
         -1   -1    0    0    0  501 -0.00000000000E+00 -0.00000000000E+00 -0.12259406858E+03  0.12259406858E+03  0.00000000000E+00 0.  1.
         23    2    1    2    0    0 -0.32921399750E+03  0.14748632635E+03  0.27948278334E+03  0.46557318482E+03  0.92269667992E+02 0.  0.
         13    1    3    3    0    0 -0.72959127850E+02  0.69423462632E+01  0.94879944733E+02  0.11988925899E+03  0.00000000000E+00 0. -1.
        -13    1    3    3    0    0 -0.25625486965E+03  0.14054398008E+03  0.18460283861E+03  0.34568392583E+03  0.00000000000E+00 0.  1.
         22    1    1    2    0    0  0.32921399750E+03 -0.14748632635E+03  0.10714583968E+04  0.11305561325E+04  0.00000000000E+00 0. -1.
<mgrwt>
<rscale>  0 0.85005101E+03</rscale>
<asrwt>0</asrwt>
<pdfrwt beam="1">  1        1 0.22669772E+00 0.85005101E+03</pdfrwt>
<pdfrwt beam="2">  1       -1 0.18860627E-01 0.85005101E+03</pdfrwt>
<totfact> 0.15574430E+02</totfact>
</mgrwt>
</event>
<event>
 6    1  0.1831439E-005  0.4308518E+04  0.7818608E-02  0.7945045E-01
         -2   -1    0    0    0  501 -0.00000000000E+00  0.00000000000E+00  0.12628370846E+04  0.12628370846E+04  0.00000000000E+00 0.  1.
          2   -1    0    0  501    0  0.00000000000E+00 -0.00000000000E+00 -0.36749248573E+04  0.36749248573E+04  0.00000000000E+00 0. -1.
         23    2    1    2    0    0 -0.15038659756E+03 -0.15241315666E+04 -0.29412764645E+04  0.33173811741E+04  0.91200070148E+02 0.  0.
         13    1    3    3    0    0 -0.10838870987E+03 -0.13669283462E+04 -0.26493616325E+04  0.29831792229E+04  0.00000000000E+00 0. -1.
        -13    1    3    3    0    0 -0.41997887683E+02 -0.15720322036E+03 -0.29191483198E+03  0.33420195121E+03  0.00000000000E+00 0.  1.
         22    1    1    2    0    0  0.15038659756E+03  0.15241315666E+04  0.52918869182E+03  0.16203807678E+04  0.00000000000E+00 0.  1.
<mgrwt>
<rscale>  0 0.43085178E+04</rscale>
<asrwt>0</asrwt>
<pdfrwt beam="1">  1        2 0.56537306E+00 0.43085178E+04</pdfrwt>
<pdfrwt beam="2">  1       -2 0.19428263E+00 0.43085178E+04</pdfrwt>
<totfact> 0.67836198E-02</totfact>
</mgrwt>
</event>
<event>
 6    1  0.1831439E-005  0.9042357E+03  0.7818608E-02  0.9420302E-01
          2   -1    0    0  501    0  0.00000000000E+00  0.00000000000E+00  0.20507179240E+04  0.20507179240E+04  0.00000000000E+00 0.  1.
         -2   -1    0    0    0  501 -0.00000000000E+00 -0.00000000000E+00 -0.99677558479E+02  0.99677558479E+02  0.00000000000E+00 0. -1.
         23    2    1    2    0    0 -0.25904135741E+03  0.29650932371E+03  0.48358934335E+03  0.63104275636E+03  0.96623513993E+02 0.  0.
         11    1    3    3    0    0 -0.96437297617E+02  0.96575675838E+02  0.10114964225E+03  0.16987720171E+03  0.00000000000E+00 0.  1.
        -11    1    3    3    0    0 -0.16260405979E+03  0.19993364787E+03  0.38243970110E+03  0.46116555465E+03  0.00000000000E+00 0. -1.
         22    1    1    2    0    0  0.25904135741E+03 -0.29650932371E+03  0.14674510221E+04  0.15193527261E+04  0.00000000000E+00 0.  1.
<mgrwt>
<rscale>  0 0.90423571E+03</rscale>
<asrwt>0</asrwt>
<pdfrwt beam="1">  1        2 0.31549503E+00 0.90423571E+03</pdfrwt>
<pdfrwt beam="2">  1       -2 0.15335011E-01 0.90423571E+03</pdfrwt>
<totfact> 0.21388746E+02</totfact>
</mgrwt>
</event>
<event>
 6    1  0.2960120E-005  0.2493579E+04  0.7818608E-02  0.8405277E-01
          1   -1    0    0  501    0  0.00000000000E+00  0.00000000000E+00  0.26163695531E+04  0.26163695531E+04  0.00000000000E+00 0. -1.
         -1   -1    0    0    0  501 -0.00000000000E+00 -0.00000000000E+00 -0.59413759722E+03  0.59413759722E+03  0.00000000000E+00 0.  1.
         23    2    1    2    0    0 -0.74151076195E+03 -0.72783223401E+03  0.12806473731E+03  0.10500795485E+04  0.81783312544E+02 0.  0.
         11    1    3    3    0    0 -0.45607378281E+03 -0.40481864849E+03  0.10142683771E+03  0.61819805641E+03  0.00000000000E+00 0.  1.
        -11    1    3    3    0    0 -0.28543697913E+03 -0.32301358552E+03  0.26637899600E+02  0.43188149206E+03  0.00000000000E+00 0. -1.
         22    1    1    2    0    0  0.74151076195E+03  0.72783223401E+03  0.18941672186E+04  0.21604276019E+04  0.00000000000E+00 0. -1.
<mgrwt>
<rscale>  0 0.24935786E+04</rscale>
<asrwt>0</asrwt>
<pdfrwt beam="1">  1        1 0.40251839E+00 0.24935786E+04</pdfrwt>
<pdfrwt beam="2">  1       -1 0.91405786E-01 0.24935786E+04</pdfrwt>
<totfact> 0.11655740E+00</totfact>
</mgrwt>
</event>
<event>
 6    1  0.1831439E-005  0.5538508E+03  0.7818608E-02  0.1000607E+00
          2   -1    0    0  501    0  0.00000000000E+00  0.00000000000E+00  0.28343013768E+04  0.28343013768E+04  0.00000000000E+00 0. -1.
         -2   -1    0    0    0  501 -0.00000000000E+00 -0.00000000000E+00 -0.27056989894E+02  0.27056989894E+02  0.00000000000E+00 0.  1.
         23    2    1    2    0    0  0.33808790952E+02 -0.73729255022E+02  0.27689804450E+04  0.27716746634E+04  0.91371206466E+02 0.  0.
         11    1    3    3    0    0 -0.13638631238E+02 -0.71716003788E+02  0.14450980555E+04  0.14469407684E+04  0.00000000000E+00 0. -1.
        -11    1    3    3    0    0  0.47447422191E+02 -0.20132512340E+01  0.13238823896E+04  0.13247338950E+04  0.00000000000E+00 0.  1.
         22    1    1    2    0    0 -0.33808790952E+02  0.73729255022E+02  0.38263941902E+02  0.89683703322E+02  0.00000000000E+00 0.  1.
<mgrwt>
<rscale>  0 0.55385075E+03</rscale>
<asrwt>0</asrwt>
<pdfrwt beam="1">  1        2 0.43604613E+00 0.55385075E+03</pdfrwt>
<pdfrwt beam="2">  1       -2 0.41626161E-02 0.55385075E+03</pdfrwt>
<totfact> 0.64646107E+02</totfact>
</mgrwt>
</event>
<event>
 6    1  0.1831439E-005  0.1623769E+04  0.7818608E-02  0.8806077E-01
          1   -1    0    0  501    0  0.00000000000E+00  0.00000000000E+00  0.15016467491E+04  0.15016467491E+04  0.00000000000E+00 0. -1.
         -1   -1    0    0    0  501 -0.00000000000E+00 -0.00000000000E+00 -0.43895583980E+03  0.43895583980E+03  0.00000000000E+00 0.  1.
         23    2    1    2    0    0  0.45897383231E+03 -0.51862105995E+03  0.32380595783E+02  0.69916627371E+03  0.90333785167E+02 0.  0.
         11    1    3    3    0    0  0.14663809696E+03 -0.23163886740E+03  0.18584873823E+02  0.27478117459E+03  0.00000000000E+00 0. -1.
        -11    1    3    3    0    0  0.31233573534E+03 -0.28698219255E+03  0.13795721960E+02  0.42438509912E+03  0.00000000000E+00 0.  1.
         22    1    1    2    0    0 -0.45897383231E+03  0.51862105995E+03  0.10303103135E+04  0.12414363152E+04  0.00000000000E+00 0. -1.
<mgrwt>
<rscale>  0 0.16237692E+04</rscale>
<asrwt>0</asrwt>
<pdfrwt beam="1">  1        1 0.23102258E+00 0.16237692E+04</pdfrwt>
<pdfrwt beam="2">  1       -1 0.67531668E-01 0.16237692E+04</pdfrwt>
<totfact> 0.13874465E+01</totfact>
</mgrwt>
</event>
<event>
 6    1  0.2196973E-005  0.3259401E+04  0.7818608E-02  0.8173303E-01
         -2   -1    0    0    0  501 -0.00000000000E+00  0.00000000000E+00  0.89793503445E+03  0.89793503445E+03  0.00000000000E+00 0.  1.
          2   -1    0    0  501    0  0.00000000000E+00 -0.00000000000E+00 -0.29578132404E+04  0.29578132404E+04  0.00000000000E+00 0. -1.
         23    2    1    2    0    0  0.25320659662E+03  0.12059959390E+04 -0.22891378730E+04  0.26023130829E+04  0.11550495467E+03 0.  0.
         11    1    3    3    0    0  0.13591769981E+03  0.53274788694E+03 -0.91139680057E+03  0.10643956314E+04  0.00000000000E+00 0. -1.
        -11    1    3    3    0    0  0.11728889681E+03  0.67324805204E+03 -0.13777410725E+04  0.15379174515E+04  0.00000000000E+00 0.  1.
         22    1    1    2    0    0 -0.25320659662E+03 -0.12059959390E+04  0.22925966706E+03  0.12534351919E+04  0.00000000000E+00 0.  1.
<mgrwt>
<rscale>  0 0.32594013E+04</rscale>
<asrwt>0</asrwt>
<pdfrwt beam="1">  1        2 0.45504820E+00 0.32594013E+04</pdfrwt>
<pdfrwt beam="2">  1       -2 0.13814385E+00 0.32594013E+04</pdfrwt>
<totfact> 0.57606479E-01</totfact>
</mgrwt>
</event>
<event>
 6    1  0.1831439E-005  0.1769860E+04  0.7818608E-02  0.8722494E-01
         -1   -1    0    0    0  501 -0.00000000000E+00  0.00000000000E+00  0.75313802236E+03  0.75313802236E+03  0.00000000000E+00 0.  1.
          1   -1    0    0  501    0  0.00000000000E+00 -0.00000000000E+00 -0.10397841536E+04  0.10397841536E+04  0.00000000000E+00 0. -1.
         23    2    1    2    0    0 -0.43128254942E+03  0.62502277403E+03  0.31170389223E+03  0.82613323513E+03  0.93159542012E+02 0.  0.
         13    1    3    3    0    0 -0.19840379610E+03  0.31029026373E+03  0.10285615003E+03  0.38239181695E+03  0.00000000000E+00 0.  1.
        -13    1    3    3    0    0 -0.23287875332E+03  0.31473251030E+03  0.20884774219E+03  0.44374141818E+03  0.00000000000E+00 0. -1.
         22    1    1    2    0    0  0.43128254942E+03 -0.62502277403E+03 -0.59835002344E+03  0.96678894080E+03  0.00000000000E+00 0. -1.
<mgrwt>
<rscale>  0 0.17698599E+04</rscale>
<asrwt>0</asrwt>
<pdfrwt beam="1">  1        1 0.15996679E+00 0.17698599E+04</pdfrwt>
<pdfrwt beam="2">  1       -1 0.11586739E+00 0.17698599E+04</pdfrwt>
<totfact> 0.89882625E+00</totfact>
</mgrwt>
</event>
<event>
 6    1  0.1831439E-005  0.2813584E+04  0.7818608E-02  0.8299064E-01
          1   -1    0    0  501    0  0.00000000000E+00  0.00000000000E+00  0.29301784684E+04  0.29301784684E+04  0.00000000000E+00 0. -1.
         -1   -1    0    0    0  501 -0.00000000000E+00 -0.00000000000E+00 -0.67540702345E+03  0.67540702345E+03  0.00000000000E+00 0.  1.
         23    2    1    2    0    0  0.12912386234E+04  0.49494902057E+03  0.14494653731E+04  0.20053387656E+04  0.90343685303E+02 0.  0.
         11    1    3    3    0    0  0.31839579302E+03  0.83047008261E+02  0.36213353255E+03  0.48929886776E+03  0.00000000000E+00 0.  1.
        -11    1    3    3    0    0  0.97284283039E+03  0.41190201230E+03  0.10873318406E+04  0.15160398978E+04  0.00000000000E+00 0. -1.
         22    1    1    2    0    0 -0.12912386234E+04 -0.49494902057E+03  0.80530607186E+03  0.16002467263E+04  0.00000000000E+00 0.  1.
<mgrwt>
<rscale>  0 0.28135836E+04</rscale>
<asrwt>0</asrwt>
<pdfrwt beam="1">  1        1 0.45079668E+00 0.28135836E+04</pdfrwt>
<pdfrwt beam="2">  1       -1 0.10390877E+00 0.28135836E+04</pdfrwt>
<totfact> 0.50650505E-01</totfact>
</mgrwt>
</event>
<event>
 6    1  0.1831439E-005  0.2774982E+04  0.7818608E-02  0.8311078E-01
          2   -1    0    0  501    0  0.00000000000E+00  0.00000000000E+00  0.96498076401E+03  0.96498076401E+03  0.00000000000E+00 0. -1.
         -2   -1    0    0    0  501 -0.00000000000E+00 -0.00000000000E+00 -0.19949942942E+04  0.19949942942E+04  0.00000000000E+00 0.  1.
         23    2    1    2    0    0 -0.82800058482E+03 -0.75704027660E+03 -0.13834798073E+04  0.17836956025E+04  0.94120541776E+02 0.  0.
         13    1    3    3    0    0 -0.21251890734E+03 -0.15016618562E+03 -0.28509780875E+03  0.38599861377E+03  0.00000000000E+00 0. -1.
        -13    1    3    3    0    0 -0.61548167748E+03 -0.60687409098E+03 -0.10983819985E+04  0.13976969887E+04  0.00000000000E+00 0.  1.
         22    1    1    2    0    0  0.82800058482E+03  0.75704027660E+03  0.35346627708E+03  0.11762794557E+04  0.00000000000E+00 0. -1.
<mgrwt>
<rscale>  0 0.27749819E+04</rscale>
<asrwt>0</asrwt>
<pdfrwt beam="1">  1        2 0.14845858E+00 0.27749819E+04</pdfrwt>
<pdfrwt beam="2">  1       -2 0.30692219E+00 0.27749819E+04</pdfrwt>
<totfact> 0.66705893E-01</totfact>
</mgrwt>
</event>
<event>
 6    1  0.1831439E-005  0.3314856E+04  0.7818608E-02  0.8159126E-01
          1   -1    0    0  501    0  0.00000000000E+00  0.00000000000E+00  0.22529940327E+04  0.22529940327E+04  0.00000000000E+00 0. -1.
         -1   -1    0    0    0  501 -0.00000000000E+00 -0.00000000000E+00 -0.12192963950E+04  0.12192963950E+04  0.00000000000E+00 0.  1.
         23    2    1    2    0    0 -0.15195562667E+04  0.65430421031E+03  0.59636474269E+03  0.17610261850E+04  0.91635530657E+02 0.  0.
         13    1    3    3    0    0 -0.10270039745E+04  0.48634980334E+03  0.42267288486E+03  0.12124049086E+04  0.00000000000E+00 0. -1.
        -13    1    3    3    0    0 -0.49255229221E+03  0.16795440696E+03  0.17369185783E+03  0.54862127634E+03  0.00000000000E+00 0.  1.
         22    1    1    2    0    0  0.15195562667E+04 -0.65430421031E+03  0.43733289500E+03  0.17112642427E+04  0.00000000000E+00 0. -1.
<mgrwt>
<rscale>  0 0.33148560E+04</rscale>
<asrwt>0</asrwt>
<pdfrwt beam="1">  1        1 0.34661447E+00 0.33148560E+04</pdfrwt>
<pdfrwt beam="2">  1       -1 0.18758406E+00 0.33148560E+04</pdfrwt>
<totfact> 0.30516407E-01</totfact>
</mgrwt>
</event>
<event>
 6    1  0.1831439E-005  0.2569320E+04  0.7818608E-02  0.8378698E-01
         -1   -1    0    0    0  501 -0.00000000000E+00  0.00000000000E+00  0.74959057100E+03  0.74959057100E+03  0.00000000000E+00 0.  1.
          1   -1    0    0  501    0  0.00000000000E+00 -0.00000000000E+00 -0.22016704167E+04  0.22016704167E+04  0.00000000000E+00 0. -1.
         23    2    1    2    0    0 -0.31790365993E+03  0.94697151235E+03  0.19807447101E+03  0.10223164444E+04  0.89886785524E+02 0.  0.
         13    1    3    3    0    0 -0.19744347575E+01  0.74938913986E+02  0.23236547473E+02  0.78483605680E+02  0.00000000000E+00 0. -1.
        -13    1    3    3    0    0 -0.31592922517E+03  0.87203259837E+03  0.17483792353E+03  0.94383283872E+03  0.00000000000E+00 0.  1.
         22    1    1    2    0    0  0.31790365993E+03 -0.94697151235E+03 -0.16501543167E+04  0.19289445433E+04  0.00000000000E+00 0. -1.
<mgrwt>
<rscale>  0 0.25693201E+04</rscale>
<asrwt>0</asrwt>
<pdfrwt beam="1">  1        1 0.33871853E+00 0.25693201E+04</pdfrwt>
<pdfrwt beam="2">  1       -1 0.11532163E+00 0.25693201E+04</pdfrwt>
<totfact> 0.13078966E+00</totfact>
</mgrwt>
</event>
<event>
 6    1  0.1831439E-005  0.4138673E+04  0.7818608E-02  0.7977142E-01
         -2   -1    0    0    0  501 -0.00000000000E+00  0.00000000000E+00  0.19323074056E+04  0.19323074056E+04  0.00000000000E+00 0.  1.
          2   -1    0    0  501    0  0.00000000000E+00 -0.00000000000E+00 -0.22160829375E+04  0.22160829375E+04  0.00000000000E+00 0. -1.
         23    2    1    2    0    0  0.18290952071E+04  0.89502656373E+02  0.82169942156E+03  0.20093076249E+04  0.92342784349E+02 0.  0.
         13    1    3    3    0    0  0.99628577618E+03  0.92290967966E+02  0.43207520693E+03  0.10898586858E+04  0.00000000000E+00 0.  1.
        -13    1    3    3    0    0  0.83280943095E+03 -0.27883115925E+01  0.38962421464E+03  0.91944893909E+03  0.00000000000E+00 0. -1.
         22    1    1    2    0    0 -0.18290952071E+04 -0.89502656373E+02 -0.11054749535E+04  0.21390827181E+04  0.00000000000E+00 0. -1.
<mgrwt>
<rscale>  0 0.41386730E+04</rscale>
<asrwt>0</asrwt>
<pdfrwt beam="1">  1        2 0.34093584E+00 0.41386730E+04</pdfrwt>
<pdfrwt beam="2">  1       -2 0.29727806E+00 0.41386730E+04</pdfrwt>
<totfact> 0.13030138E-01</totfact>
</mgrwt>
</event>
<event>
 6    1  0.1831439E-005  0.2295425E+04  0.7818608E-02  0.8479727E-01
         -2   -1    0    0    0  501 -0.00000000000E+00  0.00000000000E+00  0.62613411649E+03  0.62613411649E+03  0.00000000000E+00 0.  1.
          2   -1    0    0  501    0  0.00000000000E+00 -0.00000000000E+00 -0.21037734313E+04  0.21037734313E+04  0.00000000000E+00 0. -1.
         23    2    1    2    0    0 -0.27465017930E+03  0.63172134646E+03  0.34931832449E+03  0.77740177409E+03  0.88462681202E+02 0.  0.
         11    1    3    3    0    0 -0.67007326525E+02  0.21288813070E+03  0.15175238862E+03  0.26988909844E+03  0.00000000000E+00 0.  1.
        -11    1    3    3    0    0 -0.20764285278E+03  0.41883321576E+03  0.19756593587E+03  0.50751267565E+03  0.00000000000E+00 0. -1.
         22    1    1    2    0    0  0.27465017930E+03 -0.63172134646E+03 -0.18269576393E+04  0.19525057737E+04  0.00000000000E+00 0. -1.
<mgrwt>
<rscale>  0 0.22954253E+04</rscale>
<asrwt>0</asrwt>
<pdfrwt beam="1">  1        2 0.32365746E+00 0.22954253E+04</pdfrwt>
<pdfrwt beam="2">  1       -2 0.96328323E-01 0.22954253E+04</pdfrwt>
<totfact> 0.47839804E+00</totfact>
</mgrwt>
</event>
<event>
 6    1  0.1831439E-005  0.2361871E+04  0.7818608E-02  0.8453918E-01
          1   -1    0    0  501    0  0.00000000000E+00  0.00000000000E+00  0.22784900070E+04  0.22784900070E+04  0.00000000000E+00 0. -1.
         -1   -1    0    0    0  501 -0.00000000000E+00 -0.00000000000E+00 -0.61207578051E+03  0.61207578051E+03  0.00000000000E+00 0.  1.
         23    2    1    2    0    0  0.96505759284E+03 -0.63057942144E+03  0.53115021161E+03  0.12726069043E+04  0.91876119587E+02 0.  0.
         11    1    3    3    0    0  0.67760912328E+03 -0.39769098397E+03  0.38334144474E+03  0.87422131405E+03  0.00000000000E+00 0.  1.
        -11    1    3    3    0    0  0.28744846956E+03 -0.23288843747E+03  0.14780876687E+03  0.39838559025E+03  0.00000000000E+00 0. -1.
         22    1    1    2    0    0 -0.96505759284E+03  0.63057942144E+03  0.11352640149E+04  0.16179588832E+04  0.00000000000E+00 0. -1.
<mgrwt>
<rscale>  0 0.23618709E+04</rscale>
<asrwt>0</asrwt>
<pdfrwt beam="1">  1        1 0.35053692E+00 0.23618709E+04</pdfrwt>
<pdfrwt beam="2">  1       -1 0.94165506E-01 0.23618709E+04</pdfrwt>
<totfact> 0.18902172E+00</totfact>
</mgrwt>
</event>
<event>
 6    1  0.1831439E-005  0.2588351E+04  0.7818608E-02  0.8372169E-01
         -2   -1    0    0    0  501 -0.00000000000E+00  0.00000000000E+00  0.36864267035E+03  0.36864267035E+03  0.00000000000E+00 0.  1.
          2   -1    0    0  501    0  0.00000000000E+00 -0.00000000000E+00 -0.45433980586E+04  0.45433980586E+04  0.00000000000E+00 0. -1.
         23    2    1    2    0    0  0.75456176945E+03  0.83084444838E+03 -0.87518157890E+03  0.14268071235E+04  0.10084547706E+03 0.  0.
         11    1    3    3    0    0  0.17947983200E+03  0.14527110076E+03 -0.15421415211E+03  0.27766654016E+03  0.00000000000E+00 0.  1.
        -11    1    3    3    0    0  0.57508193745E+03  0.68557334762E+03 -0.72096742679E+03  0.11491405833E+04  0.00000000000E+00 0. -1.
         22    1    1    2    0    0 -0.75456176945E+03 -0.83084444838E+03 -0.32995738094E+04  0.34852336055E+04  0.00000000000E+00 0. -1.
<mgrwt>
<rscale>  0 0.25883511E+04</rscale>
<asrwt>0</asrwt>
<pdfrwt beam="1">  1        2 0.69898428E+00 0.25883511E+04</pdfrwt>
<pdfrwt beam="2">  1       -2 0.56714260E-01 0.25883511E+04</pdfrwt>
<totfact> 0.28920956E-01</totfact>
</mgrwt>
</event>
<event>
 6    1  0.1831439E-005  0.4274814E+04  0.7818608E-02  0.7951292E-01
          1   -1    0    0  501    0  0.00000000000E+00  0.00000000000E+00  0.28747096126E+04  0.28747096126E+04  0.00000000000E+00 0. -1.
         -1   -1    0    0    0  501 -0.00000000000E+00 -0.00000000000E+00 -0.15892068680E+04  0.15892068680E+04  0.00000000000E+00 0.  1.
         23    2    1    2    0    0  0.77537764118E+03  0.19646550210E+04  0.97832184170E+03  0.23295688179E+04  0.93259924276E+02 0.  0.
         11    1    3    3    0    0  0.55487298800E+03  0.14546929797E+04  0.67993140609E+03  0.16989180131E+04  0.00000000000E+00 0. -1.
        -11    1    3    3    0    0  0.22050465318E+03  0.50996204127E+03  0.29839043561E+03  0.63065080486E+03  0.00000000000E+00 0.  1.
         22    1    1    2    0    0 -0.77537764118E+03 -0.19646550210E+04  0.30718090282E+03  0.21343476627E+04  0.00000000000E+00 0.  1.
<mgrwt>
<rscale>  0 0.42748138E+04</rscale>
<asrwt>0</asrwt>
<pdfrwt beam="1">  1        1 0.44226302E+00 0.42748138E+04</pdfrwt>
<pdfrwt beam="2">  1       -1 0.24449336E+00 0.42748138E+04</pdfrwt>
<totfact> 0.42703551E-02</totfact>
</mgrwt>
</event>
<event>
 6    1  0.1831439E-005  0.2652936E+04  0.7818608E-02  0.8350439E-01
         -1   -1    0    0    0  501 -0.00000000000E+00  0.00000000000E+00  0.73493381377E+03  0.73493381377E+03  0.00000000000E+00 0.  1.
          1   -1    0    0  501    0  0.00000000000E+00 -0.00000000000E+00 -0.23941158678E+04  0.23941158678E+04  0.00000000000E+00 0. -1.
         23    2    1    2    0    0  0.94065496431E+03  0.30798530732E+03  0.20822783928E+03  0.10155439633E+04  0.91016465488E+02 0.  0.
         13    1    3    3    0    0  0.71091268399E+03  0.27223856211E+03  0.15076511490E+03  0.77604175070E+03  0.00000000000E+00 0. -1.
        -13    1    3    3    0    0  0.22974228032E+03  0.35746745208E+02  0.57462724374E+02  0.23950221263E+03  0.00000000000E+00 0.  1.
         22    1    1    2    0    0 -0.94065496431E+03 -0.30798530732E+03 -0.18674098933E+04  0.21135057182E+04  0.00000000000E+00 0. -1.
<mgrwt>
<rscale>  0 0.26529355E+04</rscale>
<asrwt>0</asrwt>
<pdfrwt beam="1">  1        1 0.36832552E+00 0.26529355E+04</pdfrwt>
<pdfrwt beam="2">  1       -1 0.11306674E+00 0.26529355E+04</pdfrwt>
<totfact> 0.10046347E+00</totfact>
</mgrwt>
</event>
<event>
 6    1  0.2121237E-005  0.3272048E+04  0.7818608E-02  0.8170044E-01
          1   -1    0    0  501    0  0.00000000000E+00  0.00000000000E+00  0.23543958456E+04  0.23543958456E+04  0.00000000000E+00 0. -1.
         -1   -1    0    0    0  501 -0.00000000000E+00 -0.00000000000E+00 -0.11368414503E+04  0.11368414503E+04  0.00000000000E+00 0.  1.
         23    2    1    2    0    0  0.15561639715E+04  0.45259532320E+03  0.38050187814E+03  0.16671907644E+04  0.90854458718E+02 0.  0.
         11    1    3    3    0    0  0.97042128333E+03  0.27291616667E+03  0.19221428513E+03  0.10262295224E+04  0.00000000000E+00 0.  1.
        -11    1    3    3    0    0  0.58574268820E+03  0.17967915653E+03  0.18828759301E+03  0.64096124201E+03  0.00000000000E+00 0. -1.
         22    1    1    2    0    0 -0.15561639715E+04 -0.45259532320E+03  0.83705251715E+03  0.18240465316E+04  0.00000000000E+00 0. -1.
<mgrwt>
<rscale>  0 0.32720482E+04</rscale>
<asrwt>0</asrwt>
<pdfrwt beam="1">  1        1 0.36221475E+00 0.32720482E+04</pdfrwt>
<pdfrwt beam="2">  1       -1 0.17489868E+00 0.32720482E+04</pdfrwt>
<totfact> 0.32172014E-01</totfact>
</mgrwt>
</event>
<event>
 6    1  0.2201902E-005  0.2357398E+04  0.7818608E-02  0.8455628E-01
          2   -1    0    0  501    0  0.00000000000E+00  0.00000000000E+00  0.91505268159E+03  0.91505268159E+03  0.00000000000E+00 0. -1.
         -2   -1    0    0    0  501 -0.00000000000E+00 -0.00000000000E+00 -0.15183069970E+04  0.15183069970E+04  0.00000000000E+00 0.  1.
         23    2    1    2    0    0  0.11695604341E+04  0.10428016889E+03 -0.21928215057E+03  0.11979728623E+04  0.91150175939E+02 0.  0.
         11    1    3    3    0    0  0.35960722298E+03  0.68664538449E+02 -0.89872034663E+02  0.37697368114E+03  0.00000000000E+00 0.  1.
        -11    1    3    3    0    0  0.80995321109E+03  0.35615630439E+02 -0.12941011591E+03  0.82099918111E+03  0.00000000000E+00 0. -1.
         22    1    1    2    0    0 -0.11695604341E+04 -0.10428016889E+03 -0.38397216483E+03  0.12353868163E+04  0.00000000000E+00 0. -1.
<mgrwt>
<rscale>  0 0.23573976E+04</rscale>
<asrwt>0</asrwt>
<pdfrwt beam="1">  1        2 0.14077734E+00 0.23573976E+04</pdfrwt>
<pdfrwt beam="2">  1       -2 0.23358569E+00 0.23573976E+04</pdfrwt>
<totfact> 0.20982825E+00</totfact>
</mgrwt>
</event>
<event>
 6    1  0.1831439E-005  0.1864856E+04  0.7818608E-02  0.8672550E-01
         -2   -1    0    0    0  501 -0.00000000000E+00  0.00000000000E+00  0.68755785027E+03  0.68755785027E+03  0.00000000000E+00 0.  1.
          2   -1    0    0  501    0  0.00000000000E+00 -0.00000000000E+00 -0.12645076245E+04  0.12645076245E+04  0.00000000000E+00 0. -1.
         23    2    1    2    0    0  0.39680865663E+03  0.12516450243E+03  0.58163079904E+03  0.72103655252E+03  0.92065525714E+02 0.  0.
         11    1    3    3    0    0  0.39096197366E+03  0.12855286524E+03  0.54048091489E+03  0.67933550133E+03  0.00000000000E+00 0. -1.
        -11    1    3    3    0    0  0.58466829731E+01 -0.33883628078E+01  0.41149884153E+02  0.41701051187E+02  0.00000000000E+00 0.  1.
         22    1    1    2    0    0 -0.39680865663E+03 -0.12516450243E+03 -0.11585805733E+04  0.12310289223E+04  0.00000000000E+00 0. -1.
<mgrwt>
<rscale>  0 0.18648562E+04</rscale>
<asrwt>0</asrwt>
<pdfrwt beam="1">  1        2 0.19453963E+00 0.18648562E+04</pdfrwt>
<pdfrwt beam="2">  1       -2 0.10577813E+00 0.18648562E+04</pdfrwt>
<totfact> 0.11764555E+01</totfact>
</mgrwt>
</event>
<event>
 6    1  0.1831439E-005  0.5068406E+03  0.7818608E-02  0.1012009E+00
         -2   -1    0    0    0  501 -0.00000000000E+00  0.00000000000E+00  0.75061212721E+02  0.75061212721E+02  0.00000000000E+00 0.  1.
          2   -1    0    0  501    0  0.00000000000E+00 -0.00000000000E+00 -0.85559301874E+03  0.85559301874E+03  0.00000000000E+00 0. -1.
         23    2    1    2    0    0 -0.18470958500E+03 -0.15808917624E+03 -0.33156307837E+03  0.42008324047E+03  0.86174448372E+02 0.  0.
         13    1    3    3    0    0 -0.95461030090E+02 -0.13567364520E+03 -0.21003175717E+03  0.26764432609E+03  0.00000000000E+00 0.  1.
        -13    1    3    3    0    0 -0.89248554908E+02 -0.22415531035E+02 -0.12153132120E+03  0.15243891438E+03  0.00000000000E+00 0. -1.
         22    1    1    2    0    0  0.18470958500E+03  0.15808917624E+03 -0.44896872765E+03  0.51057099099E+03  0.00000000000E+00 0. -1.
<mgrwt>
<rscale>  0 0.50684060E+03</rscale>
<asrwt>0</asrwt>
<pdfrwt beam="1">  1        2 0.13162969E+00 0.50684060E+03</pdfrwt>
<pdfrwt beam="2">  1       -2 0.11547879E-01 0.50684060E+03</pdfrwt>
<totfact> 0.17119421E+03</totfact>
</mgrwt>
</event>
<event>
 6    1  0.1831439E-005  0.4691469E+04  0.7818608E-02  0.7877948E-01
         -2   -1    0    0    0  501 -0.00000000000E+00  0.00000000000E+00  0.13452168609E+04  0.13452168609E+04  0.00000000000E+00 0.  1.
          2   -1    0    0  501    0  0.00000000000E+00 -0.00000000000E+00 -0.40903958883E+04  0.40903958883E+04  0.00000000000E+00 0. -1.
         23    2    1    2    0    0 -0.22367468506E+04  0.52838677168E+03 -0.19110672110E+04  0.29906236744E+04  0.97072254702E+02 0.  0.
         11    1    3    3    0    0 -0.50650668696E+03  0.11148669763E+03 -0.48388052576E+03  0.70930858651E+03  0.00000000000E+00 0. -1.
        -11    1    3    3    0    0 -0.17302401636E+04  0.41690007405E+03 -0.14271866852E+04  0.22813150878E+04  0.00000000000E+00 0.  1.
         22    1    1    2    0    0  0.22367468506E+04 -0.52838677168E+03 -0.83411181638E+03  0.24449890749E+04  0.00000000000E+00 0.  1.
<mgrwt>
<rscale>  0 0.46914686E+04</rscale>
<asrwt>0</asrwt>
<pdfrwt beam="1">  1        2 0.62929168E+00 0.46914686E+04</pdfrwt>
<pdfrwt beam="2">  1       -2 0.20695644E+00 0.46914686E+04</pdfrwt>
<totfact> 0.25638588E-02</totfact>
</mgrwt>
</event>
<event>
 6    1  0.1831439E-005  0.2520437E+04  0.7818608E-02  0.8395741E-01
          2   -1    0    0  501    0  0.00000000000E+00  0.00000000000E+00  0.36984969695E+04  0.36984969695E+04  0.00000000000E+00 0.  1.
         -2   -1    0    0    0  501 -0.00000000000E+00 -0.00000000000E+00 -0.42940425135E+03  0.42940425135E+03  0.00000000000E+00 0. -1.
         23    2    1    2    0    0 -0.32033088009E+03 -0.50302620565E+03  0.34517953741E+04  0.35041805327E+04  0.93502217236E+02 0.  0.
         13    1    3    3    0    0 -0.16766018190E+03 -0.21303926341E+03  0.17854369327E+04  0.18059016321E+04  0.00000000000E+00 0. -1.
        -13    1    3    3    0    0 -0.15267069820E+03 -0.28998694224E+03  0.16663584414E+04  0.16982789005E+04  0.00000000000E+00 0.  1.
         22    1    1    2    0    0  0.32033088009E+03  0.50302620565E+03 -0.18270265597E+03  0.62372068814E+03  0.00000000000E+00 0. -1.
<mgrwt>
<rscale>  0 0.25204367E+04</rscale>
<asrwt>0</asrwt>
<pdfrwt beam="1">  1        2 0.56899951E+00 0.25204367E+04</pdfrwt>
<pdfrwt beam="2">  1       -2 0.66062195E-01 0.25204367E+04</pdfrwt>
<totfact> 0.11005112E+00</totfact>
</mgrwt>
</event>
<event>
 6    1  0.1831439E-005  0.1511106E+04  0.7818608E-02  0.8877101E-01
         -2   -1    0    0    0  501 -0.00000000000E+00  0.00000000000E+00  0.42018766107E+03  0.42018766107E+03  0.00000000000E+00 0.  1.
          2   -1    0    0  501    0  0.00000000000E+00 -0.00000000000E+00 -0.13585846377E+04  0.13585846377E+04  0.00000000000E+00 0. -1.
         23    2    1    2    0    0 -0.33159964718E+03  0.33224076919E+03 -0.11637255477E+04  0.12580850417E+04  0.90435430179E+02 0.  0.
         13    1    3    3    0    0 -0.13100070399E+03  0.15963174617E+03 -0.40644646454E+03  0.45589714561E+03  0.00000000000E+00 0. -1.
        -13    1    3    3    0    0 -0.20059894319E+03  0.17260902302E+03 -0.75727908318E+03  0.80218789610E+03  0.00000000000E+00 0.  1.
         22    1    1    2    0    0  0.33159964718E+03 -0.33224076919E+03  0.22532857108E+03  0.52068725707E+03  0.00000000000E+00 0.  1.
<mgrwt>
<rscale>  0 0.15111062E+04</rscale>
<asrwt>0</asrwt>
<pdfrwt beam="1">  1        2 0.20901302E+00 0.15111062E+04</pdfrwt>
<pdfrwt beam="2">  1       -2 0.64644255E-01 0.15111062E+04</pdfrwt>
<totfact> 0.32598425E+01</totfact>
</mgrwt>
</event>
<event>
 6    1  0.1831439E-005  0.4347674E+04  0.7818608E-02  0.7937861E-01
          2   -1    0    0  501    0  0.00000000000E+00  0.00000000000E+00  0.27934264835E+04  0.27934264835E+04  0.00000000000E+00 0. -1.
         -2   -1    0    0    0  501 -0.00000000000E+00 -0.00000000000E+00 -0.16916744906E+04  0.16916744906E+04  0.00000000000E+00 0.  1.
         23    2    1    2    0    0  0.27451178609E+03  0.21428103421E+04  0.31034638069E+03  0.21843802771E+04  0.90605939689E+02 0.  0.
         11    1    3    3    0    0  0.20611563177E+03  0.12755824604E+04  0.19902025378E+03  0.13073650325E+04  0.00000000000E+00 0.  1.
        -11    1    3    3    0    0  0.68396154314E+02  0.86722788170E+03  0.11132612691E+03  0.87701524459E+03  0.00000000000E+00 0. -1.
         22    1    1    2    0    0 -0.27451178609E+03 -0.21428103421E+04  0.79140561217E+03  0.23007206970E+04  0.00000000000E+00 0. -1.
<mgrwt>
<rscale>  0 0.43476745E+04</rscale>
<asrwt>0</asrwt>
<pdfrwt beam="1">  1        2 0.42975792E+00 0.43476745E+04</pdfrwt>
<pdfrwt beam="2">  1       -2 0.26025761E+00 0.43476745E+04</pdfrwt>
<totfact> 0.99491665E-02</totfact>
</mgrwt>
</event>
<event>
 6    1  0.1831439E-005  0.2767093E+04  0.7818608E-02  0.8313558E-01
          2   -1    0    0  501    0  0.00000000000E+00  0.00000000000E+00  0.22009958363E+04  0.22009958363E+04  0.00000000000E+00 0. -1.
         -2   -1    0    0    0  501 -0.00000000000E+00 -0.00000000000E+00 -0.86969736422E+03  0.86969736422E+03  0.00000000000E+00 0.  1.
         23    2    1    2    0    0 -0.60998499761E+03  0.11405588490E+04  0.12575792194E+03  0.13025630573E+04  0.88877882808E+02 0.  0.
         11    1    3    3    0    0 -0.35193073873E+03  0.64807610175E+03  0.27704950575E+02  0.73798742727E+03  0.00000000000E+00 0.  1.
        -11    1    3    3    0    0 -0.25805425887E+03  0.49248274722E+03  0.98052971368E+02  0.56457563004E+03  0.00000000000E+00 0. -1.
         22    1    1    2    0    0  0.60998499761E+03 -0.11405588490E+04  0.12055405501E+04  0.17681301432E+04  0.00000000000E+00 0. -1.
<mgrwt>
<rscale>  0 0.27670925E+04</rscale>
<asrwt>0</asrwt>
<pdfrwt beam="1">  1        2 0.33861474E+00 0.27670925E+04</pdfrwt>
<pdfrwt beam="2">  1       -2 0.13379960E+00 0.27670925E+04</pdfrwt>
<totfact> 0.18160334E+00</totfact>
</mgrwt>
</event>
<event>
 6    1  0.1831439E-005  0.3662543E+04  0.7818608E-02  0.8076314E-01
         -2   -1    0    0    0  501 -0.00000000000E+00  0.00000000000E+00  0.12257382656E+04  0.12257382656E+04  0.00000000000E+00 0.  1.
          2   -1    0    0  501    0  0.00000000000E+00 -0.00000000000E+00 -0.27359479318E+04  0.27359479318E+04  0.00000000000E+00 0. -1.
         23    2    1    2    0    0  0.15728702650E+04  0.85534267493E+03 -0.11659571349E+04  0.21384907149E+04  0.90302463423E+02 0.  0.
         13    1    3    3    0    0  0.59883061334E+03  0.30126478828E+03 -0.48213461646E+03  0.82571930129E+03  0.00000000000E+00 0. -1.
        -13    1    3    3    0    0  0.97403965168E+03  0.55407788665E+03 -0.68382251846E+03  0.13127714136E+04  0.00000000000E+00 0.  1.
         22    1    1    2    0    0 -0.15728702650E+04 -0.85534267493E+03 -0.34425253132E+03  0.18231954825E+04  0.00000000000E+00 0. -1.
<mgrwt>
<rscale>  0 0.36625434E+04</rscale>
<asrwt>0</asrwt>
<pdfrwt beam="1">  1        2 0.42091506E+00 0.36625434E+04</pdfrwt>
<pdfrwt beam="2">  1       -2 0.18857512E+00 0.36625434E+04</pdfrwt>
<totfact> 0.32464424E-01</totfact>
</mgrwt>
</event>
<event>
 6    1  0.1831439E-005  0.3561117E+04  0.7818608E-02  0.8099457E-01
          1   -1    0    0  501    0  0.00000000000E+00  0.00000000000E+00  0.16952181954E+04  0.16952181954E+04  0.00000000000E+00 0. -1.
         -1   -1    0    0    0  501 -0.00000000000E+00 -0.00000000000E+00 -0.18701950146E+04  0.18701950146E+04  0.00000000000E+00 0.  1.
         23    2    1    2    0    0 -0.85533229535E+03 -0.13470497288E+04  0.70102037022E+03  0.17451090092E+04  0.88541443146E+02 0.  0.
         13    1    3    3    0    0 -0.90439287026E+02 -0.11211310649E+03  0.42473790937E+02  0.15017535151E+03  0.00000000000E+00 0.  1.
        -13    1    3    3    0    0 -0.76489300832E+03 -0.12349366223E+04  0.65854657928E+03  0.15949336577E+04  0.00000000000E+00 0. -1.
         22    1    1    2    0    0  0.85533229535E+03  0.13470497288E+04 -0.87599718938E+03  0.18203042007E+04  0.00000000000E+00 0. -1.
<mgrwt>
<rscale>  0 0.35611170E+04</rscale>
<asrwt>0</asrwt>
<pdfrwt beam="1">  1        1 0.26080280E+00 0.35611170E+04</pdfrwt>
<pdfrwt beam="2">  1       -1 0.28772231E+00 0.35611170E+04</pdfrwt>
<totfact> 0.15459514E-01</totfact>
</mgrwt>
</event>
<event>
 6    1  0.1831439E-005  0.9275201E+03  0.7818608E-02  0.9391819E-01
          2   -1    0    0  501    0  0.00000000000E+00  0.00000000000E+00  0.15507781192E+04  0.15507781192E+04  0.00000000000E+00 0. -1.
         -2   -1    0    0    0  501 -0.00000000000E+00 -0.00000000000E+00 -0.13868740294E+03  0.13868740294E+03  0.00000000000E+00 0.  1.
         23    2    1    2    0    0  0.38638687935E+03 -0.22448634767E+02  0.26266772046E+03  0.47662918321E+03  0.91554820622E+02 0.  0.
         13    1    3    3    0    0  0.36092123877E+03  0.35168580598E+01  0.23213030960E+03  0.42913982515E+03  0.00000000000E+00 0. -1.
        -13    1    3    3    0    0  0.25465640577E+02 -0.25965492826E+02  0.30537410853E+02  0.47489358064E+02  0.00000000000E+00 0.  1.
         22    1    1    2    0    0 -0.38638687935E+03  0.22448634767E+02  0.11494229958E+04  0.12128363389E+04  0.00000000000E+00 0. -1.
<mgrwt>
<rscale>  0 0.92752011E+03</rscale>
<asrwt>0</asrwt>
<pdfrwt beam="1">  1        2 0.23858124E+00 0.92752011E+03</pdfrwt>
<pdfrwt beam="2">  1       -2 0.21336525E-01 0.92752011E+03</pdfrwt>
<totfact> 0.22695907E+02</totfact>
</mgrwt>
</event>
<event>
 6    1  0.1831439E-005  0.1259331E+04  0.7818608E-02  0.9062453E-01
          1   -1    0    0  501    0  0.00000000000E+00  0.00000000000E+00  0.11959553656E+04  0.11959553656E+04  0.00000000000E+00 0. -1.
         -1   -1    0    0    0  501 -0.00000000000E+00 -0.00000000000E+00 -0.33151619843E+03  0.33151619843E+03  0.00000000000E+00 0.  1.
         23    2    1    2    0    0 -0.66613348513E+02 -0.61622061399E+03  0.32471676661E+03  0.70560451093E+03  0.90948139150E+02 0.  0.
         13    1    3    3    0    0 -0.52836538962E+02 -0.18158910358E+03  0.12776094242E+03  0.22823049927E+03  0.00000000000E+00 0. -1.
        -13    1    3    3    0    0 -0.13776809551E+02 -0.43463151041E+03  0.19695582419E+03  0.47737401166E+03  0.00000000000E+00 0.  1.
         22    1    1    2    0    0  0.66613348513E+02  0.61622061399E+03  0.53972240055E+03  0.82186705309E+03  0.00000000000E+00 0.  1.
<mgrwt>
<rscale>  0 0.12593309E+04</rscale>
<asrwt>0</asrwt>
<pdfrwt beam="1">  1        1 0.18399313E+00 0.12593309E+04</pdfrwt>
<pdfrwt beam="2">  1       -1 0.51002492E-01 0.12593309E+04</pdfrwt>
<totfact> 0.40964379E+01</totfact>
</mgrwt>
</event>
<event>
 6    1  0.1831439E-005  0.2032435E+04  0.7818608E-02  0.8591605E-01
         -1   -1    0    0    0  501 -0.00000000000E+00  0.00000000000E+00  0.51962754201E+03  0.51962754201E+03  0.00000000000E+00 0.  1.
          1   -1    0    0  501    0  0.00000000000E+00 -0.00000000000E+00 -0.19873809242E+04  0.19873809242E+04  0.00000000000E+00 0. -1.
         23    2    1    2    0    0  0.17681151831E+03  0.33618519912E+03  0.42452106969E+03  0.57698634138E+03  0.91718582748E+02 0.  0.
         13    1    3    3    0    0 -0.11765311001E+01  0.72484376091E+02  0.73287240084E+02  0.10308437593E+03  0.00000000000E+00 0. -1.
        -13    1    3    3    0    0  0.17798804941E+03  0.26370082303E+03  0.35123382960E+03  0.47390196545E+03  0.00000000000E+00 0.  1.
         22    1    1    2    0    0 -0.17681151831E+03 -0.33618519912E+03 -0.18922744519E+04  0.19300221249E+04  0.00000000000E+00 0. -1.
<mgrwt>
<rscale>  0 0.20324349E+04</rscale>
<asrwt>0</asrwt>
<pdfrwt beam="1">  1        1 0.30575091E+00 0.20324349E+04</pdfrwt>
<pdfrwt beam="2">  1       -1 0.79942698E-01 0.20324349E+04</pdfrwt>
<totfact> 0.43921034E+00</totfact>
</mgrwt>
</event>
<event>
 6    1  0.1831439E-005  0.1867292E+04  0.7818608E-02  0.8671311E-01
          1   -1    0    0  501    0  0.00000000000E+00  0.00000000000E+00  0.97670944456E+03  0.97670944456E+03  0.00000000000E+00 0. -1.
         -1   -1    0    0    0  501 -0.00000000000E+00 -0.00000000000E+00 -0.89248101755E+03  0.89248101755E+03  0.00000000000E+00 0.  1.
         23    2    1    2    0    0 -0.62164074372E+03  0.59641619081E+03 -0.31167033296E+03  0.92109483662E+03  0.95539597563E+02 0.  0.
         13    1    3    3    0    0 -0.20039094673E+03  0.22573701386E+03 -0.15049366732E+03  0.33728633957E+03  0.00000000000E+00 0. -1.
        -13    1    3    3    0    0 -0.42124979699E+03  0.37067917695E+03 -0.16117666563E+03  0.58380849705E+03  0.00000000000E+00 0.  1.
         22    1    1    2    0    0  0.62164074372E+03 -0.59641619081E+03  0.39589875997E+03  0.94809562548E+03  0.00000000000E+00 0. -1.
<mgrwt>
<rscale>  0 0.18672918E+04</rscale>
<asrwt>0</asrwt>
<pdfrwt beam="1">  1        1 0.15026299E+00 0.18672918E+04</pdfrwt>
<pdfrwt beam="2">  1       -1 0.13730477E+00 0.18672918E+04</pdfrwt>
<totfact> 0.65305909E+00</totfact>
</mgrwt>
</event>
<event>
 6    1  0.1831439E-005  0.4961527E+04  0.7818608E-02  0.7834470E-01
         -2   -1    0    0    0  501 -0.00000000000E+00  0.00000000000E+00  0.18642934075E+04  0.18642934075E+04  0.00000000000E+00 0.  1.
          2   -1    0    0  501    0  0.00000000000E+00 -0.00000000000E+00 -0.33010834172E+04  0.33010834172E+04  0.00000000000E+00 0. -1.
         23    2    1    2    0    0  0.23248622489E+03 -0.80963760363E+03 -0.31469555173E+04  0.32590114459E+04  0.90904797666E+02 0.  0.
         13    1    3    3    0    0  0.19302893531E+03 -0.51737775744E+03 -0.20249720498E+04  0.20989167960E+04  0.00000000000E+00 0. -1.
        -13    1    3    3    0    0  0.39457289577E+02 -0.29225984619E+03 -0.11219834675E+04  0.11600946499E+04  0.00000000000E+00 0.  1.
         22    1    1    2    0    0 -0.23248622489E+03  0.80963760363E+03  0.17101655076E+04  0.19063653788E+04  0.00000000000E+00 0.  1.
<mgrwt>
<rscale>  0 0.49615272E+04</rscale>
<asrwt>0</asrwt>
<pdfrwt beam="1">  1        2 0.50785899E+00 0.49615272E+04</pdfrwt>
<pdfrwt beam="2">  1       -2 0.28681437E+00 0.49615272E+04</pdfrwt>
<totfact> 0.31034714E-02</totfact>
</mgrwt>
</event>
<event>
 6    1  0.1831439E-005  0.2260135E+04  0.7818608E-02  0.8493807E-01
          2   -1    0    0  501    0  0.00000000000E+00  0.00000000000E+00  0.15941596060E+04  0.15941596060E+04  0.00000000000E+00 0. -1.
         -2   -1    0    0    0  501 -0.00000000000E+00 -0.00000000000E+00 -0.80108190731E+03  0.80108190731E+03  0.00000000000E+00 0.  1.
         23    2    1    2    0    0 -0.75566837505E+03  0.60102810241E+03 -0.22086733839E+03  0.99511508645E+03  0.95927999922E+02 0.  0.
         13    1    3    3    0    0 -0.20896180925E+03  0.21986466152E+03 -0.84038354739E+02  0.31475061903E+03  0.00000000000E+00 0. -1.
        -13    1    3    3    0    0 -0.54670656580E+03  0.38116344089E+03 -0.13682898366E+03  0.68036446742E+03  0.00000000000E+00 0.  1.
         22    1    1    2    0    0  0.75566837505E+03 -0.60102810241E+03  0.10139450370E+04  0.14001264268E+04  0.00000000000E+00 0. -1.
<mgrwt>
<rscale>  0 0.22601349E+04</rscale>
<asrwt>0</asrwt>
<pdfrwt beam="1">  1        2 0.24525532E+00 0.22601349E+04</pdfrwt>
<pdfrwt beam="2">  1       -2 0.12324337E+00 0.22601349E+04</pdfrwt>
<totfact> 0.50781564E+00</totfact>
</mgrwt>
</event>
<event>
 6    1  0.1831439E-005  0.1183493E+04  0.7818608E-02  0.9127429E-01
         -1   -1    0    0    0  501 -0.00000000000E+00  0.00000000000E+00  0.32214523087E+03  0.32214523087E+03  0.00000000000E+00 0.  1.
          1   -1    0    0  501    0  0.00000000000E+00 -0.00000000000E+00 -0.10869758014E+04  0.10869758014E+04  0.00000000000E+00 0. -1.
         23    2    1    2    0    0  0.62344038445E+02 -0.90860571152E+01 -0.10810936850E+04  0.10866436019E+04  0.89785444532E+02 0.  0.
         13    1    3    3    0    0  0.77992911458E+02 -0.69927111855E+01 -0.57543794126E+03  0.58074143686E+03  0.00000000000E+00 0.  1.
        -13    1    3    3    0    0 -0.15648873013E+02 -0.20933459297E+01 -0.50565574379E+03  0.50590216500E+03  0.00000000000E+00 0. -1.
         22    1    1    2    0    0 -0.62344038445E+02  0.90860571152E+01  0.31626311449E+03  0.32247743045E+03  0.00000000000E+00 0.  1.
<mgrwt>
<rscale>  0 0.11834933E+04</rscale>
<asrwt>0</asrwt>
<pdfrwt beam="1">  1        1 0.16722705E+00 0.11834933E+04</pdfrwt>
<pdfrwt beam="2">  1       -1 0.49560804E-01 0.11834933E+04</pdfrwt>
<totfact> 0.52440261E+01</totfact>
</mgrwt>
</event>
<event>
 6    1  0.1831439E-005  0.3072500E+04  0.7818608E-02  0.8223326E-01
          1   -1    0    0  501    0  0.00000000000E+00  0.00000000000E+00  0.26111655596E+04  0.26111655596E+04  0.00000000000E+00 0. -1.
         -1   -1    0    0    0  501 -0.00000000000E+00 -0.00000000000E+00 -0.90383550508E+03  0.90383550508E+03  0.00000000000E+00 0.  1.
         23    2    1    2    0    0 -0.50394425375E+03 -0.93411376118E+03  0.21228787289E+04  0.23751725554E+04  0.91116632428E+02 0.  0.
         13    1    3    3    0    0 -0.37770616907E+03 -0.75097061969E+03  0.16133557102E+04  0.18192128709E+04  0.00000000000E+00 0. -1.
        -13    1    3    3    0    0 -0.12623808467E+03 -0.18314314149E+03  0.50952301867E+03  0.55595968456E+03  0.00000000000E+00 0.  1.
         22    1    1    2    0    0  0.50394425375E+03  0.93411376118E+03 -0.41554867439E+03  0.11398285093E+04  0.00000000000E+00 0.  1.
<mgrwt>
<rscale>  0 0.30725001E+04</rscale>
<asrwt>0</asrwt>
<pdfrwt beam="1">  1        1 0.40171778E+00 0.30725001E+04</pdfrwt>
<pdfrwt beam="2">  1       -1 0.13905162E+00 0.30725001E+04</pdfrwt>
<totfact> 0.40878620E-01</totfact>
</mgrwt>
</event>
<event>
 6    1  0.1831439E-005  0.8221456E+03  0.7818608E-02  0.9528504E-01
         -2   -1    0    0    0  501 -0.00000000000E+00  0.00000000000E+00  0.28941418504E+03  0.28941418504E+03  0.00000000000E+00 0.  1.
          2   -1    0    0  501    0  0.00000000000E+00 -0.00000000000E+00 -0.58387203700E+03  0.58387203700E+03  0.00000000000E+00 0. -1.
         23    2    1    2    0    0 -0.37516368666E+03  0.13887603730E+03 -0.78071740463E+02  0.41847055083E+03  0.94805378139E+02 0.  0.
         11    1    3    3    0    0 -0.15169824550E+03  0.11886296161E+02 -0.48719123334E+02  0.15977232146E+03  0.00000000000E+00 0.  1.
        -11    1    3    3    0    0 -0.22346544116E+03  0.12698974114E+03 -0.29352617129E+02  0.25869822937E+03  0.00000000000E+00 0. -1.
         22    1    1    2    0    0  0.37516368666E+03 -0.13887603730E+03 -0.21638611150E+03  0.45481567121E+03  0.00000000000E+00 0.  1.
<mgrwt>
<rscale>  0 0.82214561E+03</rscale>
<asrwt>0</asrwt>
<pdfrwt beam="1">  1        2 0.89826466E-01 0.82214561E+03</pdfrwt>
<pdfrwt beam="2">  1       -2 0.44525260E-01 0.82214561E+03</pdfrwt>
<totfact> 0.24661697E+02</totfact>
</mgrwt>
</event>
<event>
 6    1  0.1831439E-005  0.1680871E+04  0.7818608E-02  0.8772350E-01
         -2   -1    0    0    0  501 -0.00000000000E+00  0.00000000000E+00  0.28093549510E+03  0.28093549510E+03  0.00000000000E+00 0.  1.
          2   -1    0    0  501    0  0.00000000000E+00 -0.00000000000E+00 -0.25142123154E+04  0.25142123154E+04  0.00000000000E+00 0. -1.
         23    2    1    2    0    0 -0.29101638489E+02 -0.80211612759E+03 -0.15208040918E+04  0.17219029287E+04  0.88698493072E+02 0.  0.
         13    1    3    3    0    0 -0.47858520650E+02 -0.33900093492E+03 -0.59181810527E+03  0.68371100737E+03  0.00000000000E+00 0.  1.
        -13    1    3    3    0    0  0.18756882161E+02 -0.46311519267E+03 -0.92898598653E+03  0.10381919213E+04  0.00000000000E+00 0. -1.
         22    1    1    2    0    0  0.29101638489E+02  0.80211612759E+03 -0.71247272851E+03  0.10732448818E+04  0.00000000000E+00 0.  1.
<mgrwt>
<rscale>  0 0.16808706E+04</rscale>
<asrwt>0</asrwt>
<pdfrwt beam="1">  1        2 0.38680191E+00 0.16808706E+04</pdfrwt>
<pdfrwt beam="2">  1       -2 0.43220843E-01 0.16808706E+04</pdfrwt>
<totfact> 0.16551123E+01</totfact>
</mgrwt>
</event>
<event>
 6    1  0.1831439E-005  0.5889343E+03  0.7818608E-02  0.9928634E-01
         -2   -1    0    0    0  501 -0.00000000000E+00  0.00000000000E+00  0.28477396242E+03  0.28477396242E+03  0.00000000000E+00 0.  1.
          2   -1    0    0  501    0  0.00000000000E+00 -0.00000000000E+00 -0.30449026866E+03  0.30449026866E+03  0.00000000000E+00 0. -1.
         23    2    1    2    0    0  0.87951312493E+01  0.23386856605E+03  0.15627876331E+03  0.29643983826E+03  0.93175454543E+02 0.  0.
         13    1    3    3    0    0 -0.41921226936E+02  0.11681133686E+03  0.70841631499E+02  0.14290141511E+03  0.00000000000E+00 0. -1.
        -13    1    3    3    0    0  0.50716358185E+02  0.11705722919E+03  0.85437131810E+02  0.15353842315E+03  0.00000000000E+00 0.  1.
         22    1    1    2    0    0 -0.87951312493E+01 -0.23386856605E+03 -0.17599506955E+03  0.29282439281E+03  0.00000000000E+00 0. -1.
<mgrwt>
<rscale>  0 0.58893429E+03</rscale>
<asrwt>0</asrwt>
<pdfrwt beam="1">  1        2 0.46844657E-01 0.58893429E+03</pdfrwt>
<pdfrwt beam="2">  1       -2 0.43811379E-01 0.58893429E+03</pdfrwt>
<totfact> 0.53770732E+02</totfact>
</mgrwt>
</event>
<event>
 6    1  0.1831439E-005  0.6442500E+03  0.7818608E-02  0.9817629E-01
         -2   -1    0    0    0  501 -0.00000000000E+00  0.00000000000E+00  0.50684578242E+03  0.50684578242E+03  0.00000000000E+00 0.  1.
          2   -1    0    0  501    0  0.00000000000E+00 -0.00000000000E+00 -0.20472598560E+03  0.20472598560E+03  0.00000000000E+00 0. -1.
         23    2    1    2    0    0  0.20633734956E+02  0.20878078023E+03  0.41456754748E+03  0.47353886727E+03  0.91420140991E+02 0.  0.
         11    1    3    3    0    0 -0.14700559526E+02  0.15054299319E+03  0.21666020390E+03  0.26423652889E+03  0.00000000000E+00 0. -1.
        -11    1    3    3    0    0  0.35334294481E+02  0.58237787044E+02  0.19790734358E+03  0.20930233837E+03  0.00000000000E+00 0.  1.
         22    1    1    2    0    0 -0.20633734956E+02 -0.20878078023E+03 -0.11244775066E+03  0.23803290075E+03  0.00000000000E+00 0. -1.
<mgrwt>
<rscale>  0 0.64424996E+03</rscale>
<asrwt>0</asrwt>
<pdfrwt beam="1">  1        2 0.31496306E-01 0.64424996E+03</pdfrwt>
<pdfrwt beam="2">  1       -2 0.77976274E-01 0.64424996E+03</pdfrwt>
<totfact> 0.24924583E+02</totfact>
</mgrwt>
</event>
<event>
 6    1  0.1831439E-005  0.1433629E+04  0.7818608E-02  0.8929829E-01
         -2   -1    0    0    0  501 -0.00000000000E+00  0.00000000000E+00  0.21481809550E+03  0.21481809550E+03  0.00000000000E+00 0.  1.
          2   -1    0    0  501    0  0.00000000000E+00 -0.00000000000E+00 -0.23918996615E+04  0.23918996615E+04  0.00000000000E+00 0. -1.
         23    2    1    2    0    0 -0.67159268776E+03  0.22843015938E+03 -0.93804584172E+03  0.11789829770E+04  0.82787577012E+02 0.  0.
         13    1    3    3    0    0 -0.31544895715E+03  0.91610728292E+02 -0.49797856827E+03  0.59655948954E+03  0.00000000000E+00 0. -1.
        -13    1    3    3    0    0 -0.35614373061E+03  0.13681943108E+03 -0.44006727345E+03  0.58242348745E+03  0.00000000000E+00 0.  1.
         22    1    1    2    0    0  0.67159268776E+03 -0.22843015938E+03 -0.12390357243E+04  0.14277347800E+04  0.00000000000E+00 0. -1.
<mgrwt>
<rscale>  0 0.14336294E+04</rscale>
<asrwt>0</asrwt>
<pdfrwt beam="1">  1        2 0.36798458E+00 0.14336294E+04</pdfrwt>
<pdfrwt beam="2">  1       -2 0.33048937E-01 0.14336294E+04</pdfrwt>
<totfact> 0.33427443E+01</totfact>
</mgrwt>
</event>
<event>
 6    1  0.1831439E-005  0.3691353E+04  0.7818608E-02  0.8069881E-01
         -1   -1    0    0    0  501 -0.00000000000E+00  0.00000000000E+00  0.18482039040E+04  0.18482039040E+04  0.00000000000E+00 0.  1.
          1   -1    0    0  501    0  0.00000000000E+00 -0.00000000000E+00 -0.18431521652E+04  0.18431521652E+04  0.00000000000E+00 0. -1.
         23    2    1    2    0    0 -0.11829179240E+04  0.10529027573E+04  0.94829171536E+03  0.18480978983E+04  0.91157187533E+02 0.  0.
         13    1    3    3    0    0 -0.62088745638E+03  0.54408082340E+03  0.54678901117E+03  0.99020371572E+03  0.00000000000E+00 0. -1.
        -13    1    3    3    0    0 -0.56203046763E+03  0.50882193389E+03  0.40150270419E+03  0.85789418253E+03  0.00000000000E+00 0.  1.
         22    1    1    2    0    0  0.11829179240E+04 -0.10529027573E+04 -0.94323997656E+03  0.18432581709E+04  0.00000000000E+00 0. -1.
<mgrwt>
<rscale>  0 0.36913526E+04</rscale>
<asrwt>0</asrwt>
<pdfrwt beam="1">  1        1 0.28356187E+00 0.36913526E+04</pdfrwt>
<pdfrwt beam="2">  1       -1 0.28433906E+00 0.36913526E+04</pdfrwt>
<totfact> 0.12755275E-01</totfact>
</mgrwt>
</event>
<event>
 6    1  0.1831439E-005  0.1838828E+04  0.7818608E-02  0.8685919E-01
         -2   -1    0    0    0  501 -0.00000000000E+00  0.00000000000E+00  0.49460379169E+03  0.49460379169E+03  0.00000000000E+00 0.  1.
          2   -1    0    0  501    0  0.00000000000E+00 -0.00000000000E+00 -0.17090900117E+04  0.17090900117E+04  0.00000000000E+00 0. -1.
         23    2    1    2    0    0 -0.51689008783E+03 -0.68869243290E+01 -0.15166785582E+04  0.16049091994E+04  0.90536716152E+02 0.  0.
         11    1    3    3    0    0 -0.15292640226E+03 -0.38752431043E+02 -0.40025827394E+03  0.43022659294E+03  0.00000000000E+00 0. -1.
        -11    1    3    3    0    0 -0.36396368557E+03  0.31865506714E+02 -0.11164202843E+04  0.11746826065E+04  0.00000000000E+00 0.  1.
         22    1    1    2    0    0  0.51689008783E+03  0.68869243290E+01  0.30219233821E+03  0.59878460392E+03  0.00000000000E+00 0.  1.
<mgrwt>
<rscale>  0 0.18388283E+04</rscale>
<asrwt>0</asrwt>
<pdfrwt beam="1">  1        2 0.26293693E+00 0.18388283E+04</pdfrwt>
<pdfrwt beam="2">  1       -2 0.76092890E-01 0.18388283E+04</pdfrwt>
<totfact> 0.14105069E+01</totfact>
</mgrwt>
</event>
<event>
 6    1  0.1831439E-005  0.2268569E+04  0.7818608E-02  0.8490418E-01
         -2   -1    0    0    0  501 -0.00000000000E+00  0.00000000000E+00  0.47415517733E+03  0.47415517733E+03  0.00000000000E+00 0.  1.
          2   -1    0    0  501    0  0.00000000000E+00 -0.00000000000E+00 -0.27134607971E+04  0.27134607971E+04  0.00000000000E+00 0. -1.
         23    2    1    2    0    0 -0.80442269956E+03 -0.45868647089E+03 -0.20613612964E+03  0.95350153381E+03  0.95832733954E+02 0.  0.
         13    1    3    3    0    0 -0.62746028796E+03 -0.32484977772E+03 -0.12668950699E+03  0.71783286511E+03  0.00000000000E+00 0.  1.
        -13    1    3    3    0    0 -0.17696241160E+03 -0.13383669317E+03 -0.79446622649E+02  0.23566866870E+03  0.00000000000E+00 0. -1.
         22    1    1    2    0    0  0.80442269956E+03  0.45868647089E+03 -0.20331694901E+04  0.22341144406E+04  0.00000000000E+00 0. -1.
<mgrwt>
<rscale>  0 0.22685691E+04</rscale>
<asrwt>0</asrwt>
<pdfrwt beam="1">  1        2 0.41745551E+00 0.22685691E+04</pdfrwt>
<pdfrwt beam="2">  1       -2 0.72946950E-01 0.22685691E+04</pdfrwt>
<totfact> 0.40243845E+00</totfact>
</mgrwt>
</event>
<event>
 6    1  0.1831439E-005  0.1170894E+04  0.7818608E-02  0.9138721E-01
          1   -1    0    0  501    0  0.00000000000E+00  0.00000000000E+00  0.20932440645E+04  0.20932440645E+04  0.00000000000E+00 0. -1.
         -1   -1    0    0    0  501 -0.00000000000E+00 -0.00000000000E+00 -0.16374029181E+03  0.16374029181E+03  0.00000000000E+00 0.  1.
         23    2    1    2    0    0 -0.14135239146E+03  0.35235041664E+03  0.11135465826E+03  0.39962130160E+03  0.56267309307E+02 0.  0.
         11    1    3    3    0    0 -0.89559105341E+02  0.17089510674E+03  0.35166673525E+02  0.19611900923E+03  0.00000000000E+00 0. -1.
        -11    1    3    3    0    0 -0.51793286115E+02  0.18145530991E+03  0.76187984738E+02  0.20350229236E+03  0.00000000000E+00 0.  1.
         22    1    1    2    0    0  0.14135239146E+03 -0.35235041664E+03  0.18181491144E+04  0.18573630547E+04  0.00000000000E+00 0. -1.
<mgrwt>
<rscale>  0 0.11708943E+04</rscale>
<asrwt>0</asrwt>
<pdfrwt beam="1">  1        1 0.32203753E+00 0.11708943E+04</pdfrwt>
<pdfrwt beam="2">  1       -1 0.25190816E-01 0.11708943E+04</pdfrwt>
<totfact> 0.35415351E+01</totfact>
</mgrwt>
</event>
<event>
 6    1  0.1831439E-005  0.4244456E+04  0.7818608E-02  0.7956969E-01
          2   -1    0    0  501    0  0.00000000000E+00  0.00000000000E+00  0.45140941705E+04  0.45140941705E+04  0.00000000000E+00 0. -1.
         -2   -1    0    0    0  501 -0.00000000000E+00 -0.00000000000E+00 -0.99773098988E+03  0.99773098988E+03  0.00000000000E+00 0.  1.
         23    2    1    2    0    0  0.14231088161E+04  0.43167309799E+03  0.37233735268E+04  0.40103480046E+04  0.88319488942E+02 0.  0.
         13    1    3    3    0    0  0.47160125327E+03  0.15045911414E+03  0.11310298104E+04  0.12346149680E+04  0.00000000000E+00 0. -1.
        -13    1    3    3    0    0  0.95150756280E+03  0.28121398385E+03  0.25923437163E+04  0.27757330366E+04  0.00000000000E+00 0.  1.
         22    1    1    2    0    0 -0.14231088161E+04 -0.43167309799E+03 -0.20701034618E+03  0.15014771558E+04  0.00000000000E+00 0.  1.
<mgrwt>
<rscale>  0 0.42444560E+04</rscale>
<asrwt>0</asrwt>
<pdfrwt beam="1">  1        2 0.69447602E+00 0.42444560E+04</pdfrwt>
<pdfrwt beam="2">  1       -2 0.15349708E+00 0.42444560E+04</pdfrwt>
<totfact> 0.25774843E-02</totfact>
</mgrwt>
</event>
<event>
 6    1  0.1831439E-005  0.1679190E+04  0.7818608E-02  0.8773323E-01
         -1   -1    0    0    0  501 -0.00000000000E+00  0.00000000000E+00  0.26705100701E+04  0.26705100701E+04  0.00000000000E+00 0.  1.
          1   -1    0    0  501    0  0.00000000000E+00 -0.00000000000E+00 -0.26396440589E+03  0.26396440589E+03  0.00000000000E+00 0. -1.
         23    2    1    2    0    0 -0.18159345787E+02 -0.57918582907E+03  0.22626572265E+04  0.23374067504E+04  0.89814283612E+02 0.  0.
         11    1    3    3    0    0  0.13327366259E+02 -0.17725592255E+03  0.55346143828E+03  0.58130615379E+03  0.00000000000E+00 0.  1.
        -11    1    3    3    0    0 -0.31486712046E+02 -0.40192990652E+03  0.17091957882E+04  0.17561005966E+04  0.00000000000E+00 0. -1.
         22    1    1    2    0    0  0.18159345787E+02  0.57918582907E+03  0.14388843764E+03  0.59706772558E+03  0.00000000000E+00 0. -1.
<mgrwt>
<rscale>  0 0.16791898E+04</rscale>
<asrwt>0</asrwt>
<pdfrwt beam="1">  1        1 0.40609910E-01 0.16791898E+04</pdfrwt>
<pdfrwt beam="2">  1       -1 0.41084769E+00 0.16791898E+04</pdfrwt>
<totfact> 0.59794850E-01</totfact>
</mgrwt>
</event>
<event>
 6    1  0.1831439E-005  0.3714368E+04  0.7818608E-02  0.8064785E-01
         -1   -1    0    0    0  501 -0.00000000000E+00  0.00000000000E+00  0.12549729153E+04  0.12549729153E+04  0.00000000000E+00 0. -1.
          1   -1    0    0  501    0  0.00000000000E+00 -0.00000000000E+00 -0.27483715094E+04  0.27483715094E+04  0.00000000000E+00 0.  1.
         23    2    1    2    0    0 -0.18265201870E+04 -0.29777949516E+03 -0.89955556317E+03  0.20597657237E+04  0.92660692356E+02 0.  0.
         11    1    3    3    0    0 -0.15042684050E+04 -0.21961925723E+03 -0.76585679454E+03  0.17022316770E+04  0.00000000000E+00 0.  1.
        -11    1    3    3    0    0 -0.32225178201E+03 -0.78160237930E+02 -0.13369876863E+03  0.35753404668E+03  0.00000000000E+00 0. -1.
         22    1    1    2    0    0  0.18265201870E+04  0.29777949516E+03 -0.59384303098E+03  0.19435787010E+04  0.00000000000E+00 0. -1.
<mgrwt>
<rscale>  0 0.37143677E+04</rscale>
<asrwt>0</asrwt>
<pdfrwt beam="1">  1        1 0.42282639E+00 0.37143677E+04</pdfrwt>
<pdfrwt beam="2">  1       -1 0.19307276E+00 0.37143677E+04</pdfrwt>
<totfact> 0.12217460E-01</totfact>
</mgrwt>
</event>
<event>
 6    1  0.2220636E-005  0.2650618E+04  0.7818608E-02  0.8351208E-01
         -2   -1    0    0    0  501 -0.00000000000E+00  0.00000000000E+00  0.76524784997E+03  0.76524784997E+03  0.00000000000E+00 0.  1.
          2   -1    0    0  501    0  0.00000000000E+00 -0.00000000000E+00 -0.22952620913E+04  0.22952620913E+04  0.00000000000E+00 0. -1.
         23    2    1    2    0    0 -0.64447437653E+03 -0.31330821576E+03 -0.20510563523E+04  0.21745109902E+04  0.90314041044E+02 0.  0.
         11    1    3    3    0    0 -0.24875849605E+03 -0.16660682718E+03 -0.80013296541E+03  0.85431340066E+03  0.00000000000E+00 0. -1.
        -11    1    3    3    0    0 -0.39571588048E+03 -0.14670138857E+03 -0.12509233869E+04  0.13201975895E+04  0.00000000000E+00 0.  1.
         22    1    1    2    0    0  0.64447437653E+03  0.31330821576E+03  0.52104211093E+03  0.88599895114E+03  0.00000000000E+00 0.  1.
<mgrwt>
<rscale>  0 0.26506183E+04</rscale>
<asrwt>0</asrwt>
<pdfrwt beam="1">  1        2 0.35311724E+00 0.26506183E+04</pdfrwt>
<pdfrwt beam="2">  1       -2 0.11773044E+00 0.26506183E+04</pdfrwt>
<totfact> 0.22367380E+00</totfact>
</mgrwt>
</event>
<event>
 6    1  0.1831439E-005  0.7649264E+03  0.7818608E-02  0.9612220E-01
         -1   -1    0    0    0  501 -0.00000000000E+00  0.00000000000E+00  0.56477744063E+03  0.56477744063E+03  0.00000000000E+00 0.  1.
          1   -1    0    0  501    0  0.00000000000E+00 -0.00000000000E+00 -0.25900132434E+03  0.25900132434E+03  0.00000000000E+00 0. -1.
         23    2    1    2    0    0  0.36176652869E+03  0.17908110759E+02  0.42493635704E+02  0.37599155402E+03  0.91477964035E+02 0.  0.
         13    1    3    3    0    0  0.31230110539E+03  0.34715152074E+01  0.51662522497E+01  0.31236312523E+03  0.00000000000E+00 0. -1.
        -13    1    3    3    0    0  0.49465423308E+02  0.14436595552E+02  0.37327383454E+02  0.63628428785E+02  0.00000000000E+00 0.  1.
         22    1    1    2    0    0 -0.36176652869E+03 -0.17908110759E+02  0.26328248058E+03  0.44778721095E+03  0.00000000000E+00 0. -1.
<mgrwt>
<rscale>  0 0.76492641E+03</rscale>
<asrwt>0</asrwt>
<pdfrwt beam="1">  1        1 0.39846358E-01 0.76492641E+03</pdfrwt>
<pdfrwt beam="2">  1       -1 0.86888836E-01 0.76492641E+03</pdfrwt>
<totfact> 0.14049188E+02</totfact>
</mgrwt>
</event>
<event>
 6    1  0.1831439E-005  0.4490520E+04  0.7818608E-02  0.7912299E-01
         -2   -1    0    0    0  501 -0.00000000000E+00  0.00000000000E+00  0.12032008224E+04  0.12032008224E+04  0.00000000000E+00 0.  1.
          2   -1    0    0  501    0  0.00000000000E+00 -0.00000000000E+00 -0.41898181372E+04  0.41898181372E+04  0.00000000000E+00 0. -1.
         23    2    1    2    0    0 -0.21187524134E+04 -0.54965618036E+03 -0.89923534073E+03  0.23683872116E+04  0.96954009603E+02 0.  0.
         11    1    3    3    0    0 -0.20202096469E+04 -0.50395565763E+03 -0.86293824121E+03  0.22538590751E+04  0.00000000000E+00 0.  1.
        -11    1    3    3    0    0 -0.98542766528E+02 -0.45700522732E+02 -0.36297099522E+02  0.11452813648E+03  0.00000000000E+00 0. -1.
         22    1    1    2    0    0  0.21187524134E+04  0.54965618036E+03 -0.20873819740E+04  0.30246317481E+04  0.00000000000E+00 0. -1.
<mgrwt>
<rscale>  0 0.44905201E+04</rscale>
<asrwt>0</asrwt>
<pdfrwt beam="1">  1        2 0.64458740E+00 0.44905201E+04</pdfrwt>
<pdfrwt beam="2">  1       -2 0.18510782E+00 0.44905201E+04</pdfrwt>
<totfact> 0.29931839E-02</totfact>
</mgrwt>
</event>
<event>
 6    1  0.1831439E-005  0.1984426E+04  0.7818608E-02  0.8613937E-01
          2   -1    0    0  501    0  0.00000000000E+00  0.00000000000E+00  0.16236295232E+04  0.16236295232E+04  0.00000000000E+00 0. -1.
         -2   -1    0    0    0  501 -0.00000000000E+00 -0.00000000000E+00 -0.60634952677E+03  0.60634952677E+03  0.00000000000E+00 0.  1.
         23    2    1    2    0    0 -0.73547955905E+03  0.36428921890E+03 -0.11257555521E+03  0.83347971794E+03  0.91533424471E+02 0.  0.
         11    1    3    3    0    0 -0.24664863245E+03  0.17084230431E+03 -0.35045396788E+02  0.30207750772E+03  0.00000000000E+00 0. -1.
        -11    1    3    3    0    0 -0.48883092660E+03  0.19344691459E+03 -0.77530158423E+02  0.53140221022E+03  0.00000000000E+00 0.  1.
         22    1    1    2    0    0  0.73547955905E+03 -0.36428921890E+03  0.11298555516E+04  0.13964993320E+04  0.00000000000E+00 0. -1.
<mgrwt>
<rscale>  0 0.19844264E+04</rscale>
<asrwt>0</asrwt>
<pdfrwt beam="1">  1        2 0.24978916E+00 0.19844264E+04</pdfrwt>
<pdfrwt beam="2">  1       -2 0.93284543E-01 0.19844264E+04</pdfrwt>
<totfact> 0.97864678E+00</totfact>
</mgrwt>
</event>
<event>
 6    1  0.1831439E-005  0.1248513E+04  0.7818608E-02  0.9071422E-01
         -1   -1    0    0    0  501 -0.00000000000E+00  0.00000000000E+00  0.56027562814E+03  0.56027562814E+03  0.00000000000E+00 0.  1.
          1   -1    0    0  501    0  0.00000000000E+00 -0.00000000000E+00 -0.69554405008E+03  0.69554405008E+03  0.00000000000E+00 0. -1.
         23    2    1    2    0    0 -0.19609679539E+03 -0.42341600570E+03  0.34393549556E+03  0.58696135123E+03  0.92178824464E+02 0.  0.
         13    1    3    3    0    0 -0.13200837487E+03 -0.22567761795E+03  0.23847427462E+03  0.35387367510E+03  0.00000000000E+00 0. -1.
        -13    1    3    3    0    0 -0.64088420518E+02 -0.19773838775E+03  0.10546122095E+03  0.23308767612E+03  0.00000000000E+00 0.  1.
         22    1    1    2    0    0  0.19609679539E+03  0.42341600570E+03 -0.47920391751E+03  0.66885832700E+03  0.00000000000E+00 0. -1.
<mgrwt>
<rscale>  0 0.12485133E+04</rscale>
<asrwt>0</asrwt>
<pdfrwt beam="1">  1        1 0.10700678E+00 0.12485133E+04</pdfrwt>
<pdfrwt beam="2">  1       -1 0.86196251E-01 0.12485133E+04</pdfrwt>
<totfact> 0.36052226E+01</totfact>
</mgrwt>
</event>
<event>
 6    1  0.1831439E-005  0.5035926E+04  0.7818608E-02  0.7822989E-01
         -2   -1    0    0    0  501 -0.00000000000E+00  0.00000000000E+00  0.17324511860E+04  0.17324511860E+04  0.00000000000E+00 0. -1.
          2   -1    0    0  501    0  0.00000000000E+00 -0.00000000000E+00 -0.36596343432E+04  0.36596343432E+04  0.00000000000E+00 0.  1.
         23    2    1    2    0    0  0.14670788495E+03 -0.10324182361E+04 -0.34169092539E+04  0.35736536605E+04  0.91219616883E+02 0.  0.
         13    1    3    3    0    0  0.10039250913E+03 -0.67623591642E+03 -0.20887004107E+04  0.21977358977E+04  0.00000000000E+00 0. -1.
        -13    1    3    3    0    0  0.46315375823E+02 -0.35618231964E+03 -0.13282088432E+04  0.13759177628E+04  0.00000000000E+00 0.  1.
         22    1    1    2    0    0 -0.14670788495E+03  0.10324182361E+04  0.14897260967E+04  0.18184318686E+04  0.00000000000E+00 0. -1.
<mgrwt>
<rscale>  0 0.50359261E+04</rscale>
<asrwt>0</asrwt>
<pdfrwt beam="1">  1        2 0.56302067E+00 0.50359261E+04</pdfrwt>
<pdfrwt beam="2">  1       -2 0.26653095E+00 0.50359261E+04</pdfrwt>
<totfact> 0.23027322E-02</totfact>
</mgrwt>
</event>
<event>
 6    1  0.1831439E-005  0.3384233E+04  0.7818608E-02  0.8141787E-01
         -1   -1    0    0    0  501 -0.00000000000E+00  0.00000000000E+00  0.19138308809E+04  0.19138308809E+04  0.00000000000E+00 0.  1.
          1   -1    0    0  501    0  0.00000000000E+00 -0.00000000000E+00 -0.14960873644E+04  0.14960873644E+04  0.00000000000E+00 0. -1.
         23    2    1    2    0    0 -0.91275860419E+03 -0.74957670917E+03 -0.10102123074E+04  0.15567988894E+04  0.90002019429E+02 0.  0.
         13    1    3    3    0    0 -0.17605704848E+03 -0.19180331195E+03 -0.21246631889E+03  0.33604543064E+03  0.00000000000E+00 0. -1.
        -13    1    3    3    0    0 -0.73670155572E+03 -0.55777339722E+03 -0.79774598848E+03  0.12207534587E+04  0.00000000000E+00 0.  1.
         22    1    1    2    0    0  0.91275860419E+03  0.74957670917E+03  0.14279558238E+04  0.18531193559E+04  0.00000000000E+00 0.  1.
<mgrwt>
<rscale>  0 0.33842330E+04</rscale>
<asrwt>0</asrwt>
<pdfrwt beam="1">  1        1 0.23016729E+00 0.33842330E+04</pdfrwt>
<pdfrwt beam="2">  1       -1 0.29443552E+00 0.33842330E+04</pdfrwt>
<totfact> 0.19457220E-01</totfact>
</mgrwt>
</event>
<event>
 6    1  0.1831439E-005  0.2227778E+04  0.7818608E-02  0.8506954E-01
          2   -1    0    0  501    0  0.00000000000E+00  0.00000000000E+00  0.10756129462E+04  0.10756129462E+04  0.00000000000E+00 0. -1.
         -2   -1    0    0    0  501 -0.00000000000E+00 -0.00000000000E+00 -0.11535271248E+04  0.11535271248E+04  0.00000000000E+00 0.  1.
         23    2    1    2    0    0 -0.11179228152E+03  0.41476667604E+03  0.98724952329E+03  0.10806181418E+04  0.92439371960E+02 0.  0.
         11    1    3    3    0    0 -0.82704795547E+02  0.31116487976E+03  0.62986814160E+03  0.70738782956E+03  0.00000000000E+00 0.  1.
        -11    1    3    3    0    0 -0.29087485970E+02  0.10360179628E+03  0.35738138169E+03  0.37323031229E+03  0.00000000000E+00 0. -1.
         22    1    1    2    0    0  0.11179228152E+03 -0.41476667604E+03 -0.10651637019E+04  0.11485219291E+04  0.00000000000E+00 0.  1.
<mgrwt>
<rscale>  0 0.22277780E+04</rscale>
<asrwt>0</asrwt>
<pdfrwt beam="1">  1        2 0.16547891E+00 0.22277780E+04</pdfrwt>
<pdfrwt beam="2">  1       -2 0.17746571E+00 0.22277780E+04</pdfrwt>
<totfact> 0.38842636E+00</totfact>
</mgrwt>
</event>
<event>
 6    1  0.1831439E-005  0.1751749E+04  0.7818608E-02  0.8732388E-01
          2   -1    0    0  501    0  0.00000000000E+00  0.00000000000E+00  0.31196779890E+04  0.31196779890E+04  0.00000000000E+00 0. -1.
         -2   -1    0    0    0  501 -0.00000000000E+00 -0.00000000000E+00 -0.24590876301E+03  0.24590876301E+03  0.00000000000E+00 0.  1.
         23    2    1    2    0    0  0.73886036304E+03  0.44279869430E+03  0.11612544216E+04  0.14486380633E+04  0.89750137162E+02 0.  0.
         11    1    3    3    0    0  0.87472139889E+02  0.67714971813E+02  0.19810409466E+03  0.22689628685E+03  0.00000000000E+00 0. -1.
        -11    1    3    3    0    0  0.65138822315E+03  0.37508372248E+03  0.96315032691E+03  0.12217417765E+04  0.00000000000E+00 0.  1.
         22    1    1    2    0    0 -0.73886036304E+03 -0.44279869430E+03  0.17125148044E+04  0.19169486887E+04  0.00000000000E+00 0.  1.
<mgrwt>
<rscale>  0 0.17517490E+04</rscale>
<asrwt>0</asrwt>
<pdfrwt beam="1">  1        2 0.47995043E+00 0.17517490E+04</pdfrwt>
<pdfrwt beam="2">  1       -2 0.37832120E-01 0.17517490E+04</pdfrwt>
<totfact> 0.91822467E+00</totfact>
</mgrwt>
</event>
<event>
 6    1  0.1831439E-005  0.2447922E+04  0.7818608E-02  0.8421777E-01
          2   -1    0    0  501    0  0.00000000000E+00  0.00000000000E+00  0.42328640948E+04  0.42328640948E+04  0.00000000000E+00 0.  1.
         -2   -1    0    0    0  501 -0.00000000000E+00 -0.00000000000E+00 -0.35391664706E+03  0.35391664706E+03  0.00000000000E+00 0. -1.
         23    2    1    2    0    0 -0.91005801561E+03  0.18880291010E+03  0.45379247886E+03  0.10377613433E+04  0.84669127297E+02 0.  0.
         13    1    3    3    0    0 -0.48363489716E+03  0.11501039647E+03  0.19832611174E+03  0.53522271220E+03  0.00000000000E+00 0.  1.
        -13    1    3    3    0    0 -0.42642311844E+03  0.73792513630E+02  0.25546636712E+03  0.50253863109E+03  0.00000000000E+00 0. -1.
         22    1    1    2    0    0  0.91005801561E+03 -0.18880291010E+03  0.34251549689E+04  0.35490193986E+04  0.00000000000E+00 0.  1.
<mgrwt>
<rscale>  0 0.24479224E+04</rscale>
<asrwt>0</asrwt>
<pdfrwt beam="1">  1        2 0.65120983E+00 0.24479224E+04</pdfrwt>
<pdfrwt beam="2">  1       -2 0.54448718E-01 0.24479224E+04</pdfrwt>
<totfact> 0.62223059E-01</totfact>
</mgrwt>
</event>
<event>
 6    1  0.1831439E-005  0.2421975E+04  0.7818608E-02  0.8431322E-01
          1   -1    0    0  501    0  0.00000000000E+00  0.00000000000E+00  0.10910285178E+04  0.10910285178E+04  0.00000000000E+00 0. -1.
         -1   -1    0    0    0  501 -0.00000000000E+00 -0.00000000000E+00 -0.13441355175E+04  0.13441355175E+04  0.00000000000E+00 0.  1.
         23    2    1    2    0    0 -0.68308091474E+03 -0.98282223941E+03  0.46446256687E+02  0.12013604675E+04  0.92577685072E+02 0.  0.
         13    1    3    3    0    0 -0.27606484354E+03 -0.31976106137E+03  0.16044698598E+02  0.42274858552E+03  0.00000000000E+00 0. -1.
        -13    1    3    3    0    0 -0.40701607121E+03 -0.66306117805E+03  0.30401558089E+02  0.77861188200E+03  0.00000000000E+00 0.  1.
         22    1    1    2    0    0  0.68308091474E+03  0.98282223941E+03 -0.29955325642E+03  0.12338035678E+04  0.00000000000E+00 0.  1.
<mgrwt>
<rscale>  0 0.24219746E+04</rscale>
<asrwt>0</asrwt>
<pdfrwt beam="1">  1        1 0.16785054E+00 0.24219746E+04</pdfrwt>
<pdfrwt beam="2">  1       -1 0.20679008E+00 0.24219746E+04</pdfrwt>
<totfact> 0.15571799E+00</totfact>
</mgrwt>
</event>
<event>
 6    1  0.1831439E-005  0.2131489E+04  0.7818608E-02  0.8547497E-01
          2   -1    0    0  501    0  0.00000000000E+00  0.00000000000E+00  0.17892234478E+04  0.17892234478E+04  0.00000000000E+00 0. -1.
         -2   -1    0    0    0  501 -0.00000000000E+00 -0.00000000000E+00 -0.63480715305E+03  0.63480715305E+03  0.00000000000E+00 0.  1.
         23    2    1    2    0    0 -0.41378182582E+03  0.20540382368E+03 -0.51161924674E+03  0.69513483890E+03  0.89733274026E+02 0.  0.
         11    1    3    3    0    0 -0.14478198693E+03  0.39219913089E+02 -0.12194953638E+03  0.19331765244E+03  0.00000000000E+00 0. -1.
        -11    1    3    3    0    0 -0.26899983889E+03  0.16618391059E+03 -0.38966971035E+03  0.50181718646E+03  0.00000000000E+00 0.  1.
         22    1    1    2    0    0  0.41378182582E+03 -0.20540382368E+03  0.16660355415E+04  0.17288957620E+04  0.00000000000E+00 0. -1.
<mgrwt>
<rscale>  0 0.21314895E+04</rscale>
<asrwt>0</asrwt>
<pdfrwt beam="1">  1        2 0.27526514E+00 0.21314895E+04</pdfrwt>
<pdfrwt beam="2">  1       -2 0.97662639E-01 0.21314895E+04</pdfrwt>
<totfact> 0.70239665E+00</totfact>
</mgrwt>
</event>
<event>
 6    1  0.1831439E-005  0.4450554E+04  0.7818608E-02  0.7919351E-01
         -2   -1    0    0    0  501 -0.00000000000E+00  0.00000000000E+00  0.23672335468E+04  0.23672335468E+04  0.00000000000E+00 0. -1.
          2   -1    0    0  501    0  0.00000000000E+00 -0.00000000000E+00 -0.20918328445E+04  0.20918328445E+04  0.00000000000E+00 0.  1.
         23    2    1    2    0    0 -0.20016459015E+04  0.67714697811E+03 -0.55817186969E+03  0.21875123907E+04  0.92413626766E+02 0.  0.
         13    1    3    3    0    0 -0.45490911099E+03  0.16370783073E+03 -0.88980549285E+02  0.49158935226E+03  0.00000000000E+00 0. -1.
        -13    1    3    3    0    0 -0.15467367905E+04  0.51343914737E+03 -0.46919132041E+03  0.16959230384E+04  0.00000000000E+00 0.  1.
         22    1    1    2    0    0  0.20016459015E+04 -0.67714697811E+03  0.83357257199E+03  0.22715540006E+04  0.00000000000E+00 0. -1.
<mgrwt>
<rscale>  0 0.44505536E+04</rscale>
<asrwt>0</asrwt>
<pdfrwt beam="1">  1        2 0.32182044E+00 0.44505536E+04</pdfrwt>
<pdfrwt beam="2">  1       -2 0.36418978E+00 0.44505536E+04</pdfrwt>
<totfact> 0.57123158E-02</totfact>
</mgrwt>
</event>
<event>
 6    1  0.1831439E-005  0.2955306E+04  0.7818608E-02  0.8256610E-01
          2   -1    0    0  501    0  0.00000000000E+00  0.00000000000E+00  0.20713487075E+04  0.20713487075E+04  0.00000000000E+00 0. -1.
         -2   -1    0    0    0  501 -0.00000000000E+00 -0.00000000000E+00 -0.10541237385E+04  0.10541237385E+04  0.00000000000E+00 0.  1.
         23    2    1    2    0    0 -0.10733276111E+04 -0.39971809451E+03 -0.47583124777E+03  0.12437116796E+04  0.92718119260E+02 0.  0.
         11    1    3    3    0    0 -0.40568532054E+03 -0.19719521152E+03 -0.20147574569E+03  0.49402328574E+03  0.00000000000E+00 0. -1.
        -11    1    3    3    0    0 -0.66764229060E+03 -0.20252288299E+03 -0.27435550208E+03  0.74968839384E+03  0.00000000000E+00 0.  1.
         22    1    1    2    0    0  0.10733276111E+04  0.39971809451E+03  0.14930562167E+04  0.18817607665E+04  0.00000000000E+00 0. -1.
<mgrwt>
<rscale>  0 0.29553056E+04</rscale>
<asrwt>0</asrwt>
<pdfrwt beam="1">  1        2 0.31866903E+00 0.29553056E+04</pdfrwt>
<pdfrwt beam="2">  1       -2 0.16217288E+00 0.29553056E+04</pdfrwt>
<totfact> 0.12717005E+00</totfact>
</mgrwt>
</event>
<event>
 6    1  0.1831439E-005  0.4661591E+04  0.7818608E-02  0.7882942E-01
         -2   -1    0    0    0  501 -0.00000000000E+00  0.00000000000E+00  0.20684313519E+04  0.20684313519E+04  0.00000000000E+00 0. -1.
          2   -1    0    0  501    0  0.00000000000E+00 -0.00000000000E+00 -0.26264384602E+04  0.26264384602E+04  0.00000000000E+00 0.  1.
         23    2    1    2    0    0  0.20403573828E+04 -0.26160917174E+02 -0.14117055233E+04  0.24829603143E+04  0.91852025537E+02 0.  0.
         13    1    3    3    0    0  0.88142325273E+03  0.26127146385E+02 -0.57826288319E+03  0.10545034568E+04  0.00000000000E+00 0. -1.
        -13    1    3    3    0    0  0.11589341300E+04 -0.52288063559E+02 -0.83344264012E+03  0.14284568575E+04  0.00000000000E+00 0.  1.
         22    1    1    2    0    0 -0.20403573828E+04  0.26160917174E+02  0.85369841499E+03  0.22119094979E+04  0.00000000000E+00 0. -1.
<mgrwt>
<rscale>  0 0.46615910E+04</rscale>
<asrwt>0</asrwt>
<pdfrwt beam="1">  1        2 0.40406746E+00 0.46615910E+04</pdfrwt>
<pdfrwt beam="2">  1       -2 0.31822021E+00 0.46615910E+04</pdfrwt>
<totfact> 0.53923415E-02</totfact>
</mgrwt>
</event>
<event>
 6    1  0.1831439E-005  0.4034002E+04  0.7818608E-02  0.7997722E-01
          2   -1    0    0  501    0  0.00000000000E+00  0.00000000000E+00  0.38866934552E+04  0.38866934552E+04  0.00000000000E+00 0. -1.
         -2   -1    0    0    0  501 -0.00000000000E+00 -0.00000000000E+00 -0.10467235340E+04  0.10467235340E+04  0.00000000000E+00 0.  1.
         23    2    1    2    0    0  0.17441248698E+04  0.59914634733E+03  0.42478326818E+03  0.18946549920E+04  0.91262297290E+02 0.  0.
         11    1    3    3    0    0  0.86721187946E+03  0.34408529544E+03  0.20110154776E+03  0.95440712850E+03  0.00000000000E+00 0.  1.
        -11    1    3    3    0    0  0.87691299036E+03  0.25506105189E+03  0.22368172042E+03  0.94024786354E+03  0.00000000000E+00 0. -1.
         22    1    1    2    0    0 -0.17441248698E+04 -0.59914634733E+03  0.24151866530E+04  0.30387619973E+04  0.00000000000E+00 0. -1.
<mgrwt>
<rscale>  0 0.40340022E+04</rscale>
<asrwt>0</asrwt>
<pdfrwt beam="1">  1        2 0.59795283E+00 0.40340022E+04</pdfrwt>
<pdfrwt beam="2">  1       -2 0.16103439E+00 0.40340022E+04</pdfrwt>
<totfact> 0.81722102E-02</totfact>
</mgrwt>
</event>
<event>
 6    1  0.1831439E-005  0.2295186E+04  0.7818608E-02  0.8479821E-01
         -1   -1    0    0    0  501 -0.00000000000E+00  0.00000000000E+00  0.28683124479E+03  0.28683124479E+03  0.00000000000E+00 0.  1.
          1   -1    0    0  501    0  0.00000000000E+00 -0.00000000000E+00 -0.45914462898E+04  0.45914462898E+04  0.00000000000E+00 0. -1.
         23    2    1    2    0    0  0.33315465835E+03 -0.91487794620E+03 -0.34393618124E+04  0.35757197281E+04  0.92564648077E+02 0.  0.
         13    1    3    3    0    0  0.13736118185E+03 -0.41253489672E+03 -0.13746382035E+04  0.14417639633E+04  0.00000000000E+00 0.  1.
        -13    1    3    3    0    0  0.19579347650E+03 -0.50234304948E+03 -0.20647236089E+04  0.21339557648E+04  0.00000000000E+00 0. -1.
         22    1    1    2    0    0 -0.33315465835E+03  0.91487794620E+03 -0.86525323256E+03  0.13025578065E+04  0.00000000000E+00 0.  1.
<mgrwt>
<rscale>  0 0.22951865E+04</rscale>
<asrwt>0</asrwt>
<pdfrwt beam="1">  1        1 0.70637634E+00 0.22951865E+04</pdfrwt>
<pdfrwt beam="2">  1       -1 0.44127885E-01 0.22951865E+04</pdfrwt>
<totfact> 0.11979521E-01</totfact>
</mgrwt>
</event>
<event>
 6    1  0.1831439E-005  0.3360592E+04  0.7818608E-02  0.8147646E-01
         -2   -1    0    0    0  501 -0.00000000000E+00  0.00000000000E+00  0.15759717360E+04  0.15759717360E+04  0.00000000000E+00 0.  1.
          2   -1    0    0  501    0  0.00000000000E+00 -0.00000000000E+00 -0.17915267087E+04  0.17915267087E+04  0.00000000000E+00 0. -1.
         23    2    1    2    0    0  0.12404777963E+04 -0.24003003120E+03 -0.12159490481E+04  0.17559191307E+04  0.91215826042E+02 0.  0.
         11    1    3    3    0    0  0.38669236036E+03 -0.77026520184E+02 -0.43916456287E+03  0.59019452696E+03  0.00000000000E+00 0. -1.
        -11    1    3    3    0    0  0.85378543594E+03 -0.16300351101E+03 -0.77678448527E+03  0.11657246037E+04  0.00000000000E+00 0.  1.
         22    1    1    2    0    0 -0.12404777963E+04  0.24003003120E+03  0.10003940755E+04  0.16115793140E+04  0.00000000000E+00 0.  1.
<mgrwt>
<rscale>  0 0.33605925E+04</rscale>
<asrwt>0</asrwt>
<pdfrwt beam="1">  1        2 0.27561949E+00 0.33605925E+04</pdfrwt>
<pdfrwt beam="2">  1       -2 0.24245719E+00 0.33605925E+04</pdfrwt>
<totfact> 0.51856254E-01</totfact>
</mgrwt>
</event>
<event>
 6    1  0.1831439E-005  0.1534397E+04  0.7818608E-02  0.8861896E-01
          1   -1    0    0  501    0  0.00000000000E+00  0.00000000000E+00  0.64621930762E+03  0.64621930762E+03  0.00000000000E+00 0. -1.
         -1   -1    0    0    0  501 -0.00000000000E+00 -0.00000000000E+00 -0.91082602098E+03  0.91082602098E+03  0.00000000000E+00 0.  1.
         23    2    1    2    0    0  0.11441305370E+03  0.17255894246E+02 -0.89973591578E+03  0.91146247836E+03  0.88605973646E+02 0.  0.
         11    1    3    3    0    0  0.11110347061E+03  0.43241858157E+02 -0.71320508571E+03  0.72310119192E+03  0.00000000000E+00 0.  1.
        -11    1    3    3    0    0  0.33095830923E+01 -0.25985963911E+02 -0.18653083007E+03  0.18836128644E+03  0.00000000000E+00 0. -1.
         22    1    1    2    0    0 -0.11441305370E+03 -0.17255894246E+02  0.63512920243E+03  0.64558285024E+03  0.00000000000E+00 0. -1.
<mgrwt>
<rscale>  0 0.15343968E+04</rscale>
<asrwt>0</asrwt>
<pdfrwt beam="1">  1        1 0.99418356E-01 0.15343968E+04</pdfrwt>
<pdfrwt beam="2">  1       -1 0.14012708E+00 0.15343968E+04</pdfrwt>
<totfact> 0.12394511E+01</totfact>
</mgrwt>
</event>
<event>
 6    1  0.1831439E-005  0.2395413E+04  0.7818608E-02  0.8441223E-01
         -2   -1    0    0    0  501 -0.00000000000E+00  0.00000000000E+00  0.91490930263E+03  0.91490930263E+03  0.00000000000E+00 0.  1.
          2   -1    0    0  501    0  0.00000000000E+00 -0.00000000000E+00 -0.15679153036E+04  0.15679153036E+04  0.00000000000E+00 0. -1.
         23    2    1    2    0    0  0.18608047067E+03  0.10645276067E+04  0.20413961918E+03  0.11034973858E+04  0.90490493424E+02 0.  0.
         13    1    3    3    0    0  0.98986490787E+02  0.71745412289E+03  0.10219725658E+03  0.73142533663E+03  0.00000000000E+00 0. -1.
        -13    1    3    3    0    0  0.87093979887E+02  0.34707348379E+03  0.10194236260E+03  0.37207204917E+03  0.00000000000E+00 0.  1.
         22    1    1    2    0    0 -0.18608047067E+03 -0.10645276067E+04 -0.85714562020E+03  0.13793272205E+04  0.00000000000E+00 0. -1.
<mgrwt>
<rscale>  0 0.23954125E+04</rscale>
<asrwt>0</asrwt>
<pdfrwt beam="1">  1        2 0.24121773E+00 0.23954125E+04</pdfrwt>
<pdfrwt beam="2">  1       -2 0.14075528E+00 0.23954125E+04</pdfrwt>
<totfact> 0.37038517E+00</totfact>
</mgrwt>
</event>
<event>
 6    1  0.1831439E-005  0.1943573E+04  0.7818608E-02  0.8633466E-01
          1   -1    0    0  501    0  0.00000000000E+00  0.00000000000E+00  0.13675408944E+04  0.13675408944E+04  0.00000000000E+00 0. -1.
         -1   -1    0    0    0  501 -0.00000000000E+00 -0.00000000000E+00 -0.69056013958E+03  0.69056013958E+03  0.00000000000E+00 0.  1.
         23    2    1    2    0    0  0.61511427191E+02 -0.80889832453E+03  0.90192860963E+03  0.12162568129E+04  0.87779627200E+02 0.  0.
         11    1    3    3    0    0  0.15696668126E+02 -0.65745860345E+03  0.71923787053E+03  0.97457750592E+03  0.00000000000E+00 0. -1.
        -11    1    3    3    0    0  0.45814759065E+02 -0.15143972108E+03  0.18269073910E+03  0.24167930698E+03  0.00000000000E+00 0.  1.
         22    1    1    2    0    0 -0.61511427191E+02  0.80889832453E+03 -0.22494785485E+03  0.84184422105E+03  0.00000000000E+00 0.  1.
<mgrwt>
<rscale>  0 0.19435732E+04</rscale>
<asrwt>0</asrwt>
<pdfrwt beam="1">  1        1 0.21039091E+00 0.19435732E+04</pdfrwt>
<pdfrwt beam="2">  1       -1 0.10624002E+00 0.19435732E+04</pdfrwt>
<totfact> 0.62531296E+00</totfact>
</mgrwt>
</event>
<event>
 6    1  0.1831439E-005  0.3479260E+04  0.7818608E-02  0.8118723E-01
          1   -1    0    0  501    0  0.00000000000E+00  0.00000000000E+00  0.22976181007E+04  0.22976181007E+04  0.00000000000E+00 0. -1.
         -1   -1    0    0    0  501 -0.00000000000E+00 -0.00000000000E+00 -0.13171520040E+04  0.13171520040E+04  0.00000000000E+00 0.  1.
         23    2    1    2    0    0  0.37287419882E+03 -0.14892308232E+04  0.13380095439E+04  0.20384830339E+04  0.91103936282E+02 0.  0.
         13    1    3    3    0    0  0.79492475337E+02 -0.32179800460E+03  0.33993549260E+03  0.47479379580E+03  0.00000000000E+00 0. -1.
        -13    1    3    3    0    0  0.29338172349E+03 -0.11674328186E+04  0.99807405127E+03  0.15636892381E+04  0.00000000000E+00 0.  1.
         22    1    1    2    0    0 -0.37287419882E+03  0.14892308232E+04 -0.35754344719E+03  0.15762870708E+04  0.00000000000E+00 0.  1.
<mgrwt>
<rscale>  0 0.34792599E+04</rscale>
<asrwt>0</asrwt>
<pdfrwt beam="1">  1        1 0.35347971E+00 0.34792599E+04</pdfrwt>
<pdfrwt beam="2">  1       -1 0.20263877E+00 0.34792599E+04</pdfrwt>
<totfact> 0.22036311E-01</totfact>
</mgrwt>
</event>
<event>
 6    1  0.1831439E-005  0.3893020E+04  0.7818608E-02  0.8026483E-01
          2   -1    0    0  501    0  0.00000000000E+00  0.00000000000E+00  0.36909803668E+04  0.36909803668E+04  0.00000000000E+00 0. -1.
         -2   -1    0    0    0  501 -0.00000000000E+00 -0.00000000000E+00 -0.10265296338E+04  0.10265296338E+04  0.00000000000E+00 0.  1.
         23    2    1    2    0    0 -0.74214156858E+03  0.15154505539E+04  0.25061330677E+04  0.30226858291E+04  0.92532044361E+02 0.  0.
         11    1    3    3    0    0 -0.48497462154E+03  0.88740157135E+03  0.15049494901E+04  0.18131615759E+04  0.00000000000E+00 0. -1.
        -11    1    3    3    0    0 -0.25716694704E+03  0.62804898251E+03  0.10011835776E+04  0.12095242532E+04  0.00000000000E+00 0.  1.
         22    1    1    2    0    0  0.74214156858E+03 -0.15154505539E+04  0.15831766530E+03  0.16948241715E+04  0.00000000000E+00 0.  1.
<mgrwt>
<rscale>  0 0.38930198E+04</rscale>
<asrwt>0</asrwt>
<pdfrwt beam="1">  1        2 0.56784313E+00 0.38930198E+04</pdfrwt>
<pdfrwt beam="2">  1       -2 0.15792764E+00 0.38930198E+04</pdfrwt>
<totfact> 0.12279612E-01</totfact>
</mgrwt>
</event>
<event>
 6    1  0.1831439E-005  0.3574493E+04  0.7818608E-02  0.8096359E-01
         -1   -1    0    0    0  501 -0.00000000000E+00  0.00000000000E+00  0.11744084179E+04  0.11744084179E+04  0.00000000000E+00 0. -1.
          1   -1    0    0  501    0  0.00000000000E+00 -0.00000000000E+00 -0.27198807239E+04  0.27198807239E+04  0.00000000000E+00 0.  1.
         23    2    1    2    0    0 -0.14444841999E+04  0.77644664488E+03 -0.16319997886E+01  0.16419910072E+04  0.82023215964E+02 0.  0.
         13    1    3    3    0    0 -0.14075754768E+04  0.76938351786E+03  0.29958714404E+01  0.16041286406E+04  0.00000000000E+00 0. -1.
        -13    1    3    3    0    0 -0.36908723166E+02  0.70631270194E+01 -0.46278712289E+01  0.37862366555E+02  0.00000000000E+00 0.  1.
         22    1    1    2    0    0  0.14444841999E+04 -0.77644664488E+03 -0.15438403062E+04  0.22522981347E+04  0.00000000000E+00 0.  1.
<mgrwt>
<rscale>  0 0.35744934E+04</rscale>
<asrwt>0</asrwt>
<pdfrwt beam="1">  1        1 0.41844319E+00 0.35744934E+04</pdfrwt>
<pdfrwt beam="2">  1       -1 0.18067822E+00 0.35744934E+04</pdfrwt>
<totfact> 0.15847136E-01</totfact>
</mgrwt>
</event>
<event>
 6    1  0.1831439E-005  0.3586139E+04  0.7818608E-02  0.8093674E-01
          2   -1    0    0  501    0  0.00000000000E+00  0.00000000000E+00  0.24519733018E+04  0.24519733018E+04  0.00000000000E+00 0. -1.
         -2   -1    0    0    0  501 -0.00000000000E+00 -0.00000000000E+00 -0.13112289316E+04  0.13112289316E+04  0.00000000000E+00 0.  1.
         23    2    1    2    0    0  0.82652896173E+03  0.27886652543E+03  0.22132579031E+04  0.23807399583E+04  0.92171252240E+02 0.  0.
         11    1    3    3    0    0  0.55280541507E+03  0.17619975701E+03  0.15830243345E+04  0.16860030323E+04  0.00000000000E+00 0. -1.
        -11    1    3    3    0    0  0.27372354666E+03  0.10266676842E+03  0.63023356861E+03  0.69473692599E+03  0.00000000000E+00 0.  1.
         22    1    1    2    0    0 -0.82652896173E+03 -0.27886652543E+03 -0.10725135330E+04  0.13824622751E+04  0.00000000000E+00 0.  1.
<mgrwt>
<rscale>  0 0.35861391E+04</rscale>
<asrwt>0</asrwt>
<pdfrwt beam="1">  1        2 0.37722666E+00 0.35861391E+04</pdfrwt>
<pdfrwt beam="2">  1       -2 0.20172753E+00 0.35861391E+04</pdfrwt>
<totfact> 0.39233711E-01</totfact>
</mgrwt>
</event>
<event>
 6    1  0.1831439E-005  0.1274269E+04  0.7818608E-02  0.9050222E-01
          1   -1    0    0  501    0  0.00000000000E+00  0.00000000000E+00  0.29393554030E+04  0.29393554030E+04  0.00000000000E+00 0. -1.
         -1   -1    0    0    0  501 -0.00000000000E+00 -0.00000000000E+00 -0.13810529276E+03  0.13810529276E+03  0.00000000000E+00 0.  1.
         23    2    1    2    0    0 -0.22906017588E+03 -0.59027401542E+03  0.13320815522E+04  0.14776643870E+04  0.90326084462E+02 0.  0.
         13    1    3    3    0    0 -0.15159004530E+03 -0.34939863578E+03  0.89423685381E+03  0.97196630561E+03  0.00000000000E+00 0.  1.
        -13    1    3    3    0    0 -0.77470130580E+02 -0.24087537964E+03  0.43784469836E+03  0.50569808140E+03  0.00000000000E+00 0. -1.
         22    1    1    2    0    0  0.22906017588E+03  0.59027401542E+03  0.14691685580E+04  0.15997963087E+04  0.00000000000E+00 0.  1.
<mgrwt>
<rscale>  0 0.12742693E+04</rscale>
<asrwt>0</asrwt>
<pdfrwt beam="1">  1        1 0.45220848E+00 0.12742693E+04</pdfrwt>
<pdfrwt beam="2">  1       -1 0.21246970E-01 0.12742693E+04</pdfrwt>
<totfact> 0.12154776E+01</totfact>
</mgrwt>
</event>
<event>
 6    1  0.1831439E-005  0.4308193E+04  0.7818608E-02  0.7945105E-01
         -2   -1    0    0    0  501 -0.00000000000E+00  0.00000000000E+00  0.18500600741E+04  0.18500600741E+04  0.00000000000E+00 0. -1.
          2   -1    0    0  501    0  0.00000000000E+00 -0.00000000000E+00 -0.25080980613E+04  0.25080980613E+04  0.00000000000E+00 0.  1.
         23    2    1    2    0    0 -0.95024506440E+03  0.14708052835E+04  0.93825090168E+03  0.19886915116E+04  0.91352665756E+02 0.  0.
         13    1    3    3    0    0 -0.25159050141E+03  0.33416907736E+03  0.19603751182E+03  0.46194962789E+03  0.00000000000E+00 0. -1.
        -13    1    3    3    0    0 -0.69865456299E+03  0.11366362061E+04  0.74221338986E+03  0.15267418837E+04  0.00000000000E+00 0.  1.
         22    1    1    2    0    0  0.95024506440E+03 -0.14708052835E+04 -0.15962888889E+04  0.23694666238E+04  0.00000000000E+00 0.  1.
<mgrwt>
<rscale>  0 0.43081932E+04</rscale>
<asrwt>0</asrwt>
<pdfrwt beam="1">  1        2 0.38586124E+00 0.43081932E+04</pdfrwt>
<pdfrwt beam="2">  1       -2 0.28462463E+00 0.43081932E+04</pdfrwt>
<totfact> 0.10457753E-01</totfact>
</mgrwt>
</event>
<event>
 6    1  0.1831439E-005  0.2758640E+04  0.7818608E-02  0.8316225E-01
         -1   -1    0    0    0  501 -0.00000000000E+00  0.00000000000E+00  0.18116689931E+04  0.18116689931E+04  0.00000000000E+00 0.  1.
          1   -1    0    0  501    0  0.00000000000E+00 -0.00000000000E+00 -0.10501499801E+04  0.10501499801E+04  0.00000000000E+00 0. -1.
         23    2    1    2    0    0 -0.66367986577E+03  0.19397765100E+03  0.16174509073E+04  0.17614927938E+04  0.92796183374E+02 0.  0.
         13    1    3    3    0    0 -0.54315503930E+03  0.16328756472E+03  0.12276823437E+04  0.13523624375E+04  0.00000000000E+00 0. -1.
        -13    1    3    3    0    0 -0.12052482647E+03  0.30690086281E+02  0.38976856365E+03  0.40913035625E+03  0.00000000000E+00 0.  1.
         22    1    1    2    0    0  0.66367986577E+03 -0.19397765100E+03 -0.85593189430E+03  0.11003261794E+04  0.00000000000E+00 0. -1.
<mgrwt>
<rscale>  0 0.27586404E+04</rscale>
<asrwt>0</asrwt>
<pdfrwt beam="1">  1        1 0.16156154E+00 0.27586404E+04</pdfrwt>
<pdfrwt beam="2">  1       -1 0.27871831E+00 0.27586404E+04</pdfrwt>
<totfact> 0.54526953E-01</totfact>
</mgrwt>
</event>
<event>
 6    1  0.1831439E-005  0.3810472E+04  0.7818608E-02  0.8043911E-01
          1   -1    0    0  501    0  0.00000000000E+00  0.00000000000E+00  0.30726243280E+04  0.30726243280E+04  0.00000000000E+00 0. -1.
         -1   -1    0    0    0  501 -0.00000000000E+00 -0.00000000000E+00 -0.11813760848E+04  0.11813760848E+04  0.00000000000E+00 0.  1.
         23    2    1    2    0    0  0.17230824815E+04  0.79124207820E+03  0.11433002025E+04  0.22157404844E+04  0.85400683312E+02 0.  0.
         11    1    3    3    0    0  0.15918117400E+04  0.70631106693E+03  0.10570609875E+04  0.20371838086E+04  0.00000000000E+00 0. -1.
        -11    1    3    3    0    0  0.13127074153E+03  0.84931011266E+02  0.86239214987E+02  0.17855667576E+03  0.00000000000E+00 0.  1.
         22    1    1    2    0    0 -0.17230824815E+04 -0.79124207820E+03  0.74794804073E+03  0.20382599285E+04  0.00000000000E+00 0.  1.
<mgrwt>
<rscale>  0 0.38104724E+04</rscale>
<asrwt>0</asrwt>
<pdfrwt beam="1">  1        1 0.47271143E+00 0.38104724E+04</pdfrwt>
<pdfrwt beam="2">  1       -1 0.18175017E+00 0.38104724E+04</pdfrwt>
<totfact> 0.84916464E-02</totfact>
</mgrwt>
</event>
<event>
 6    1  0.1831439E-005  0.1276908E+04  0.7818608E-02  0.9048081E-01
          1   -1    0    0  501    0  0.00000000000E+00  0.00000000000E+00  0.12783231854E+04  0.12783231854E+04  0.00000000000E+00 0. -1.
         -1   -1    0    0    0  501 -0.00000000000E+00 -0.00000000000E+00 -0.31887345343E+03  0.31887345343E+03  0.00000000000E+00 0.  1.
         23    2    1    2    0    0  0.56980429638E+03  0.16476975757E+02  0.13160837601E+03  0.59207488623E+03  0.91013621857E+02 0.  0.
         11    1    3    3    0    0  0.30064353612E+03 -0.22837010208E+02  0.35562187358E+02  0.30359962782E+03  0.00000000000E+00 0.  1.
        -11    1    3    3    0    0  0.26916076026E+03  0.39313985965E+02  0.96046188655E+02  0.28847525841E+03  0.00000000000E+00 0. -1.
         22    1    1    2    0    0 -0.56980429638E+03 -0.16476975757E+02  0.82784135595E+03  0.10051217526E+04  0.00000000000E+00 0. -1.
<mgrwt>
<rscale>  0 0.12769077E+04</rscale>
<asrwt>0</asrwt>
<pdfrwt beam="1">  1        1 0.19666510E+00 0.12769077E+04</pdfrwt>
<pdfrwt beam="2">  1       -1 0.49057455E-01 0.12769077E+04</pdfrwt>
<totfact> 0.38394134E+01</totfact>
</mgrwt>
</event>
<event>
 6    1  0.1831439E-005  0.4375218E+04  0.7818608E-02  0.7932854E-01
         -1   -1    0    0    0  501 -0.00000000000E+00  0.00000000000E+00  0.19832798269E+04  0.19832798269E+04  0.00000000000E+00 0.  1.
          1   -1    0    0  501    0  0.00000000000E+00 -0.00000000000E+00 -0.24129896900E+04  0.24129896900E+04  0.00000000000E+00 0. -1.
         23    2    1    2    0    0 -0.18248572413E+04 -0.62662593185E+03  0.81964830435E+03  0.20976482257E+04  0.74436057523E+02 0.  0.
         13    1    3    3    0    0 -0.17339706969E+04 -0.61175914203E+03  0.77688701752E+03  0.19961104838E+04  0.00000000000E+00 0. -1.
        -13    1    3    3    0    0 -0.90886544326E+02 -0.14866789827E+02  0.42761286834E+02  0.10153774190E+03  0.00000000000E+00 0.  1.
         22    1    1    2    0    0  0.18248572413E+04  0.62662593185E+03 -0.12493581675E+04  0.22986212912E+04  0.00000000000E+00 0. -1.
<mgrwt>
<rscale>  0 0.43752183E+04</rscale>
<asrwt>0</asrwt>
<pdfrwt beam="1">  1        1 0.37122918E+00 0.43752183E+04</pdfrwt>
<pdfrwt beam="2">  1       -1 0.30511998E+00 0.43752183E+04</pdfrwt>
<totfact> 0.36141086E-02</totfact>
</mgrwt>
</event>
<event>
 6    1  0.1831439E-005  0.2681279E+04  0.7818608E-02  0.8341105E-01
          2   -1    0    0  501    0  0.00000000000E+00  0.00000000000E+00  0.23037456160E+04  0.23037456160E+04  0.00000000000E+00 0. -1.
         -2   -1    0    0    0  501 -0.00000000000E+00 -0.00000000000E+00 -0.78017060424E+03  0.78017060424E+03  0.00000000000E+00 0.  1.
         23    2    1    2    0    0 -0.75556182737E+03 -0.25308219130E+03 -0.47519034913E+03  0.93217570651E+03  0.90671987851E+02 0.  0.
         13    1    3    3    0    0 -0.38210691299E+03 -0.10737943646E+03 -0.18887857582E+03  0.43955790601E+03  0.00000000000E+00 0. -1.
        -13    1    3    3    0    0 -0.37345491438E+03 -0.14570275484E+03 -0.28631177331E+03  0.49261780051E+03  0.00000000000E+00 0.  1.
         22    1    1    2    0    0  0.75556182737E+03  0.25308219130E+03  0.19987653609E+04  0.21517405137E+04  0.00000000000E+00 0. -1.
<mgrwt>
<rscale>  0 0.26812793E+04</rscale>
<asrwt>0</asrwt>
<pdfrwt beam="1">  1        2 0.35442240E+00 0.26812793E+04</pdfrwt>
<pdfrwt beam="2">  1       -2 0.12002625E+00 0.26812793E+04</pdfrwt>
<totfact> 0.21034260E+00</totfact>
</mgrwt>
</event>
<event>
 6    1  0.1831439E-005  0.7827481E+03  0.7818608E-02  0.9585330E-01
         -2   -1    0    0    0  501 -0.00000000000E+00  0.00000000000E+00  0.33277439585E+03  0.33277439585E+03  0.00000000000E+00 0. -1.
          2   -1    0    0  501    0  0.00000000000E+00 -0.00000000000E+00 -0.46029272500E+03  0.46029272500E+03  0.00000000000E+00 0.  1.
         23    2    1    2    0    0 -0.11613532387E+03  0.21539704208E+03 -0.36677305198E+03  0.45083018306E+03  0.94032351427E+02 0.  0.
         13    1    3    3    0    0 -0.90794639723E+02  0.19869611935E+03 -0.25881417292E+03  0.33868656683E+03  0.00000000000E+00 0.  1.
        -13    1    3    3    0    0 -0.25340684147E+02  0.16700922724E+02 -0.10795887907E+03  0.11214361623E+03  0.00000000000E+00 0. -1.
         22    1    1    2    0    0  0.11613532387E+03 -0.21539704208E+03  0.23925472284E+03  0.34223693779E+03  0.00000000000E+00 0. -1.
<mgrwt>
<rscale>  0 0.78274807E+03</rscale>
<asrwt>0</asrwt>
<pdfrwt beam="1">  1        2 0.70814266E-01 0.78274807E+03</pdfrwt>
<pdfrwt beam="2">  1       -2 0.51196061E-01 0.78274807E+03</pdfrwt>
<totfact> 0.24620178E+02</totfact>
</mgrwt>
</event>
<event>
 6    1  0.1831439E-005  0.4744180E+04  0.7818608E-02  0.7869229E-01
          1   -1    0    0  501    0  0.00000000000E+00  0.00000000000E+00  0.22334794115E+04  0.22334794115E+04  0.00000000000E+00 0. -1.
         -1   -1    0    0    0  501 -0.00000000000E+00 -0.00000000000E+00 -0.25193029464E+04  0.25193029464E+04  0.00000000000E+00 0.  1.
         23    2    1    2    0    0 -0.85844789107E+03  0.19344206798E+04  0.92846474683E+03  0.23128208460E+04  0.90428598548E+02 0.  0.
         11    1    3    3    0    0 -0.33181557574E+03  0.69319089385E+03  0.37813101892E+03  0.85650350793E+03  0.00000000000E+00 0. -1.
        -11    1    3    3    0    0 -0.52663231532E+03  0.12412297860E+04  0.55033372791E+03  0.14563173381E+04  0.00000000000E+00 0.  1.
         22    1    1    2    0    0  0.85844789107E+03 -0.19344206798E+04 -0.12142882817E+04  0.24399615118E+04  0.00000000000E+00 0. -1.
<mgrwt>
<rscale>  0 0.47441801E+04</rscale>
<asrwt>0</asrwt>
<pdfrwt beam="1">  1        1 0.34361221E+00 0.47441801E+04</pdfrwt>
<pdfrwt beam="2">  1       -1 0.38758507E+00 0.47441801E+04</pdfrwt>
<totfact> 0.13236701E-02</totfact>
</mgrwt>
</event>
<event>
 6    1  0.1831439E-005  0.2636626E+04  0.7818608E-02  0.8355866E-01
          1   -1    0    0  501    0  0.00000000000E+00  0.00000000000E+00  0.85913435041E+03  0.85913435041E+03  0.00000000000E+00 0. -1.
         -1   -1    0    0    0  501 -0.00000000000E+00 -0.00000000000E+00 -0.20229066366E+04  0.20229066366E+04  0.00000000000E+00 0.  1.
         23    2    1    2    0    0 -0.93707144034E+03 -0.33141763118E+03  0.36131540004E+03  0.10616473534E+04  0.92767204119E+02 0.  0.
         11    1    3    3    0    0 -0.18501017593E+03 -0.29609905776E+02  0.54252462946E+02  0.19506112235E+03  0.00000000000E+00 0. -1.
        -11    1    3    3    0    0 -0.75206126441E+03 -0.30180772540E+03  0.30706293709E+03  0.86658623107E+03  0.00000000000E+00 0.  1.
         22    1    1    2    0    0  0.93707144034E+03  0.33141763118E+03 -0.15250876862E+04  0.18203936336E+04  0.00000000000E+00 0.  1.
<mgrwt>
<rscale>  0 0.26366256E+04</rscale>
<asrwt>0</asrwt>
<pdfrwt beam="1">  1        1 0.13217452E+00 0.26366256E+04</pdfrwt>
<pdfrwt beam="2">  1       -1 0.31121640E+00 0.26366256E+04</pdfrwt>
<totfact> 0.48236926E-01</totfact>
</mgrwt>
</event>
<event>
 6    1  0.1831439E-005  0.7252969E+03  0.7818608E-02  0.9674923E-01
          1   -1    0    0  501    0  0.00000000000E+00  0.00000000000E+00  0.97479112411E+03  0.97479112411E+03  0.00000000000E+00 0. -1.
         -1   -1    0    0    0  501 -0.00000000000E+00 -0.00000000000E+00 -0.13491495020E+03  0.13491495020E+03  0.00000000000E+00 0.  1.
         23    2    1    2    0    0  0.21925050722E+03  0.24784721489E+03  0.63211285811E+03  0.71898287020E+03  0.88716827099E+02 0.  0.
         11    1    3    3    0    0  0.19393292010E+03  0.16240536831E+03  0.48444874575E+03  0.54651264250E+03  0.00000000000E+00 0. -1.
        -11    1    3    3    0    0  0.25317587123E+02  0.85441846576E+02  0.14766411236E+03  0.17247022770E+03  0.00000000000E+00 0.  1.
         22    1    1    2    0    0 -0.21925050722E+03 -0.24784721489E+03  0.20776331580E+03  0.39072320412E+03  0.00000000000E+00 0. -1.
<mgrwt>
<rscale>  0 0.72529689E+03</rscale>
<asrwt>0</asrwt>
<pdfrwt beam="1">  1        1 0.14996786E+00 0.72529689E+03</pdfrwt>
<pdfrwt beam="2">  1       -1 0.20756147E-01 0.72529689E+03</pdfrwt>
<totfact> 0.30792870E+02</totfact>
</mgrwt>
</event>
<event>
 6    1  0.1831439E-005  0.1439624E+04  0.7818608E-02  0.8925626E-01
         -2   -1    0    0    0  501 -0.00000000000E+00  0.00000000000E+00  0.95464694134E+03  0.95464694134E+03  0.00000000000E+00 0.  1.
          2   -1    0    0  501    0  0.00000000000E+00 -0.00000000000E+00 -0.54274422755E+03  0.54274422755E+03  0.00000000000E+00 0. -1.
         23    2    1    2    0    0  0.50717712663E+03 -0.44214110947E+03 -0.51279544670E+02  0.68053426403E+03  0.88203709487E+02 0.  0.
         11    1    3    3    0    0  0.21533998539E+03 -0.23352257925E+03  0.33005564841E+01  0.31767121053E+03  0.00000000000E+00 0. -1.
        -11    1    3    3    0    0  0.29183714124E+03 -0.20861853022E+03 -0.54580101154E+02  0.36286305351E+03  0.00000000000E+00 0.  1.
         22    1    1    2    0    0 -0.50717712663E+03  0.44214110947E+03  0.46318225846E+03  0.81685690486E+03  0.00000000000E+00 0.  1.
<mgrwt>
<rscale>  0 0.14396237E+04</rscale>
<asrwt>0</asrwt>
<pdfrwt beam="1">  1        2 0.83499112E-01 0.14396237E+04</pdfrwt>
<pdfrwt beam="2">  1       -2 0.14686876E+00 0.14396237E+04</pdfrwt>
<totfact> 0.17182154E+01</totfact>
</mgrwt>
</event>
<event>
 6    1  0.1831439E-005  0.2821906E+04  0.7818608E-02  0.8296500E-01
          1   -1    0    0  501    0  0.00000000000E+00  0.00000000000E+00  0.16868951529E+04  0.16868951529E+04  0.00000000000E+00 0. -1.
         -1   -1    0    0    0  501 -0.00000000000E+00 -0.00000000000E+00 -0.11801493665E+04  0.11801493665E+04  0.00000000000E+00 0.  1.
         23    2    1    2    0    0 -0.12261887146E+03 -0.12293980161E+04 -0.43321272386E+03  0.13146344993E+04  0.11889378957E+03 0.  0.
         11    1    3    3    0    0 -0.11949552161E+02 -0.67022798323E+03 -0.25840484448E+03  0.71841589971E+03  0.00000000000E+00 0. -1.
        -11    1    3    3    0    0 -0.11066931929E+03 -0.55917003284E+03 -0.17480787938E+03  0.59621859963E+03  0.00000000000E+00 0.  1.
         22    1    1    2    0    0  0.12261887146E+03  0.12293980161E+04  0.93995851019E+03  0.15524100201E+04  0.00000000000E+00 0. -1.
<mgrwt>
<rscale>  0 0.28219059E+04</rscale>
<asrwt>0</asrwt>
<pdfrwt beam="1">  1        1 0.25952233E+00 0.28219059E+04</pdfrwt>
<pdfrwt beam="2">  1       -1 0.18156144E+00 0.28219059E+04</pdfrwt>
<totfact> 0.85266555E-01</totfact>
</mgrwt>
</event>
<event>
 6    1  0.1831439E-005  0.7133101E+03  0.7818608E-02  0.9694737E-01
          2   -1    0    0  501    0  0.00000000000E+00  0.00000000000E+00  0.11401296926E+04  0.11401296926E+04  0.00000000000E+00 0. -1.
         -2   -1    0    0    0  501 -0.00000000000E+00 -0.00000000000E+00 -0.11156872908E+03  0.11156872908E+03  0.00000000000E+00 0.  1.
         23    2    1    2    0    0  0.19206807453E+03  0.19744543706E+03  0.90492487768E+03  0.94977007325E+03  0.85436010694E+02 0.  0.
         13    1    3    3    0    0  0.10178831534E+03  0.11490865487E+03  0.63710818290E+03  0.65534090122E+03  0.00000000000E+00 0. -1.
        -13    1    3    3    0    0  0.90279759193E+02  0.82536782189E+02  0.26781669479E+03  0.29442917203E+03  0.00000000000E+00 0.  1.
         22    1    1    2    0    0 -0.19206807453E+03 -0.19744543706E+03  0.12363608586E+03  0.30192834845E+03  0.00000000000E+00 0. -1.
<mgrwt>
<rscale>  0 0.71331009E+03</rscale>
<asrwt>0</asrwt>
<pdfrwt beam="1">  1        2 0.17540456E+00 0.71331009E+03</pdfrwt>
<pdfrwt beam="2">  1       -2 0.17164421E-01 0.71331009E+03</pdfrwt>
<totfact> 0.57770951E+02</totfact>
</mgrwt>
</event>
<event>
 6    1  0.1831439E-005  0.2918720E+04  0.7818608E-02  0.8267329E-01
         -2   -1    0    0    0  501 -0.00000000000E+00  0.00000000000E+00  0.27056105409E+04  0.27056105409E+04  0.00000000000E+00 0. -1.
          2   -1    0    0  501    0  0.00000000000E+00 -0.00000000000E+00 -0.78715379588E+03  0.78715379588E+03  0.00000000000E+00 0.  1.
         23    2    1    2    0    0  0.11652589962E+04  0.49033231456E+02 -0.86771953578E+02  0.11730283777E+04  0.90738177754E+02 0.  0.
         11    1    3    3    0    0  0.89557615364E+03  0.71919878377E+02 -0.49500611250E+02  0.89982188592E+03  0.00000000000E+00 0.  1.
        -11    1    3    3    0    0  0.26968284260E+03 -0.22886646920E+02 -0.37271342328E+02  0.27320649179E+03  0.00000000000E+00 0. -1.
         22    1    1    2    0    0 -0.11652589962E+04 -0.49033231456E+02  0.20052286986E+04  0.23197359591E+04  0.00000000000E+00 0. -1.
<mgrwt>
<rscale>  0 0.29187200E+04</rscale>
<asrwt>0</asrwt>
<pdfrwt beam="1">  1        2 0.12110059E+00 0.29187200E+04</pdfrwt>
<pdfrwt beam="2">  1       -2 0.41624777E+00 0.29187200E+04</pdfrwt>
<totfact> 0.17590870E-01</totfact>
</mgrwt>
</event>
<event>
 6    1  0.1831439E-005  0.2214005E+04  0.7818608E-02  0.8512622E-01
          1   -1    0    0  501    0  0.00000000000E+00  0.00000000000E+00  0.24868437244E+04  0.24868437244E+04  0.00000000000E+00 0. -1.
         -1   -1    0    0    0  501 -0.00000000000E+00 -0.00000000000E+00 -0.49277485274E+03  0.49277485274E+03  0.00000000000E+00 0.  1.
         23    2    1    2    0    0  0.96147858273E+03 -0.37059916892E+03  0.46172720763E+03  0.11330390949E+04  0.93812404033E+02 0.  0.
         13    1    3    3    0    0  0.19445181314E+03 -0.95905534245E+02  0.61846858746E+02  0.22546488212E+03  0.00000000000E+00 0.  1.
        -13    1    3    3    0    0  0.76702676959E+03 -0.27469363467E+03  0.39988034889E+03  0.90757421273E+03  0.00000000000E+00 0. -1.
         22    1    1    2    0    0 -0.96147858273E+03  0.37059916892E+03  0.15323416640E+04  0.18465794823E+04  0.00000000000E+00 0. -1.
<mgrwt>
<rscale>  0 0.22140046E+04</rscale>
<asrwt>0</asrwt>
<pdfrwt beam="1">  1        1 0.38259133E+00 0.22140046E+04</pdfrwt>
<pdfrwt beam="2">  1       -1 0.75811517E-01 0.22140046E+04</pdfrwt>
<totfact> 0.22021802E+00</totfact>
</mgrwt>
</event>
<event>
 6    1  0.1831439E-005  0.6624878E+03  0.7818608E-02  0.9783625E-01
         -1   -1    0    0    0  501 -0.00000000000E+00  0.00000000000E+00  0.16627880146E+03  0.16627880146E+03  0.00000000000E+00 0.  1.
          1   -1    0    0  501    0  0.00000000000E+00 -0.00000000000E+00 -0.65987082151E+03  0.65987082151E+03  0.00000000000E+00 0. -1.
         23    2    1    2    0    0 -0.25412696027E+03 -0.11170797286E+03 -0.46274968582E+03  0.54684614516E+03  0.88567779790E+02 0.  0.
         13    1    3    3    0    0 -0.10200407211E+03 -0.82533822591E+02 -0.26452711129E+03  0.29528165402E+03  0.00000000000E+00 0.  1.
        -13    1    3    3    0    0 -0.15212288816E+03 -0.29174150267E+02 -0.19822257453E+03  0.25156449114E+03  0.00000000000E+00 0. -1.
         22    1    1    2    0    0  0.25412696027E+03  0.11170797286E+03 -0.30842334235E+02  0.27930347781E+03  0.00000000000E+00 0.  1.
<mgrwt>
<rscale>  0 0.66248782E+03</rscale>
<asrwt>0</asrwt>
<pdfrwt beam="1">  1        1 0.10151859E+00 0.66248782E+03</pdfrwt>
<pdfrwt beam="2">  1       -1 0.25581354E-01 0.66248782E+03</pdfrwt>
<totfact> 0.40536099E+02</totfact>
</mgrwt>
</event>
<event>
 6    1  0.1831439E-005  0.2222241E+04  0.7818608E-02  0.8509227E-01
          2   -1    0    0  501    0  0.00000000000E+00  0.00000000000E+00  0.10970445702E+04  0.10970445702E+04  0.00000000000E+00 0. -1.
         -2   -1    0    0    0  501 -0.00000000000E+00 -0.00000000000E+00 -0.11253772624E+04  0.11253772624E+04  0.00000000000E+00 0.  1.
         23    2    1    2    0    0  0.41872265006E+03  0.18388418825E+03 -0.10248113943E+04  0.11260132154E+04  0.92332632597E+02 0.  0.
         11    1    3    3    0    0  0.15574950674E+03  0.32475261924E+02 -0.28524795911E+03  0.32661743625E+03  0.00000000000E+00 0. -1.
        -11    1    3    3    0    0  0.26297314333E+03  0.15140892632E+03 -0.73956343514E+03  0.79939577913E+03  0.00000000000E+00 0.  1.
         22    1    1    2    0    0 -0.41872265006E+03 -0.18388418825E+03  0.99647870207E+03  0.10964086173E+04  0.00000000000E+00 0. -1.
<mgrwt>
<rscale>  0 0.22222412E+04</rscale>
<asrwt>0</asrwt>
<pdfrwt beam="1">  1        2 0.16877609E+00 0.22222412E+04</pdfrwt>
<pdfrwt beam="2">  1       -2 0.17313496E+00 0.22222412E+04</pdfrwt>
<totfact> 0.40420268E+00</totfact>
</mgrwt>
</event>
<event>
 6    1  0.1831439E-005  0.2287390E+04  0.7818608E-02  0.8482910E-01
          1   -1    0    0  501    0  0.00000000000E+00  0.00000000000E+00  0.10833283862E+04  0.10833283862E+04  0.00000000000E+00 0. -1.
         -1   -1    0    0    0  501 -0.00000000000E+00 -0.00000000000E+00 -0.12074257707E+04  0.12074257707E+04  0.00000000000E+00 0.  1.
         23    2    1    2    0    0  0.10057920315E+04  0.55243992634E+02 -0.60071532322E+03  0.11763780225E+04  0.91306314002E+02 0.  0.
         13    1    3    3    0    0  0.51105335480E+03  0.72408866523E+02 -0.29371467569E+03  0.59387447000E+03  0.00000000000E+00 0. -1.
        -13    1    3    3    0    0  0.49473867668E+03 -0.17164873889E+02 -0.30700064753E+03  0.58250355250E+03  0.00000000000E+00 0.  1.
         22    1    1    2    0    0 -0.10057920315E+04 -0.55243992634E+02  0.47661793879E+03  0.11143761344E+04  0.00000000000E+00 0. -1.
<mgrwt>
<rscale>  0 0.22873903E+04</rscale>
<asrwt>0</asrwt>
<pdfrwt beam="1">  1        1 0.16666591E+00 0.22873903E+04</pdfrwt>
<pdfrwt beam="2">  1       -1 0.18575781E+00 0.22873903E+04</pdfrwt>
<totfact> 0.22359297E+00</totfact>
</mgrwt>
</event>
<event>
 6    1  0.1831439E-005  0.9120291E+03  0.7818608E-02  0.9410668E-01
         -1   -1    0    0    0  501 -0.00000000000E+00  0.00000000000E+00  0.15215332525E+03  0.15215332525E+03  0.00000000000E+00 0.  1.
          1   -1    0    0  501    0  0.00000000000E+00 -0.00000000000E+00 -0.13667086678E+04  0.13667086678E+04  0.00000000000E+00 0. -1.
         23    2    1    2    0    0 -0.27873082213E+03 -0.12897652842E+03 -0.11633359171E+04  0.12074952549E+04  0.10182592179E+03 0.  0.
         11    1    3    3    0    0 -0.18329874024E+03 -0.34701786163E+02 -0.75415464670E+03  0.77688601048E+03  0.00000000000E+00 0. -1.
        -11    1    3    3    0    0 -0.95432081894E+02 -0.94274742256E+02 -0.40918127044E+03  0.43060924440E+03  0.00000000000E+00 0.  1.
         22    1    1    2    0    0  0.27873082213E+03  0.12897652842E+03 -0.51219425389E+02  0.31136673815E+03  0.00000000000E+00 0.  1.
<mgrwt>
<rscale>  0 0.91202910E+03</rscale>
<asrwt>0</asrwt>
<pdfrwt beam="1">  1        1 0.21026287E+00 0.91202910E+03</pdfrwt>
<pdfrwt beam="2">  1       -1 0.23408204E-01 0.91202910E+03</pdfrwt>
<totfact> 0.12801007E+02</totfact>
</mgrwt>
</event>
<event>
 6    1  0.1831439E-005  0.9854690E+03  0.7818608E-02  0.9324627E-01
          1   -1    0    0  501    0  0.00000000000E+00  0.00000000000E+00  0.23044363329E+03  0.23044363329E+03  0.00000000000E+00 0. -1.
         -1   -1    0    0    0  501 -0.00000000000E+00 -0.00000000000E+00 -0.10535646571E+04  0.10535646571E+04  0.00000000000E+00 0.  1.
         23    2    1    2    0    0  0.14672447627E+03 -0.20505501599E+02 -0.10216663980E+04  0.10362809944E+04  0.90152776195E+02 0.  0.
         11    1    3    3    0    0  0.14802735051E+02  0.19439056112E+02 -0.33660264057E+03  0.33748827462E+03  0.00000000000E+00 0. -1.
        -11    1    3    3    0    0  0.13192174122E+03 -0.39944557712E+02 -0.68506375741E+03  0.69879271978E+03  0.00000000000E+00 0.  1.
         22    1    1    2    0    0 -0.14672447627E+03  0.20505501599E+02  0.19854537422E+03  0.24772729594E+03  0.00000000000E+00 0. -1.
<mgrwt>
<rscale>  0 0.98546896E+03</rscale>
<asrwt>0</asrwt>
<pdfrwt beam="1">  1        1 0.35452867E-01 0.98546896E+03</pdfrwt>
<pdfrwt beam="2">  1       -1 0.16208687E+00 0.98546896E+03</pdfrwt>
<totfact> 0.34991564E+01</totfact>
</mgrwt>
</event>
<event>
 6    1  0.1831439E-005  0.2335275E+04  0.7818608E-02  0.8464141E-01
          2   -1    0    0  501    0  0.00000000000E+00  0.00000000000E+00  0.66364933966E+03  0.66364933966E+03  0.00000000000E+00 0. -1.
         -2   -1    0    0    0  501 -0.00000000000E+00 -0.00000000000E+00 -0.20543634715E+04  0.20543634715E+04  0.00000000000E+00 0.  1.
         23    2    1    2    0    0 -0.76388096704E+02 -0.10696512659E+04 -0.12288226042E+04  0.16334862607E+04  0.91013181721E+02 0.  0.
         13    1    3    3    0    0  0.16660457265E+02 -0.37475150421E+03 -0.43115744135E+03  0.57150065615E+03  0.00000000000E+00 0. -1.
        -13    1    3    3    0    0 -0.93048553969E+02 -0.69489976172E+03 -0.79766516281E+03  0.10619856045E+04  0.00000000000E+00 0.  1.
         22    1    1    2    0    0  0.76388096704E+02  0.10696512659E+04 -0.16189152769E+03  0.10845265505E+04  0.00000000000E+00 0. -1.
<mgrwt>
<rscale>  0 0.23352747E+04</rscale>
<asrwt>0</asrwt>
<pdfrwt beam="1">  1        2 0.10209990E+00 0.23352747E+04</pdfrwt>
<pdfrwt beam="2">  1       -2 0.31605592E+00 0.23352747E+04</pdfrwt>
<totfact> 0.10036639E+00</totfact>
</mgrwt>
</event>
<event>
 6    1  0.1831439E-005  0.1817725E+04  0.7818608E-02  0.8696930E-01
          1   -1    0    0  501    0  0.00000000000E+00  0.00000000000E+00  0.17708417880E+04  0.17708417880E+04  0.00000000000E+00 0. -1.
         -1   -1    0    0    0  501 -0.00000000000E+00 -0.00000000000E+00 -0.46646221326E+03  0.46646221326E+03  0.00000000000E+00 0.  1.
         23    2    1    2    0    0 -0.22820337235E+03 -0.86009507515E+03  0.43916315603E+03  0.99615946146E+03  0.87344591125E+02 0.  0.
         13    1    3    3    0    0 -0.14904896423E+03 -0.39601244849E+03  0.19702476082E+03  0.46675497799E+03  0.00000000000E+00 0.  1.
        -13    1    3    3    0    0 -0.79154408119E+02 -0.46408262666E+03  0.24213839521E+03  0.52940448348E+03  0.00000000000E+00 0. -1.
         22    1    1    2    0    0  0.22820337235E+03  0.86009507515E+03  0.86521641866E+03  0.12411445398E+04  0.00000000000E+00 0. -1.
<mgrwt>
<rscale>  0 0.18177247E+04</rscale>
<asrwt>0</asrwt>
<pdfrwt beam="1">  1        1 0.27243719E+00 0.18177247E+04</pdfrwt>
<pdfrwt beam="2">  1       -1 0.71763419E-01 0.18177247E+04</pdfrwt>
<totfact> 0.78744039E+00</totfact>
</mgrwt>
</event>
<event>
 6    1  0.1831439E-005  0.1704759E+04  0.7818608E-02  0.8758655E-01
         -1   -1    0    0    0  501 -0.00000000000E+00  0.00000000000E+00  0.86456420612E+03  0.86456420612E+03  0.00000000000E+00 0.  1.
          1   -1    0    0  501    0  0.00000000000E+00 -0.00000000000E+00 -0.84036675075E+03  0.84036675075E+03  0.00000000000E+00 0. -1.
         23    2    1    2    0    0  0.29553110995E+03 -0.71697740507E+03  0.36027812446E+03  0.85974136130E+03  0.89216842719E+02 0.  0.
         11    1    3    3    0    0  0.22243728643E+03 -0.54137711586E+03  0.22834798616E+03  0.62825976376E+03  0.00000000000E+00 0. -1.
        -11    1    3    3    0    0  0.73093823517E+02 -0.17560028921E+03  0.13193013829E+03  0.23148159754E+03  0.00000000000E+00 0.  1.
         22    1    1    2    0    0 -0.29553110995E+03  0.71697740507E+03 -0.33608066908E+03  0.84518959557E+03  0.00000000000E+00 0. -1.
<mgrwt>
<rscale>  0 0.17047592E+04</rscale>
<asrwt>0</asrwt>
<pdfrwt beam="1">  1        1 0.12928719E+00 0.17047592E+04</pdfrwt>
<pdfrwt beam="2">  1       -1 0.13300988E+00 0.17047592E+04</pdfrwt>
<totfact> 0.92904285E+00</totfact>
</mgrwt>
</event>
<event>
 6    1  0.1831439E-005  0.1428831E+04  0.7818608E-02  0.8933209E-01
          1   -1    0    0  501    0  0.00000000000E+00  0.00000000000E+00  0.13092570762E+04  0.13092570762E+04  0.00000000000E+00 0. -1.
         -1   -1    0    0    0  501 -0.00000000000E+00 -0.00000000000E+00 -0.38983158281E+03  0.38983158281E+03  0.00000000000E+00 0.  1.
         23    2    1    2    0    0 -0.22186429201E+03 -0.61294699381E+03  0.12492953636E+03  0.67139628917E+03  0.10118204768E+03 0.  0.
         11    1    3    3    0    0  0.86585894700E+01 -0.57460084632E+02  0.70843377915E+01  0.58539049698E+02  0.00000000000E+00 0.  1.
        -11    1    3    3    0    0 -0.23052288148E+03 -0.55548690917E+03  0.11784519857E+03  0.61285723947E+03  0.00000000000E+00 0. -1.
         22    1    1    2    0    0  0.22186429201E+03  0.61294699381E+03  0.79449595700E+03  0.10276923698E+04  0.00000000000E+00 0. -1.
<mgrwt>
<rscale>  0 0.14288314E+04</rscale>
<asrwt>0</asrwt>
<pdfrwt beam="1">  1        1 0.20142416E+00 0.14288314E+04</pdfrwt>
<pdfrwt beam="2">  1       -1 0.59974090E-01 0.14288314E+04</pdfrwt>
<totfact> 0.24430418E+01</totfact>
</mgrwt>
</event>
<event>
 6    1  0.1831439E-005  0.1273777E+04  0.7818608E-02  0.9050622E-01
          2   -1    0    0  501    0  0.00000000000E+00  0.00000000000E+00  0.10041204473E+04  0.10041204473E+04  0.00000000000E+00 0.  1.
         -2   -1    0    0    0  501 -0.00000000000E+00 -0.00000000000E+00 -0.40396258966E+03  0.40396258966E+03  0.00000000000E+00 0. -1.
         23    2    1    2    0    0 -0.46768260089E+03  0.18917204508E+03  0.72535980744E+03  0.88828634008E+03  0.91611647155E+02 0.  0.
         11    1    3    3    0    0 -0.27617373273E+03  0.11406959005E+03  0.50541589084E+03  0.58713629145E+03  0.00000000000E+00 0.  1.
        -11    1    3    3    0    0 -0.19150886817E+03  0.75102455022E+02  0.21994391660E+03  0.30115004863E+03  0.00000000000E+00 0. -1.
         22    1    1    2    0    0  0.46768260089E+03 -0.18917204508E+03 -0.12520194984E+03  0.51979669685E+03  0.00000000000E+00 0. -1.
<mgrwt>
<rscale>  0 0.12737772E+04</rscale>
<asrwt>0</asrwt>
<pdfrwt beam="1">  1        2 0.15448007E+00 0.12737772E+04</pdfrwt>
<pdfrwt beam="2">  1       -2 0.62148091E-01 0.12737772E+04</pdfrwt>
<totfact> 0.59092018E+01</totfact>
</mgrwt>
</event>
<event>
 6    1  0.1831439E-005  0.3648485E+04  0.7818608E-02  0.8079475E-01
         -2   -1    0    0    0  501 -0.00000000000E+00  0.00000000000E+00  0.87941311935E+03  0.87941311935E+03  0.00000000000E+00 0.  1.
          2   -1    0    0  501    0  0.00000000000E+00 -0.00000000000E+00 -0.37841829965E+04  0.37841829965E+04  0.00000000000E+00 0. -1.
         23    2    1    2    0    0  0.75853831432E+03 -0.98850782437E+03 -0.31544014241E+04  0.33928309911E+04  0.92334696952E+02 0.  0.
         11    1    3    3    0    0  0.53410458893E+03 -0.75851702095E+03 -0.23788134505E+04  0.25533055468E+04  0.00000000000E+00 0.  1.
        -11    1    3    3    0    0  0.22443372539E+03 -0.22999080341E+03 -0.77558797363E+03  0.83952544428E+03  0.00000000000E+00 0. -1.
         22    1    1    2    0    0 -0.75853831432E+03  0.98850782437E+03  0.24963154698E+03  0.12707651248E+04  0.00000000000E+00 0.  1.
<mgrwt>
<rscale>  0 0.36484847E+04</rscale>
<asrwt>0</asrwt>
<pdfrwt beam="1">  1        2 0.58218200E+00 0.36484847E+04</pdfrwt>
<pdfrwt beam="2">  1       -2 0.13529433E+00 0.36484847E+04</pdfrwt>
<totfact> 0.16041612E-01</totfact>
</mgrwt>
</event>
<event>
 6    1  0.1831439E-005  0.2692568E+04  0.7818608E-02  0.8337421E-01
          2   -1    0    0  501    0  0.00000000000E+00  0.00000000000E+00  0.21849101414E+04  0.21849101414E+04  0.00000000000E+00 0. -1.
         -2   -1    0    0    0  501 -0.00000000000E+00 -0.00000000000E+00 -0.82954439560E+03  0.82954439560E+03  0.00000000000E+00 0.  1.
         23    2    1    2    0    0 -0.45576477577E+03 -0.37838338172E+03  0.20299792004E+04  0.21166801624E+04  0.92864640193E+02 0.  0.
         11    1    3    3    0    0 -0.16985540760E+03 -0.10490212701E+03  0.80535378490E+03  0.82972889222E+03  0.00000000000E+00 0. -1.
        -11    1    3    3    0    0 -0.28590936818E+03 -0.27348125471E+03  0.12246254155E+04  0.12869512702E+04  0.00000000000E+00 0.  1.
         22    1    1    2    0    0  0.45576477577E+03  0.37838338172E+03 -0.67461345466E+03  0.89777437456E+03  0.00000000000E+00 0.  1.
<mgrwt>
<rscale>  0 0.26925675E+04</rscale>
<asrwt>0</asrwt>
<pdfrwt beam="1">  1        2 0.33614002E+00 0.26925675E+04</pdfrwt>
<pdfrwt beam="2">  1       -2 0.12762222E+00 0.26925675E+04</pdfrwt>
<totfact> 0.21033451E+00</totfact>
</mgrwt>
</event>
<event>
 6    1  0.1831439E-005  0.3550480E+04  0.7818608E-02  0.8101930E-01
          1   -1    0    0  501    0  0.00000000000E+00  0.00000000000E+00  0.20712901459E+04  0.20712901459E+04  0.00000000000E+00 0. -1.
         -1   -1    0    0    0  501 -0.00000000000E+00 -0.00000000000E+00 -0.15215047797E+04  0.15215047797E+04  0.00000000000E+00 0.  1.
         23    2    1    2    0    0 -0.98809125120E+03  0.43087240435E+03 -0.11509226193E+04  0.15792450748E+04  0.86120736922E+02 0.  0.
         11    1    3    3    0    0 -0.16502182948E+03  0.49736052425E+02 -0.22042596146E+03  0.27980972749E+03  0.00000000000E+00 0. -1.
        -11    1    3    3    0    0 -0.82306942173E+03  0.38113635193E+03 -0.93049665781E+03  0.12994353473E+04  0.00000000000E+00 0.  1.
         22    1    1    2    0    0  0.98809125120E+03 -0.43087240435E+03  0.17007079855E+04  0.20135498507E+04  0.00000000000E+00 0. -1.
<mgrwt>
<rscale>  0 0.35504805E+04</rscale>
<asrwt>0</asrwt>
<pdfrwt beam="1">  1        1 0.31866002E+00 0.35504805E+04</pdfrwt>
<pdfrwt beam="2">  1       -1 0.23407766E+00 0.35504805E+04</pdfrwt>
<totfact> 0.19210028E-01</totfact>
</mgrwt>
</event>
<event>
 6    1  0.1831439E-005  0.4562164E+04  0.7818608E-02  0.7899843E-01
         -1   -1    0    0    0  501 -0.00000000000E+00  0.00000000000E+00  0.28572117335E+04  0.28572117335E+04  0.00000000000E+00 0.  1.
          1   -1    0    0  501    0  0.00000000000E+00 -0.00000000000E+00 -0.18211236123E+04  0.18211236123E+04  0.00000000000E+00 0. -1.
         23    2    1    2    0    0  0.10614820604E+04 -0.48419033615E+03  0.25272204672E+04  0.27850154786E+04  0.91013625428E+02 0.  0.
         11    1    3    3    0    0  0.25319130066E+03 -0.74034272691E+02  0.58039261853E+03  0.63752843067E+03  0.00000000000E+00 0. -1.
        -11    1    3    3    0    0  0.80829075974E+03 -0.41015606345E+03  0.19468278487E+04  0.21474870479E+04  0.00000000000E+00 0.  1.
         22    1    1    2    0    0 -0.10614820604E+04  0.48419033615E+03 -0.14911323461E+04  0.18933198672E+04  0.00000000000E+00 0. -1.
<mgrwt>
<rscale>  0 0.45621643E+04</rscale>
<asrwt>0</asrwt>
<pdfrwt beam="1">  1        1 0.28017286E+00 0.45621643E+04</pdfrwt>
<pdfrwt beam="2">  1       -1 0.43957104E+00 0.45621643E+04</pdfrwt>
<totfact> 0.11263032E-02</totfact>
</mgrwt>
</event>
<event>
 6    1  0.1831439E-005  0.1099680E+04  0.7818608E-02  0.9205503E-01
          2   -1    0    0  501    0  0.00000000000E+00  0.00000000000E+00  0.21702622313E+04  0.21702622313E+04  0.00000000000E+00 0. -1.
         -2   -1    0    0    0  501 -0.00000000000E+00 -0.00000000000E+00 -0.13930308431E+03  0.13930308431E+03  0.00000000000E+00 0.  1.
         23    2    1    2    0    0  0.43193452231E+03 -0.25813989827E+03  0.57687627343E+03  0.77087735446E+03  0.90895666164E+02 0.  0.
         11    1    3    3    0    0  0.33379826885E+03 -0.18985020982E+03  0.49262856591E+03  0.62461771541E+03  0.00000000000E+00 0. -1.
        -11    1    3    3    0    0  0.98136253461E+02 -0.68289688446E+02  0.84247707524E+02  0.14625963905E+03  0.00000000000E+00 0.  1.
         22    1    1    2    0    0 -0.43193452231E+03  0.25813989827E+03  0.14540828736E+04  0.15386879612E+04  0.00000000000E+00 0. -1.
<mgrwt>
<rscale>  0 0.10996804E+04</rscale>
<asrwt>0</asrwt>
<pdfrwt beam="1">  1        2 0.33388647E+00 0.10996804E+04</pdfrwt>
<pdfrwt beam="2">  1       -2 0.21431245E-01 0.10996804E+04</pdfrwt>
<totfact> 0.10120302E+02</totfact>
</mgrwt>
</event>
<event>
 6    1  0.1831439E-005  0.1589563E+04  0.7818608E-02  0.8826985E-01
         -2   -1    0    0    0  501 -0.00000000000E+00  0.00000000000E+00  0.54083907070E+03  0.54083907070E+03  0.00000000000E+00 0.  1.
          2   -1    0    0  501    0  0.00000000000E+00 -0.00000000000E+00 -0.11679590501E+04  0.11679590501E+04  0.00000000000E+00 0. -1.
         23    2    1    2    0    0  0.76653972364E+03  0.16394838542E+03 -0.43706436194E+03  0.90221064341E+03  0.92176827905E+02 0.  0.
         11    1    3    3    0    0  0.42128702265E+03  0.54917414215E+02 -0.20107061471E+03  0.47002986068E+03  0.00000000000E+00 0. -1.
        -11    1    3    3    0    0  0.34525270099E+03  0.10903097120E+03 -0.23599374723E+03  0.43218078272E+03  0.00000000000E+00 0.  1.
         22    1    1    2    0    0 -0.76653972364E+03 -0.16394838542E+03 -0.19005561750E+03  0.80658747743E+03  0.00000000000E+00 0. -1.
<mgrwt>
<rscale>  0 0.15895633E+04</rscale>
<asrwt>0</asrwt>
<pdfrwt beam="1">  1        2 0.17968601E+00 0.15895633E+04</pdfrwt>
<pdfrwt beam="2">  1       -2 0.83206011E-01 0.15895633E+04</pdfrwt>
<totfact> 0.24037547E+01</totfact>
</mgrwt>
</event>
<event>
 6    1  0.1831439E-005  0.3026506E+04  0.7818608E-02  0.8236202E-01
          2   -1    0    0  501    0  0.00000000000E+00  0.00000000000E+00  0.16733680276E+04  0.16733680276E+04  0.00000000000E+00 0. -1.
         -2   -1    0    0    0  501 -0.00000000000E+00 -0.00000000000E+00 -0.13684582878E+04  0.13684582878E+04  0.00000000000E+00 0.  1.
         23    2    1    2    0    0 -0.54987645111E+03 -0.11337274187E+04  0.99218210345E+03  0.16065405344E+04  0.94048873849E+02 0.  0.
         11    1    3    3    0    0 -0.38737329797E+03 -0.82574672856E+03  0.76826339532E+03  0.11925369497E+04  0.00000000000E+00 0. -1.
        -11    1    3    3    0    0 -0.16250315314E+03 -0.30798069016E+03  0.22391870814E+03  0.41400358470E+03  0.00000000000E+00 0.  1.
         22    1    1    2    0    0  0.54987645111E+03  0.11337274187E+04 -0.68727236367E+03  0.14352857811E+04  0.00000000000E+00 0.  1.
<mgrwt>
<rscale>  0 0.30265058E+04</rscale>
<asrwt>0</asrwt>
<pdfrwt beam="1">  1        2 0.25744123E+00 0.30265058E+04</pdfrwt>
<pdfrwt beam="2">  1       -2 0.21053205E+00 0.30265058E+04</pdfrwt>
<totfact> 0.98483481E-01</totfact>
</mgrwt>
</event>
<event>
 6    1  0.1831439E-005  0.2502351E+04  0.7818608E-02  0.8402148E-01
          2   -1    0    0  501    0  0.00000000000E+00  0.00000000000E+00  0.17861996913E+04  0.17861996913E+04  0.00000000000E+00 0. -1.
         -2   -1    0    0    0  501 -0.00000000000E+00 -0.00000000000E+00 -0.87640857536E+03  0.87640857536E+03  0.00000000000E+00 0.  1.
         23    2    1    2    0    0 -0.96379476144E+03 -0.79495953192E+03  0.43432835753E+03  0.13258488140E+04  0.91503857202E+02 0.  0.
         13    1    3    3    0    0 -0.44448608376E+03 -0.31311901711E+03  0.16872860390E+03  0.56928089667E+03  0.00000000000E+00 0.  1.
        -13    1    3    3    0    0 -0.51930867767E+03 -0.48184051481E+03  0.26559975363E+03  0.75656791734E+03  0.00000000000E+00 0. -1.
         22    1    1    2    0    0  0.96379476144E+03  0.79495953192E+03  0.47546275838E+03  0.13367594526E+04  0.00000000000E+00 0. -1.
<mgrwt>
<rscale>  0 0.25023515E+04</rscale>
<asrwt>0</asrwt>
<pdfrwt beam="1">  1        2 0.27479995E+00 0.25023515E+04</pdfrwt>
<pdfrwt beam="2">  1       -2 0.13483209E+00 0.25023515E+04</pdfrwt>
<totfact> 0.30997927E+00</totfact>
</mgrwt>
</event>
<event>
 6    1  0.1831439E-005  0.2014521E+04  0.7818608E-02  0.8599862E-01
         -2   -1    0    0    0  501 -0.00000000000E+00  0.00000000000E+00  0.48331720835E+03  0.48331720835E+03  0.00000000000E+00 0.  1.
          2   -1    0    0  501    0  0.00000000000E+00 -0.00000000000E+00 -0.20991873629E+04  0.20991873629E+04  0.00000000000E+00 0. -1.
         23    2    1    2    0    0 -0.74073721896E+03  0.46528793734E+03 -0.17462399275E+03  0.89657011491E+03  0.90332385698E+02 0.  0.
         11    1    3    3    0    0 -0.61906952687E+03  0.35670935224E+03 -0.16454506716E+03  0.73318737046E+03  0.00000000000E+00 0.  1.
        -11    1    3    3    0    0 -0.12166769209E+03  0.10857858510E+03 -0.10078925593E+02  0.16338274444E+03  0.00000000000E+00 0. -1.
         22    1    1    2    0    0  0.74073721896E+03 -0.46528793734E+03 -0.14412461618E+04  0.16859344564E+04  0.00000000000E+00 0. -1.
<mgrwt>
<rscale>  0 0.20145207E+04</rscale>
<asrwt>0</asrwt>
<pdfrwt beam="1">  1        2 0.32295190E+00 0.20145207E+04</pdfrwt>
<pdfrwt beam="2">  1       -2 0.74356493E-01 0.20145207E+04</pdfrwt>
<totfact> 0.88835559E+00</totfact>
</mgrwt>
</event>
<event>
 6    1  0.1831439E-005  0.1520145E+04  0.7818608E-02  0.8871166E-01
          1   -1    0    0  501    0  0.00000000000E+00  0.00000000000E+00  0.87923850741E+03  0.87923850741E+03  0.00000000000E+00 0. -1.
         -1   -1    0    0    0  501 -0.00000000000E+00 -0.00000000000E+00 -0.65705745027E+03  0.65705745027E+03  0.00000000000E+00 0.  1.
         23    2    1    2    0    0  0.15455399601E+03  0.45914709155E+03 -0.47682928466E+03  0.68581465436E+03  0.90953746897E+02 0.  0.
         13    1    3    3    0    0  0.64895328021E+02  0.20976518569E+03 -0.15425974395E+03  0.26834475089E+03  0.00000000000E+00 0.  1.
        -13    1    3    3    0    0  0.89658667991E+02  0.24938190585E+03 -0.32256954070E+03  0.41746990347E+03  0.00000000000E+00 0. -1.
         22    1    1    2    0    0 -0.15455399601E+03 -0.45914709155E+03  0.69901034179E+03  0.85048130332E+03  0.00000000000E+00 0. -1.
<mgrwt>
<rscale>  0 0.15201450E+04</rscale>
<asrwt>0</asrwt>
<pdfrwt beam="1">  1        1 0.13526746E+00 0.15201450E+04</pdfrwt>
<pdfrwt beam="2">  1       -1 0.10108576E+00 0.15201450E+04</pdfrwt>
<totfact> 0.17002827E+01</totfact>
</mgrwt>
</event>
<event>
 6    1  0.1831439E-005  0.3110305E+04  0.7818608E-02  0.8212916E-01
         -2   -1    0    0    0  501 -0.00000000000E+00  0.00000000000E+00  0.14564455749E+04  0.14564455749E+04  0.00000000000E+00 0.  1.
          2   -1    0    0  501    0  0.00000000000E+00 -0.00000000000E+00 -0.16605489370E+04  0.16605489370E+04  0.00000000000E+00 0. -1.
         23    2    1    2    0    0  0.58029501288E+03  0.30052028608E+02  0.13414012383E+04  0.14658646272E+04  0.10842691891E+03 0.  0.
         11    1    3    3    0    0  0.47369434771E+03  0.47244345467E+02  0.99483414009E+03  0.11028659617E+04  0.00000000000E+00 0.  1.
        -11    1    3    3    0    0  0.10660066517E+03 -0.17192316859E+02  0.34656709820E+03  0.36299866546E+03  0.00000000000E+00 0. -1.
         22    1    1    2    0    0 -0.58029501288E+03 -0.30052028608E+02 -0.15455046004E+04  0.16511298847E+04  0.00000000000E+00 0. -1.
<mgrwt>
<rscale>  0 0.31103049E+04</rscale>
<asrwt>0</asrwt>
<pdfrwt beam="1">  1        2 0.25546907E+00 0.31103049E+04</pdfrwt>
<pdfrwt beam="2">  1       -2 0.22406855E+00 0.31103049E+04</pdfrwt>
<totfact> 0.81526013E-01</totfact>
</mgrwt>
</event>
<event>
 6    1  0.1831439E-005  0.2324064E+04  0.7818608E-02  0.8468493E-01
          2   -1    0    0  501    0  0.00000000000E+00  0.00000000000E+00  0.12946733029E+04  0.12946733029E+04  0.00000000000E+00 0. -1.
         -2   -1    0    0    0  501 -0.00000000000E+00 -0.00000000000E+00 -0.10429801071E+04  0.10429801071E+04  0.00000000000E+00 0.  1.
         23    2    1    2    0    0  0.67672779103E+03 -0.27117639786E+03  0.10340157080E+04  0.12682958201E+04  0.88818133532E+02 0.  0.
         11    1    3    3    0    0  0.50209685377E+03 -0.16651147008E+03  0.70519712333E+03  0.88154994355E+03  0.00000000000E+00 0.  1.
        -11    1    3    3    0    0  0.17463093726E+03 -0.10466492777E+03  0.32881858469E+03  0.38674587650E+03  0.00000000000E+00 0. -1.
         22    1    1    2    0    0 -0.67672779103E+03  0.27117639786E+03 -0.78232251229E+03  0.10693575899E+04  0.00000000000E+00 0.  1.
<mgrwt>
<rscale>  0 0.23240641E+04</rscale>
<asrwt>0</asrwt>
<pdfrwt beam="1">  1        2 0.19918051E+00 0.23240641E+04</pdfrwt>
<pdfrwt beam="2">  1       -2 0.16045848E+00 0.23240641E+04</pdfrwt>
<totfact> 0.37658443E+00</totfact>
</mgrwt>
</event>
<event>
 6    1  0.1831439E-005  0.1538681E+04  0.7818608E-02  0.8859130E-01
         -1   -1    0    0    0  501 -0.00000000000E+00  0.00000000000E+00  0.53810559275E+03  0.53810559275E+03  0.00000000000E+00 0.  1.
          1   -1    0    0  501    0  0.00000000000E+00 -0.00000000000E+00 -0.10999420666E+04  0.10999420666E+04  0.00000000000E+00 0. -1.
         23    2    1    2    0    0  0.37057505143E+03 -0.24336899421E+03  0.38395675941E+03  0.59350030466E+03  0.90914698770E+02 0.  0.
         11    1    3    3    0    0  0.13127944323E+03 -0.44718637203E+02  0.15024257498E+03  0.20446730806E+03  0.00000000000E+00 0. -1.
        -11    1    3    3    0    0  0.23929560820E+03 -0.19865035700E+03  0.23371418443E+03  0.38903299660E+03  0.00000000000E+00 0.  1.
         22    1    1    2    0    0 -0.37057505143E+03  0.24336899421E+03 -0.94579323326E+03  0.10445473547E+04  0.00000000000E+00 0. -1.
<mgrwt>
<rscale>  0 0.15386812E+04</rscale>
<asrwt>0</asrwt>
<pdfrwt beam="1">  1        1 0.16922186E+00 0.15386812E+04</pdfrwt>
<pdfrwt beam="2">  1       -1 0.82785476E-01 0.15386812E+04</pdfrwt>
<totfact> 0.17727533E+01</totfact>
</mgrwt>
</event>
<event>
 6    1  0.1831439E-005  0.3423215E+04  0.7818608E-02  0.8132232E-01
         -2   -1    0    0    0  501 -0.00000000000E+00  0.00000000000E+00  0.17045269593E+04  0.17045269593E+04  0.00000000000E+00 0.  1.
          2   -1    0    0  501    0  0.00000000000E+00 -0.00000000000E+00 -0.17187171466E+04  0.17187171466E+04  0.00000000000E+00 0. -1.
         23    2    1    2    0    0  0.83739139607E+03 -0.43407571866E+03  0.14197952784E+04  0.17068640793E+04  0.88995914735E+02 0.  0.
         13    1    3    3    0    0  0.70164642612E+03 -0.33617529888E+03  0.12089834318E+04  0.14376934573E+04  0.00000000000E+00 0. -1.
        -13    1    3    3    0    0  0.13574496996E+03 -0.97900419783E+02  0.21081184661E+03  0.26917062198E+03  0.00000000000E+00 0.  1.
         22    1    1    2    0    0 -0.83739139607E+03  0.43407571866E+03 -0.14339854657E+04  0.17163800266E+04  0.00000000000E+00 0. -1.
<mgrwt>
<rscale>  0 0.34232147E+04</rscale>
<asrwt>0</asrwt>
<pdfrwt beam="1">  1        2 0.26441802E+00 0.34232147E+04</pdfrwt>
<pdfrwt beam="2">  1       -2 0.26223492E+00 0.34232147E+04</pdfrwt>
<totfact> 0.42802608E-01</totfact>
</mgrwt>
</event>
<event>
 6    1  0.1831439E-005  0.1738976E+04  0.7818608E-02  0.8739442E-01
         -2   -1    0    0    0  501 -0.00000000000E+00  0.00000000000E+00  0.49976856208E+03  0.49976856208E+03  0.00000000000E+00 0.  1.
          2   -1    0    0  501    0  0.00000000000E+00 -0.00000000000E+00 -0.15127182094E+04  0.15127182094E+04  0.00000000000E+00 0. -1.
         23    2    1    2    0    0  0.81046380879E+02  0.29722916988E+03 -0.14459091090E+04  0.14811040556E+04  0.90013202814E+02 0.  0.
         13    1    3    3    0    0  0.48503997320E+02  0.50383620095E+02 -0.39146711496E+03  0.39766524744E+03  0.00000000000E+00 0. -1.
        -13    1    3    3    0    0  0.32542383560E+02  0.24684554979E+03 -0.10544419941E+04  0.10834388082E+04  0.00000000000E+00 0.  1.
         22    1    1    2    0    0 -0.81046380879E+02 -0.29722916988E+03  0.43295946169E+03  0.53138271589E+03  0.00000000000E+00 0.  1.
<mgrwt>
<rscale>  0 0.17389756E+04</rscale>
<asrwt>0</asrwt>
<pdfrwt beam="1">  1        2 0.23272588E+00 0.17389756E+04</pdfrwt>
<pdfrwt beam="2">  1       -2 0.76887472E-01 0.17389756E+04</pdfrwt>
<totfact> 0.17894813E+01</totfact>
</mgrwt>
</event>
<event>
 6    1  0.1831439E-005  0.3703002E+04  0.7818608E-02  0.8067297E-01
         -1   -1    0    0    0  501 -0.00000000000E+00  0.00000000000E+00  0.21301369276E+04  0.21301369276E+04  0.00000000000E+00 0.  1.
          1   -1    0    0  501    0  0.00000000000E+00 -0.00000000000E+00 -0.16093126414E+04  0.16093126414E+04  0.00000000000E+00 0. -1.
         23    2    1    2    0    0  0.13436571199E+04  0.57154561435E+02  0.15439536373E+04  0.20496345587E+04  0.92346578077E+02 0.  0.
         11    1    3    3    0    0  0.48221454744E+03  0.49929226569E+02  0.50608989279E+03  0.70082150154E+03  0.00000000000E+00 0.  1.
        -11    1    3    3    0    0  0.86144257248E+03  0.72253348658E+01  0.10378637445E+04  0.13488130572E+04  0.00000000000E+00 0. -1.
         22    1    1    2    0    0 -0.13436571199E+04 -0.57154561435E+02 -0.10231293511E+04  0.16898150102E+04  0.00000000000E+00 0. -1.
<mgrwt>
<rscale>  0 0.37030022E+04</rscale>
<asrwt>0</asrwt>
<pdfrwt beam="1">  1        1 0.24758656E+00 0.37030022E+04</pdfrwt>
<pdfrwt beam="2">  1       -1 0.32771337E+00 0.37030022E+04</pdfrwt>
<totfact> 0.96082183E-02</totfact>
</mgrwt>
</event>
<event>
 6    1  0.1831439E-005  0.3114197E+04  0.7818608E-02  0.8211852E-01
          3   -1    0    0  501    0  0.00000000000E+00  0.00000000000E+00  0.16187542827E+04  0.16187542827E+04  0.00000000000E+00 0. -1.
         -3   -1    0    0    0  501 -0.00000000000E+00 -0.00000000000E+00 -0.14977910249E+04  0.14977910249E+04  0.00000000000E+00 0.  1.
         23    2    1    2    0    0 -0.88861413085E+03  0.12199369081E+04 -0.31741738510E+03  0.15449032614E+04  0.89950860568E+02 0.  0.
         11    1    3    3    0    0 -0.66746848680E+03  0.85855326150E+03 -0.25060976669E+03  0.11159897575E+04  0.00000000000E+00 0. -1.
        -11    1    3    3    0    0 -0.22114564405E+03  0.36138364659E+03 -0.66807618410E+02  0.42891350385E+03  0.00000000000E+00 0.  1.
         22    1    1    2    0    0  0.88861413085E+03 -0.12199369081E+04  0.43838064294E+03  0.15716420462E+04  0.00000000000E+00 0.  1.
<mgrwt>
<rscale>  0 0.31141969E+04</rscale>
<asrwt>0</asrwt>
<pdfrwt beam="1">  1        3 0.24903912E+00 0.31141969E+04</pdfrwt>
<pdfrwt beam="2">  1       -3 0.23042939E+00 0.31141969E+04</pdfrwt>
<totfact> 0.15667638E-02</totfact>
</mgrwt>
</event>
<event>
 6    1  0.1831439E-005  0.2929075E+03  0.7818608E-02  0.1088841E+00
         -2   -1    0    0    0  501 -0.00000000000E+00  0.00000000000E+00  0.12004168066E+02  0.12004168066E+02  0.00000000000E+00 0.  1.
          2   -1    0    0  501    0  0.00000000000E+00 -0.00000000000E+00 -0.17867709895E+04  0.17867709895E+04  0.00000000000E+00 0. -1.
         23    2    1    2    0    0  0.66157610447E+02  0.11354844325E+03 -0.10543008087E+04  0.10664218591E+04  0.91843931681E+02 0.  0.
         11    1    3    3    0    0  0.68648566295E+02  0.64621012976E+02 -0.88980529214E+03  0.89478598497E+03  0.00000000000E+00 0. -1.
        -11    1    3    3    0    0 -0.24909558482E+01  0.48927430275E+02 -0.16449551660E+03  0.17163587410E+03  0.00000000000E+00 0.  1.
         22    1    1    2    0    0 -0.66157610447E+02 -0.11354844325E+03 -0.72046601266E+03  0.73235329847E+03  0.00000000000E+00 0. -1.
<mgrwt>
<rscale>  0 0.29290749E+03</rscale>
<asrwt>0</asrwt>
<pdfrwt beam="1">  1        2 0.27488775E+00 0.29290749E+03</pdfrwt>
<pdfrwt beam="2">  1       -2 0.18467957E-02 0.29290749E+03</pdfrwt>
<totfact> 0.83682409E+03</totfact>
</mgrwt>
</event>
<event>
 6    1  0.1831439E-005  0.2976763E+04  0.7818608E-02  0.8250398E-01
         -2   -1    0    0    0  501 -0.00000000000E+00  0.00000000000E+00  0.11308743866E+04  0.11308743866E+04  0.00000000000E+00 0.  1.
          2   -1    0    0  501    0  0.00000000000E+00 -0.00000000000E+00 -0.19589088264E+04  0.19589088264E+04  0.00000000000E+00 0. -1.
         23    2    1    2    0    0  0.90710308398E+03 -0.22246620129E+03 -0.16154008412E+04  0.18681969222E+04  0.91173716830E+02 0.  0.
         11    1    3    3    0    0  0.48236403803E+03 -0.71403532069E+02 -0.83799906435E+03  0.96954420293E+03  0.00000000000E+00 0.  1.
        -11    1    3    3    0    0  0.42473904596E+03 -0.15106266923E+03 -0.77740177685E+03  0.89865271926E+03  0.00000000000E+00 0. -1.
         22    1    1    2    0    0 -0.90710308398E+03  0.22246620129E+03  0.78736640142E+03  0.12215862908E+04  0.00000000000E+00 0.  1.
<mgrwt>
<rscale>  0 0.29767632E+04</rscale>
<asrwt>0</asrwt>
<pdfrwt beam="1">  1        2 0.30137059E+00 0.29767632E+04</pdfrwt>
<pdfrwt beam="2">  1       -2 0.17398068E+00 0.29767632E+04</pdfrwt>
<totfact> 0.12065749E+00</totfact>
</mgrwt>
</event>
<event>
 6    1  0.1831439E-005  0.2046113E+04  0.7818608E-02  0.8585360E-01
         -1   -1    0    0    0  501 -0.00000000000E+00  0.00000000000E+00  0.32015021889E+03  0.32015021889E+03  0.00000000000E+00 0.  1.
          1   -1    0    0  501    0  0.00000000000E+00 -0.00000000000E+00 -0.32692281816E+04  0.32692281816E+04  0.00000000000E+00 0. -1.
         23    2    1    2    0    0 -0.24641122331E+02  0.51385531141E+03 -0.30247157666E+04  0.30694019170E+04  0.87568221667E+02 0.  0.
         13    1    3    3    0    0  0.91740851132E+01  0.38521806840E+03 -0.20831240887E+04  0.21184624360E+04  0.00000000000E+00 0. -1.
        -13    1    3    3    0    0 -0.33815207444E+02  0.12863724301E+03 -0.94159167795E+03  0.95093948101E+03  0.00000000000E+00 0.  1.
         22    1    1    2    0    0  0.24641122331E+02 -0.51385531141E+03  0.75637803908E+02  0.51997648346E+03  0.00000000000E+00 0.  1.
<mgrwt>
<rscale>  0 0.20461125E+04</rscale>
<asrwt>0</asrwt>
<pdfrwt beam="1">  1        1 0.50295821E+00 0.20461125E+04</pdfrwt>
<pdfrwt beam="2">  1       -1 0.49253877E-01 0.20461125E+04</pdfrwt>
<totfact> 0.14424055E+00</totfact>
</mgrwt>
</event>
<event>
 6    1  0.1831439E-005  0.9517216E+03  0.7818608E-02  0.9363140E-01
         -1   -1    0    0    0  501 -0.00000000000E+00  0.00000000000E+00  0.84466727806E+02  0.84466727806E+02  0.00000000000E+00 0.  1.
          1   -1    0    0  501    0  0.00000000000E+00 -0.00000000000E+00 -0.26808605973E+04  0.26808605973E+04  0.00000000000E+00 0. -1.
         23    2    1    2    0    0  0.34271267172E+03 -0.10947415271E+03 -0.42555403228E+03  0.56487687934E+03  0.92482911657E+02 0.  0.
         11    1    3    3    0    0  0.19810209909E+03 -0.83815831004E+02 -0.18848600037E+03  0.28600088728E+03  0.00000000000E+00 0. -1.
        -11    1    3    3    0    0  0.14461057263E+03 -0.25658321703E+02 -0.23706803191E+03  0.27887599205E+03  0.00000000000E+00 0.  1.
         22    1    1    2    0    0 -0.34271267172E+03  0.10947415271E+03 -0.21708398372E+04  0.22004504457E+04  0.00000000000E+00 0. -1.
<mgrwt>
<rscale>  0 0.95172164E+03</rscale>
<asrwt>0</asrwt>
<pdfrwt beam="1">  1        1 0.41244009E+00 0.95172164E+03</pdfrwt>
<pdfrwt beam="2">  1       -1 0.12994881E-01 0.95172164E+03</pdfrwt>
<totfact> 0.43059344E+01</totfact>
</mgrwt>
</event>
<event>
 6    1  0.1831439E-005  0.1526931E+04  0.7818608E-02  0.8866739E-01
          1   -1    0    0  501    0  0.00000000000E+00  0.00000000000E+00  0.14374465451E+04  0.14374465451E+04  0.00000000000E+00 0. -1.
         -1   -1    0    0    0  501 -0.00000000000E+00 -0.00000000000E+00 -0.40549661380E+03  0.40549661380E+03  0.00000000000E+00 0.  1.
         23    2    1    2    0    0  0.34866760139E+03 -0.31237373174E+03  0.12415236262E+04  0.13300420202E+04  0.92110893334E+02 0.  0.
         13    1    3    3    0    0  0.13296628386E+03 -0.14170083633E+03  0.63493969727E+03  0.66400871894E+03  0.00000000000E+00 0.  1.
        -13    1    3    3    0    0  0.21570131753E+03 -0.17067289541E+03  0.60658392888E+03  0.66603330126E+03  0.00000000000E+00 0. -1.
         22    1    1    2    0    0 -0.34866760139E+03  0.31237373174E+03 -0.20957369482E+03  0.51290113872E+03  0.00000000000E+00 0.  1.
<mgrwt>
<rscale>  0 0.15269312E+04</rscale>
<asrwt>0</asrwt>
<pdfrwt beam="1">  1        1 0.22114562E+00 0.15269312E+04</pdfrwt>
<pdfrwt beam="2">  1       -1 0.62384095E-01 0.15269312E+04</pdfrwt>
<totfact> 0.18192292E+01</totfact>
</mgrwt>
</event>
<event>
 6    1  0.1831439E-005  0.2115252E+04  0.7818608E-02  0.8554554E-01
         -1   -1    0    0    0  501 -0.00000000000E+00  0.00000000000E+00  0.26768069386E+03  0.26768069386E+03  0.00000000000E+00 0.  1.
          1   -1    0    0  501    0  0.00000000000E+00 -0.00000000000E+00 -0.41787594690E+04  0.41787594690E+04  0.00000000000E+00 0. -1.
         23    2    1    2    0    0  0.41536226521E+03 -0.55478815078E+03 -0.36330893892E+04  0.36997181247E+04  0.90884479095E+02 0.  0.
         13    1    3    3    0    0  0.17954991710E+03 -0.31338488240E+03 -0.19358034889E+04  0.19692088271E+04  0.00000000000E+00 0. -1.
        -13    1    3    3    0    0  0.23581234811E+03 -0.24140326838E+03 -0.16972859003E+04  0.17305092975E+04  0.00000000000E+00 0.  1.
         22    1    1    2    0    0 -0.41536226521E+03  0.55478815078E+03 -0.27798938593E+03  0.74672203818E+03  0.00000000000E+00 0.  1.
<mgrwt>
<rscale>  0 0.21152525E+04</rscale>
<asrwt>0</asrwt>
<pdfrwt beam="1">  1        1 0.64288607E+00 0.21152525E+04</pdfrwt>
<pdfrwt beam="2">  1       -1 0.41181645E-01 0.21152525E+04</pdfrwt>
<totfact> 0.35383241E-01</totfact>
</mgrwt>
</event>
<event>
 6    1  0.1831439E-005  0.1368593E+04  0.7818608E-02  0.8976871E-01
         -1   -1    0    0    0  501 -0.00000000000E+00  0.00000000000E+00  0.59741192337E+03  0.59741192337E+03  0.00000000000E+00 0.  1.
          1   -1    0    0  501    0  0.00000000000E+00 -0.00000000000E+00 -0.78381761332E+03  0.78381761332E+03  0.00000000000E+00 0. -1.
         23    2    1    2    0    0  0.49304034399E+03 -0.46923763387E+03 -0.12309333130E+03  0.69764984668E+03  0.91052745818E+02 0.  0.
         11    1    3    3    0    0  0.20929069896E+03 -0.14053580516E+03 -0.56332345882E+02  0.25831423189E+03  0.00000000000E+00 0. -1.
        -11    1    3    3    0    0  0.28374964503E+03 -0.32870182871E+03 -0.66760985417E+02  0.43933561479E+03  0.00000000000E+00 0.  1.
         22    1    1    2    0    0 -0.49304034399E+03  0.46923763387E+03 -0.63312358647E+02  0.68357969001E+03  0.00000000000E+00 0.  1.
<mgrwt>
<rscale>  0 0.13685934E+04</rscale>
<asrwt>0</asrwt>
<pdfrwt beam="1">  1        1 0.12058732E+00 0.13685934E+04</pdfrwt>
<pdfrwt beam="2">  1       -1 0.91909528E-01 0.13685934E+04</pdfrwt>
<totfact> 0.25756901E+01</totfact>
</mgrwt>
</event>
<event>
 6    1  0.1831439E-005  0.4247858E+04  0.7818608E-02  0.7956331E-01
          1   -1    0    0  501    0  0.00000000000E+00  0.00000000000E+00  0.18441273912E+04  0.18441273912E+04  0.00000000000E+00 0. -1.
         -1   -1    0    0    0  501 -0.00000000000E+00 -0.00000000000E+00 -0.24461831524E+04  0.24461831524E+04  0.00000000000E+00 0.  1.
         23    2    1    2    0    0 -0.14288282077E+04  0.15464506190E+04 -0.57553719347E+03  0.21846603357E+04  0.91859442377E+02 0.  0.
         11    1    3    3    0    0 -0.98454994160E+03  0.11267135045E+04 -0.40438312696E+03  0.15499508451E+04  0.00000000000E+00 0.  1.
        -11    1    3    3    0    0 -0.44427826606E+03  0.41973711447E+03 -0.17115406651E+03  0.63470949058E+03  0.00000000000E+00 0. -1.
         22    1    1    2    0    0  0.14288282077E+04 -0.15464506190E+04 -0.26518567720E+02  0.21056502080E+04  0.00000000000E+00 0. -1.
<mgrwt>
<rscale>  0 0.42478575E+04</rscale>
<asrwt>0</asrwt>
<pdfrwt beam="1">  1        1 0.28371191E+00 0.42478575E+04</pdfrwt>
<pdfrwt beam="2">  1       -1 0.37633587E+00 0.42478575E+04</pdfrwt>
<totfact> 0.30193684E-02</totfact>
</mgrwt>
</event>
<event>
 6    1  0.1831439E-005  0.2405765E+04  0.7818608E-02  0.8437348E-01
          2   -1    0    0  501    0  0.00000000000E+00  0.00000000000E+00  0.93284023880E+03  0.93284023880E+03  0.00000000000E+00 0. -1.
         -2   -1    0    0    0  501 -0.00000000000E+00 -0.00000000000E+00 -0.15510976831E+04  0.15510976831E+04  0.00000000000E+00 0.  1.
         23    2    1    2    0    0 -0.94554602909E+03 -0.63798917688E+03 -0.69755650835E+03  0.13405325587E+04  0.96721123223E+02 0.  0.
         11    1    3    3    0    0 -0.61669291051E+03 -0.46901408347E+03 -0.45933037869E+03  0.90070458706E+03  0.00000000000E+00 0. -1.
        -11    1    3    3    0    0 -0.32885311858E+03 -0.16897509342E+03 -0.23822612966E+03  0.43982797165E+03  0.00000000000E+00 0.  1.
         22    1    1    2    0    0  0.94554602909E+03  0.63798917688E+03  0.79299064071E+02  0.11434053632E+04  0.00000000000E+00 0. -1.
<mgrwt>
<rscale>  0 0.24057650E+04</rscale>
<asrwt>0</asrwt>
<pdfrwt beam="1">  1        2 0.14351388E+00 0.24057650E+04</pdfrwt>
<pdfrwt beam="2">  1       -2 0.23863041E+00 0.24057650E+04</pdfrwt>
<totfact> 0.18918424E+00</totfact>
</mgrwt>
</event>
<event>
 6    1  0.1831439E-005  0.3917682E+04  0.7818608E-02  0.8021362E-01
         -1   -1    0    0    0  501 -0.00000000000E+00  0.00000000000E+00  0.14332617629E+04  0.14332617629E+04  0.00000000000E+00 0.  1.
          1   -1    0    0  501    0  0.00000000000E+00 -0.00000000000E+00 -0.26771502714E+04  0.26771502714E+04  0.00000000000E+00 0. -1.
         23    2    1    2    0    0  0.56583851823E+03 -0.95410614044E+03  0.10704458580E+04  0.15439679347E+04  0.86549941698E+02 0.  0.
         11    1    3    3    0    0  0.42510028787E+03 -0.72654258822E+03  0.75964191896E+03  0.11338563543E+04  0.00000000000E+00 0. -1.
        -11    1    3    3    0    0  0.14073823036E+03 -0.22756355222E+03  0.31080393908E+03  0.41011158034E+03  0.00000000000E+00 0.  1.
         22    1    1    2    0    0 -0.56583851823E+03  0.95410614044E+03 -0.23143343666E+04  0.25664440996E+04  0.00000000000E+00 0. -1.
<mgrwt>
<rscale>  0 0.39176815E+04</rscale>
<asrwt>0</asrwt>
<pdfrwt beam="1">  1        1 0.41186927E+00 0.39176815E+04</pdfrwt>
<pdfrwt beam="2">  1       -1 0.22050181E+00 0.39176815E+04</pdfrwt>
<totfact> 0.87622000E-02</totfact>
</mgrwt>
</event>
<event>
 6    1  0.1831439E-005  0.3690107E+04  0.7818608E-02  0.8070158E-01
          1   -1    0    0  501    0  0.00000000000E+00  0.00000000000E+00  0.14017499846E+04  0.14017499846E+04  0.00000000000E+00 0. -1.
         -1   -1    0    0    0  501 -0.00000000000E+00 -0.00000000000E+00 -0.24285520603E+04  0.24285520603E+04  0.00000000000E+00 0.  1.
         23    2    1    2    0    0 -0.45493361335E+03 -0.14793078588E+04 -0.15542045157E+04  0.21952272248E+04  0.90302591780E+02 0.  0.
         11    1    3    3    0    0 -0.19360578712E+03 -0.77945908893E+03 -0.81895996566E+03  0.11470549671E+04  0.00000000000E+00 0.  1.
        -11    1    3    3    0    0 -0.26132782623E+03 -0.69984876990E+03 -0.73524455003E+03  0.10481722577E+04  0.00000000000E+00 0. -1.
         22    1    1    2    0    0  0.45493361335E+03  0.14793078588E+04  0.52740243999E+03  0.16350748201E+04  0.00000000000E+00 0. -1.
<mgrwt>
<rscale>  0 0.36901072E+04</rscale>
<asrwt>0</asrwt>
<pdfrwt beam="1">  1        1 0.21565384E+00 0.36901072E+04</pdfrwt>
<pdfrwt beam="2">  1       -1 0.37362339E+00 0.36901072E+04</pdfrwt>
<totfact> 0.66414402E-02</totfact>
</mgrwt>
</event>
<event>
 6    1  0.1831439E-005  0.1856105E+04  0.7818608E-02  0.8677019E-01
          1   -1    0    0  501    0  0.00000000000E+00  0.00000000000E+00  0.19275587207E+04  0.19275587207E+04  0.00000000000E+00 0. -1.
         -1   -1    0    0    0  501 -0.00000000000E+00 -0.00000000000E+00 -0.44682514124E+03  0.44682514124E+03  0.00000000000E+00 0.  1.
         23    2    1    2    0    0 -0.55491318646E+02  0.44537840313E+03 -0.29352258821E+03  0.54424010886E+03  0.92739300617E+02 0.  0.
         13    1    3    3    0    0 -0.10332427955E+02  0.26317679091E+03 -0.12319437632E+03  0.29076732398E+03  0.00000000000E+00 0. -1.
        -13    1    3    3    0    0 -0.45158890691E+02  0.18220161222E+03 -0.17032821190E+03  0.25347278487E+03  0.00000000000E+00 0.  1.
         22    1    1    2    0    0  0.55491318646E+02 -0.44537840313E+03  0.17742561677E+04  0.18301437531E+04  0.00000000000E+00 0. -1.
<mgrwt>
<rscale>  0 0.18561053E+04</rscale>
<asrwt>0</asrwt>
<pdfrwt beam="1">  1        1 0.29654749E+00 0.18561053E+04</pdfrwt>
<pdfrwt beam="2">  1       -1 0.68742330E-01 0.18561053E+04</pdfrwt>
<totfact> 0.67112898E+00</totfact>
</mgrwt>
</event>
<event>
 6    1  0.1831439E-005  0.2875593E+04  0.7818608E-02  0.8280176E-01
          1   -1    0    0  501    0  0.00000000000E+00  0.00000000000E+00  0.15201139917E+04  0.15201139917E+04  0.00000000000E+00 0. -1.
         -1   -1    0    0    0  501 -0.00000000000E+00 -0.00000000000E+00 -0.13599370805E+04  0.13599370805E+04  0.00000000000E+00 0.  1.
         23    2    1    2    0    0  0.86409311997E+03 -0.22164506870E+03 -0.10472513089E+04  0.13788294485E+04  0.93015523772E+02 0.  0.
         13    1    3    3    0    0  0.61710570517E+03 -0.13882928357E+03 -0.68165448820E+03  0.92991712675E+03  0.00000000000E+00 0.  1.
        -13    1    3    3    0    0  0.24698741479E+03 -0.82815785130E+02 -0.36559682073E+03  0.44891232179E+03  0.00000000000E+00 0. -1.
         22    1    1    2    0    0 -0.86409311997E+03  0.22164506870E+03  0.12074282201E+04  0.15012216236E+04  0.00000000000E+00 0. -1.
<mgrwt>
<rscale>  0 0.28755934E+04</rscale>
<asrwt>0</asrwt>
<pdfrwt beam="1">  1        1 0.23386369E+00 0.28755934E+04</pdfrwt>
<pdfrwt beam="2">  1       -1 0.20922109E+00 0.28755934E+04</pdfrwt>
<totfact> 0.70914818E-01</totfact>
</mgrwt>
</event>
<event>
 6    1  0.1831439E-005  0.2219797E+04  0.7818608E-02  0.8510233E-01
          2   -1    0    0  501    0  0.00000000000E+00  0.00000000000E+00  0.16856675825E+04  0.16856675825E+04  0.00000000000E+00 0. -1.
         -2   -1    0    0    0  501 -0.00000000000E+00 -0.00000000000E+00 -0.73079367825E+03  0.73079367825E+03  0.00000000000E+00 0.  1.
         23    2    1    2    0    0 -0.19824622590E+03  0.56697621023E+03 -0.53536698653E+03  0.80973119579E+03  0.91012142711E+02 0.  0.
         11    1    3    3    0    0 -0.14852264810E+03  0.29670770037E+03 -0.31448743001E+03  0.45716165641E+03  0.00000000000E+00 0. -1.
        -11    1    3    3    0    0 -0.49723577805E+02  0.27026850986E+03 -0.22087955653E+03  0.35256953939E+03  0.00000000000E+00 0.  1.
         22    1    1    2    0    0  0.19824622590E+03 -0.56697621023E+03  0.14902408907E+04  0.16067300649E+04  0.00000000000E+00 0. -1.
<mgrwt>
<rscale>  0 0.22197975E+04</rscale>
<asrwt>0</asrwt>
<pdfrwt beam="1">  1        2 0.25933347E+00 0.22197975E+04</pdfrwt>
<pdfrwt beam="2">  1       -2 0.11242980E+00 0.22197975E+04</pdfrwt>
<totfact> 0.56799717E+00</totfact>
</mgrwt>
</event>
<event>
 6    1  0.1831439E-005  0.2731511E+04  0.7818608E-02  0.8324853E-01
         -1   -1    0    0    0  501 -0.00000000000E+00  0.00000000000E+00  0.85286454310E+03  0.85286454310E+03  0.00000000000E+00 0.  1.
          1   -1    0    0  501    0  0.00000000000E+00 -0.00000000000E+00 -0.21870860608E+04  0.21870860608E+04  0.00000000000E+00 0. -1.
         23    2    1    2    0    0 -0.28969172205E+03  0.11943896578E+04 -0.85573661885E+01  0.12322245762E+04  0.88409441548E+02 0.  0.
         11    1    3    3    0    0 -0.18026226813E+03  0.56922400739E+03 -0.20589072550E+02  0.59743984284E+03  0.00000000000E+00 0.  1.
        -11    1    3    3    0    0 -0.10942945392E+03  0.62516565038E+03  0.12031706361E+02  0.63478473340E+03  0.00000000000E+00 0. -1.
         22    1    1    2    0    0  0.28969172205E+03 -0.11943896578E+04 -0.13256641515E+04  0.18077260276E+04  0.00000000000E+00 0. -1.
<mgrwt>
<rscale>  0 0.27315110E+04</rscale>
<asrwt>0</asrwt>
<pdfrwt beam="1">  1        1 0.33647478E+00 0.27315110E+04</pdfrwt>
<pdfrwt beam="2">  1       -1 0.13120993E+00 0.27315110E+04</pdfrwt>
<totfact> 0.95879346E-01</totfact>
</mgrwt>
</event>
<event>
 6    1  0.1831439E-005  0.8471540E+03  0.7818608E-02  0.9494165E-01
          2   -1    0    0  501    0  0.00000000000E+00  0.00000000000E+00  0.39510028931E+03  0.39510028931E+03  0.00000000000E+00 0. -1.
         -2   -1    0    0    0  501 -0.00000000000E+00 -0.00000000000E+00 -0.45410617580E+03  0.45410617580E+03  0.00000000000E+00 0.  1.
         23    2    1    2    0    0  0.13019069941E+03 -0.38460451121E+03  0.72122697111E+02  0.42251576485E+03  0.91911043106E+02 0.  0.
         11    1    3    3    0    0  0.12792813151E+02 -0.10395617028E+03  0.53803742276E+02  0.11775136556E+03  0.00000000000E+00 0. -1.
        -11    1    3    3    0    0  0.11739788626E+03 -0.28064834093E+03  0.18318954835E+02  0.30476439929E+03  0.00000000000E+00 0.  1.
         22    1    1    2    0    0 -0.13019069941E+03  0.38460451121E+03 -0.13112858360E+03  0.42669070027E+03  0.00000000000E+00 0.  1.
<mgrwt>
<rscale>  0 0.84715402E+03</rscale>
<asrwt>0</asrwt>
<pdfrwt beam="1">  1        2 0.60784660E-01 0.84715402E+03</pdfrwt>
<pdfrwt beam="2">  1       -2 0.69862488E-01 0.84715402E+03</pdfrwt>
<totfact> 0.15146740E+02</totfact>
</mgrwt>
</event>
<event>
 6    1  0.1831439E-005  0.2881505E+04  0.7818608E-02  0.8278402E-01
          2   -1    0    0  501    0  0.00000000000E+00  0.00000000000E+00  0.12838776643E+04  0.12838776643E+04  0.00000000000E+00 0. -1.
         -2   -1    0    0    0  501 -0.00000000000E+00 -0.00000000000E+00 -0.16167956176E+04  0.16167956176E+04  0.00000000000E+00 0.  1.
         23    2    1    2    0    0  0.52315126222E+03 -0.42216654968E+03 -0.14477673653E+04  0.15988280337E+04  0.91153159455E+02 0.  0.
         13    1    3    3    0    0  0.15706581371E+03 -0.78721095874E+02 -0.40876717354E+03  0.44492390691E+03  0.00000000000E+00 0.  1.
        -13    1    3    3    0    0  0.36608544851E+03 -0.34344545380E+03 -0.10390001917E+04  0.11539041268E+04  0.00000000000E+00 0. -1.
         22    1    1    2    0    0 -0.52315126222E+03  0.42216654968E+03  0.11148494120E+04  0.13018452482E+04  0.00000000000E+00 0. -1.
<mgrwt>
<rscale>  0 0.28815050E+04</rscale>
<asrwt>0</asrwt>
<pdfrwt beam="1">  1        2 0.19751964E+00 0.28815050E+04</pdfrwt>
<pdfrwt beam="2">  1       -2 0.24873779E+00 0.28815050E+04</pdfrwt>
<totfact> 0.95536023E-01</totfact>
</mgrwt>
</event>
<event>
 6    1  0.1831439E-005  0.1345802E+04  0.7818608E-02  0.8994012E-01
          2   -1    0    0  501    0  0.00000000000E+00  0.00000000000E+00  0.98127639898E+03  0.98127639898E+03  0.00000000000E+00 0. -1.
         -2   -1    0    0    0  501 -0.00000000000E+00 -0.00000000000E+00 -0.46143537118E+03  0.46143537118E+03  0.00000000000E+00 0.  1.
         23    2    1    2    0    0  0.37062381882E+03  0.37256461832E+03 -0.18427114346E+03  0.56411040456E+03  0.89990467956E+02 0.  0.
         11    1    3    3    0    0  0.85090113086E+02  0.10675566342E+03 -0.87590707491E+02  0.16220120547E+03  0.00000000000E+00 0. -1.
        -11    1    3    3    0    0  0.28553370574E+03  0.26580895490E+03 -0.96680435965E+02  0.40190919910E+03  0.00000000000E+00 0.  1.
         22    1    1    2    0    0 -0.37062381882E+03 -0.37256461832E+03  0.70411217126E+03  0.87860136560E+03  0.00000000000E+00 0. -1.
<mgrwt>
<rscale>  0 0.13458018E+04</rscale>
<asrwt>0</asrwt>
<pdfrwt beam="1">  1        2 0.15096560E+00 0.13458018E+04</pdfrwt>
<pdfrwt beam="2">  1       -2 0.70990058E-01 0.13458018E+04</pdfrwt>
<totfact> 0.45629306E+01</totfact>
</mgrwt>
</event>
<event>
 6    1  0.1831439E-005  0.3060703E+04  0.7818608E-02  0.8226606E-01
          1   -1    0    0  501    0  0.00000000000E+00  0.00000000000E+00  0.21686363240E+04  0.21686363240E+04  0.00000000000E+00 0. -1.
         -1   -1    0    0    0  501 -0.00000000000E+00 -0.00000000000E+00 -0.10799304031E+04  0.10799304031E+04  0.00000000000E+00 0.  1.
         23    2    1    2    0    0 -0.42176577614E+03 -0.55331220307E+03  0.19899370035E+04  0.21100333600E+04  0.91382375154E+02 0.  0.
         11    1    3    3    0    0 -0.15069495225E+03 -0.13164706427E+03  0.53902399295E+03  0.57496676699E+03  0.00000000000E+00 0.  1.
        -11    1    3    3    0    0 -0.27107082388E+03 -0.42166513881E+03  0.14509130105E+04  0.15350665930E+04  0.00000000000E+00 0. -1.
         22    1    1    2    0    0  0.42176577614E+03  0.55331220307E+03 -0.90123108250E+03  0.11385333671E+04  0.00000000000E+00 0.  1.
<mgrwt>
<rscale>  0 0.30607034E+04</rscale>
<asrwt>0</asrwt>
<pdfrwt beam="1">  1        1 0.33363636E+00 0.30607034E+04</pdfrwt>
<pdfrwt beam="2">  1       -1 0.16614314E+00 0.30607034E+04</pdfrwt>
<totfact> 0.50910295E-01</totfact>
</mgrwt>
</event>
<event>
 6    1  0.1831439E-005  0.2819348E+04  0.7818608E-02  0.8297287E-01
          2   -1    0    0  501    0  0.00000000000E+00  0.00000000000E+00  0.26129478445E+04  0.26129478445E+04  0.00000000000E+00 0. -1.
         -2   -1    0    0    0  501 -0.00000000000E+00 -0.00000000000E+00 -0.76051289569E+03  0.76051289569E+03  0.00000000000E+00 0.  1.
         23    2    1    2    0    0  0.12093870552E+04  0.83729323244E+02  0.17844075173E+04  0.21592715538E+04  0.93358483464E+02 0.  0.
         11    1    3    3    0    0  0.45668218608E+02  0.30562855115E+01  0.40089997791E+02  0.60845172321E+02  0.00000000000E+00 0. -1.
        -11    1    3    3    0    0  0.11637188366E+04  0.80673037732E+02  0.17443175195E+04  0.20984263815E+04  0.00000000000E+00 0.  1.
         22    1    1    2    0    0 -0.12093870552E+04 -0.83729323244E+02  0.68027431525E+02  0.12141891864E+04  0.00000000000E+00 0. -1.
<mgrwt>
<rscale>  0 0.28193478E+04</rscale>
<asrwt>0</asrwt>
<pdfrwt beam="1">  1        2 0.40199197E+00 0.28193478E+04</pdfrwt>
<pdfrwt beam="2">  1       -2 0.11700199E+00 0.28193478E+04</pdfrwt>
<totfact> 0.14680711E+00</totfact>
</mgrwt>
</event>
<event>
 6    1  0.1831439E-005  0.2576864E+04  0.7818608E-02  0.8376103E-01
          1   -1    0    0  501    0  0.00000000000E+00  0.00000000000E+00  0.16536662681E+04  0.16536662681E+04  0.00000000000E+00 0. -1.
         -1   -1    0    0    0  501 -0.00000000000E+00 -0.00000000000E+00 -0.10038646346E+04  0.10038646346E+04  0.00000000000E+00 0.  1.
         23    2    1    2    0    0 -0.12504219596E+04  0.10480135425E+03  0.61919447877E+03  0.14023515534E+04  0.93003633946E+02 0.  0.
         13    1    3    3    0    0 -0.17395320506E+03  0.87440598907E+01  0.51774189849E+02  0.18170509864E+03  0.00000000000E+00 0. -1.
        -13    1    3    3    0    0 -0.10764687546E+04  0.96057294361E+02  0.56742028892E+03  0.12206464548E+04  0.00000000000E+00 0.  1.
         22    1    1    2    0    0  0.12504219596E+04 -0.10480135425E+03  0.30607154767E+02  0.12551793493E+04  0.00000000000E+00 0. -1.
<mgrwt>
<rscale>  0 0.25768641E+04</rscale>
<asrwt>0</asrwt>
<pdfrwt beam="1">  1        1 0.25441019E+00 0.25768641E+04</pdfrwt>
<pdfrwt beam="2">  1       -1 0.15444071E+00 0.25768641E+04</pdfrwt>
<totfact> 0.14582084E+00</totfact>
</mgrwt>
</event>
<event>
 6    1  0.1831439E-005  0.2718306E+04  0.7818608E-02  0.8329090E-01
          1   -1    0    0  501    0  0.00000000000E+00  0.00000000000E+00  0.11431681315E+04  0.11431681315E+04  0.00000000000E+00 0. -1.
         -1   -1    0    0    0  501 -0.00000000000E+00 -0.00000000000E+00 -0.16159445645E+04  0.16159445645E+04  0.00000000000E+00 0.  1.
         23    2    1    2    0    0  0.52442029060E+03 -0.10176281091E+04 -0.97750101494E+03  0.15079810030E+04  0.88965507711E+02 0.  0.
         11    1    3    3    0    0  0.77123776155E+02 -0.91401151567E+02 -0.96110283911E+02  0.15342566288E+03  0.00000000000E+00 0. -1.
        -11    1    3    3    0    0  0.44729651444E+03 -0.92622695754E+03 -0.88139073103E+03  0.13545553401E+04  0.00000000000E+00 0.  1.
         22    1    1    2    0    0 -0.52442029060E+03  0.10176281091E+04  0.50472458197E+03  0.12511316930E+04  0.00000000000E+00 0. -1.
<mgrwt>
<rscale>  0 0.27183056E+04</rscale>
<asrwt>0</asrwt>
<pdfrwt beam="1">  1        1 0.17587202E+00 0.27183056E+04</pdfrwt>
<pdfrwt beam="2">  1       -1 0.24860686E+00 0.27183056E+04</pdfrwt>
<totfact> 0.73046825E-01</totfact>
</mgrwt>
</event>
<event>
 6    1  0.1831439E-005  0.1873700E+04  0.7818608E-02  0.8668059E-01
         -2   -1    0    0    0  501 -0.00000000000E+00  0.00000000000E+00  0.11148235474E+04  0.11148235474E+04  0.00000000000E+00 0. -1.
          2   -1    0    0  501    0  0.00000000000E+00 -0.00000000000E+00 -0.78728870065E+03  0.78728870065E+03  0.00000000000E+00 0.  1.
         23    2    1    2    0    0 -0.56174844165E+03 -0.74147524953E+03  0.72130668844E+02  0.93744746096E+03  0.90873820822E+02 0.  0.
         11    1    3    3    0    0 -0.11365890213E+03 -0.18458736114E+03  0.49275313656E+02  0.22230361324E+03  0.00000000000E+00 0. -1.
        -11    1    3    3    0    0 -0.44808953952E+03 -0.55688788839E+03  0.22855355187E+02  0.71514384771E+03  0.00000000000E+00 0.  1.
         22    1    1    2    0    0  0.56174844165E+03  0.74147524953E+03  0.25540417791E+03  0.96466478709E+03  0.00000000000E+00 0. -1.
<mgrwt>
<rscale>  0 0.18737001E+04</rscale>
<asrwt>0</asrwt>
<pdfrwt beam="1">  1        2 0.12112134E+00 0.18737001E+04</pdfrwt>
<pdfrwt beam="2">  1       -2 0.17151132E+00 0.18737001E+04</pdfrwt>
<totfact> 0.68631524E+00</totfact>
</mgrwt>
</event>
<event>
 6    1  0.1831439E-005  0.3828390E+04  0.7818608E-02  0.8040090E-01
          2   -1    0    0  501    0  0.00000000000E+00  0.00000000000E+00  0.24748740903E+04  0.24748740903E+04  0.00000000000E+00 0. -1.
         -2   -1    0    0    0  501 -0.00000000000E+00 -0.00000000000E+00 -0.14805370542E+04  0.14805370542E+04  0.00000000000E+00 0.  1.
         23    2    1    2    0    0 -0.38378740495E+03  0.16590334151E+04 -0.40342544866E+03  0.17523622098E+04  0.91304859343E+02 0.  0.
         13    1    3    3    0    0 -0.74507136947E+02  0.50014595535E+03 -0.10804759814E+03  0.51707985223E+03  0.00000000000E+00 0.  1.
        -13    1    3    3    0    0 -0.30928026801E+03  0.11588874597E+04 -0.29537785052E+03  0.12352823576E+04  0.00000000000E+00 0. -1.
         22    1    1    2    0    0  0.38378740495E+03 -0.16590334151E+04  0.13977624848E+04  0.22030489346E+04  0.00000000000E+00 0. -1.
<mgrwt>
<rscale>  0 0.38283902E+04</rscale>
<asrwt>0</asrwt>
<pdfrwt beam="1">  1        2 0.38074986E+00 0.38283902E+04</pdfrwt>
<pdfrwt beam="2">  1       -2 0.22777493E+00 0.38283902E+04</pdfrwt>
<totfact> 0.25423643E-01</totfact>
</mgrwt>
</event>
<event>
 6    1  0.1831439E-005  0.1353121E+04  0.7818608E-02  0.8988469E-01
          1   -1    0    0  501    0  0.00000000000E+00  0.00000000000E+00  0.90983979815E+03  0.90983979815E+03  0.00000000000E+00 0. -1.
         -1   -1    0    0    0  501 -0.00000000000E+00 -0.00000000000E+00 -0.50309342229E+03  0.50309342229E+03  0.00000000000E+00 0.  1.
         23    2    1    2    0    0 -0.41366864030E+03  0.33883861102E+03 -0.22350218379E+03  0.58640639376E+03  0.89363774544E+02 0.  0.
         13    1    3    3    0    0 -0.24618195803E+03  0.17137894745E+03 -0.83861856949E+02  0.31146285676E+03  0.00000000000E+00 0.  1.
        -13    1    3    3    0    0 -0.16748668227E+03  0.16745966357E+03 -0.13964032684E+03  0.27494353700E+03  0.00000000000E+00 0. -1.
         22    1    1    2    0    0  0.41366864030E+03 -0.33883861102E+03  0.63024855965E+03  0.82652682668E+03  0.00000000000E+00 0. -1.
<mgrwt>
<rscale>  0 0.13531215E+04</rscale>
<asrwt>0</asrwt>
<pdfrwt beam="1">  1        1 0.13997535E+00 0.13531215E+04</pdfrwt>
<pdfrwt beam="2">  1       -1 0.77398988E-01 0.13531215E+04</pdfrwt>
<totfact> 0.29257211E+01</totfact>
</mgrwt>
</event>
<event>
 6    1  0.1831439E-005  0.5611511E+04  0.7818608E-02  0.7740529E-01
         -1   -1    0    0    0  501 -0.00000000000E+00  0.00000000000E+00  0.20603401947E+04  0.20603401947E+04  0.00000000000E+00 0.  1.
          1   -1    0    0  501    0  0.00000000000E+00 -0.00000000000E+00 -0.38208569159E+04  0.38208569159E+04  0.00000000000E+00 0. -1.
         23    2    1    2    0    0 -0.20950621365E+04 -0.12200612997E+04  0.59638326967E+03  0.24999528873E+04  0.12750099511E+03 0.  0.
         11    1    3    3    0    0 -0.15610113610E+04 -0.97098698718E+03  0.46294624117E+03  0.18957561607E+04  0.00000000000E+00 0.  1.
        -11    1    3    3    0    0 -0.53405077545E+03 -0.24907431256E+03  0.13343702850E+03  0.60419672666E+03  0.00000000000E+00 0. -1.
         22    1    1    2    0    0  0.20950621365E+04  0.12200612997E+04 -0.23568999909E+04  0.33812442233E+04  0.00000000000E+00 0. -1.
<mgrwt>
<rscale>  0 0.56115114E+04</rscale>
<asrwt>0</asrwt>
<pdfrwt beam="1">  1        1 0.58782414E+00 0.56115114E+04</pdfrwt>
<pdfrwt beam="2">  1       -1 0.31697541E+00 0.56115114E+04</pdfrwt>
<totfact> 0.24065896E-03</totfact>
</mgrwt>
</event>
<event>
 6    1  0.1831439E-005  0.2502630E+04  0.7818608E-02  0.8402049E-01
         -1   -1    0    0    0  501 -0.00000000000E+00  0.00000000000E+00  0.69680488054E+03  0.69680488054E+03  0.00000000000E+00 0.  1.
          1   -1    0    0  501    0  0.00000000000E+00 -0.00000000000E+00 -0.22470983138E+04  0.22470983138E+04  0.00000000000E+00 0. -1.
         23    2    1    2    0    0 -0.83653407350E+03  0.10145068366E+02 -0.18680950406E+04  0.20489785941E+04  0.92962465720E+02 0.  0.
         13    1    3    3    0    0 -0.61558867402E+03 -0.33447057269E+02 -0.13774372725E+04  0.15091062126E+04  0.00000000000E+00 0. -1.
        -13    1    3    3    0    0 -0.22094539948E+03  0.43592125635E+02 -0.49065776808E+03  0.53987238153E+03  0.00000000000E+00 0.  1.
         22    1    1    2    0    0  0.83653407350E+03 -0.10145068366E+02  0.31780160728E+03  0.89492460025E+03  0.00000000000E+00 0.  1.
<mgrwt>
<rscale>  0 0.25026299E+04</rscale>
<asrwt>0</asrwt>
<pdfrwt beam="1">  1        1 0.34570743E+00 0.25026299E+04</pdfrwt>
<pdfrwt beam="2">  1       -1 0.10720075E+00 0.25026299E+04</pdfrwt>
<totfact> 0.14568383E+00</totfact>
</mgrwt>
</event>
<event>
 6    1  0.1831439E-005  0.4866303E+04  0.7818608E-02  0.7849469E-01
         -2   -1    0    0    0  501 -0.00000000000E+00  0.00000000000E+00  0.24987560381E+04  0.24987560381E+04  0.00000000000E+00 0.  1.
          2   -1    0    0  501    0  0.00000000000E+00 -0.00000000000E+00 -0.23692696641E+04  0.23692696641E+04  0.00000000000E+00 0. -1.
         23    2    1    2    0    0  0.97927286242E+03  0.14030929143E+04  0.17941504878E+04  0.24808198717E+04  0.88578766877E+02 0.  0.
         11    1    3    3    0    0  0.36434974208E+03  0.55889351909E+03  0.75434524700E+03  0.10070498756E+04  0.00000000000E+00 0. -1.
        -11    1    3    3    0    0  0.61492312033E+03  0.84419939518E+03  0.10398052408E+04  0.14737699961E+04  0.00000000000E+00 0.  1.
         22    1    1    2    0    0 -0.97927286242E+03 -0.14030929143E+04 -0.16646641138E+04  0.23872058304E+04  0.00000000000E+00 0. -1.
<mgrwt>
<rscale>  0 0.48663033E+04</rscale>
<asrwt>0</asrwt>
<pdfrwt beam="1">  1        2 0.36450302E+00 0.48663033E+04</pdfrwt>
<pdfrwt beam="2">  1       -2 0.38442401E+00 0.48663033E+04</pdfrwt>
<totfact> 0.28563464E-02</totfact>
</mgrwt>
</event>
<event>
 6    1  0.1831439E-005  0.1883223E+04  0.7818608E-02  0.8663253E-01
         -2   -1    0    0    0  501 -0.00000000000E+00  0.00000000000E+00  0.45120899085E+03  0.45120899085E+03  0.00000000000E+00 0.  1.
          2   -1    0    0  501    0  0.00000000000E+00 -0.00000000000E+00 -0.19650148573E+04  0.19650148573E+04  0.00000000000E+00 0. -1.
         23    2    1    2    0    0 -0.52480516169E+03  0.60594441877E+03 -0.13066599621E+03  0.81757911056E+03  0.93663776763E+02 0.  0.
         13    1    3    3    0    0 -0.13425390694E+03  0.20178095881E+03 -0.89960244317E+01  0.24252957618E+03  0.00000000000E+00 0. -1.
        -13    1    3    3    0    0 -0.39055125474E+03  0.40416345996E+03 -0.12166997178E+03  0.57504953437E+03  0.00000000000E+00 0.  1.
         22    1    1    2    0    0  0.52480516169E+03 -0.60594441877E+03 -0.13831398702E+04  0.15986447375E+04  0.00000000000E+00 0. -1.
<mgrwt>
<rscale>  0 0.18832232E+04</rscale>
<asrwt>0</asrwt>
<pdfrwt beam="1">  1        2 0.30230998E+00 0.18832232E+04</pdfrwt>
<pdfrwt beam="2">  1       -2 0.69416767E-01 0.18832232E+04</pdfrwt>
<totfact> 0.12405203E+01</totfact>
</mgrwt>
</event>
<event>
 6    1  0.2419725E-005  0.1640042E+04  0.7818608E-02  0.8796320E-01
         -1   -1    0    0    0  501 -0.00000000000E+00  0.00000000000E+00  0.30125570165E+03  0.30125570165E+03  0.00000000000E+00 0.  1.
          1   -1    0    0  501    0  0.00000000000E+00 -0.00000000000E+00 -0.22321046654E+04  0.22321046654E+04  0.00000000000E+00 0. -1.
         23    2    1    2    0    0  0.24697058725E+03 -0.60036856569E+03 -0.17371612053E+04  0.18559005281E+04  0.72116789380E+02 0.  0.
         13    1    3    3    0    0  0.59442288424E+02 -0.10277636739E+03 -0.25642310748E+03  0.28257596748E+03  0.00000000000E+00 0.  1.
        -13    1    3    3    0    0  0.18752829883E+03 -0.49759219831E+03 -0.14807380978E+04  0.15733245606E+04  0.00000000000E+00 0. -1.
         22    1    1    2    0    0 -0.24697058725E+03  0.60036856569E+03 -0.19368775844E+03  0.67745983897E+03  0.00000000000E+00 0.  1.
<mgrwt>
<rscale>  0 0.16400418E+04</rscale>
<asrwt>0</asrwt>
<pdfrwt beam="1">  1        1 0.34340072E+00 0.16400418E+04</pdfrwt>
<pdfrwt beam="2">  1       -1 0.46347031E-01 0.16400418E+04</pdfrwt>
<totfact> 0.91877487E+00</totfact>
</mgrwt>
</event>
<event>
 6    1  0.1831439E-005  0.4175763E+03  0.7818608E-02  0.1037858E+00
          2   -1    0    0  501    0  0.00000000000E+00  0.00000000000E+00  0.27459679111E+04  0.27459679111E+04  0.00000000000E+00 0. -1.
         -2   -1    0    0    0  501 -0.00000000000E+00 -0.00000000000E+00 -0.15875092416E+02  0.15875092416E+02  0.00000000000E+00 0.  1.
         23    2    1    2    0    0  0.77413074973E+02 -0.12275105356E+03  0.23264929484E+04  0.23329450429E+04  0.94881657385E+02 0.  0.
         11    1    3    3    0    0  0.78652989841E+01 -0.94471855329E+02  0.15249212511E+04  0.15278650518E+04  0.00000000000E+00 0.  1.
        -11    1    3    3    0    0  0.69547775989E+02 -0.28279198227E+02  0.80157169732E+03  0.80507999115E+03  0.00000000000E+00 0. -1.
         22    1    1    2    0    0 -0.77413074973E+02  0.12275105356E+03  0.40359987023E+03  0.42889796057E+03  0.00000000000E+00 0.  1.
<mgrwt>
<rscale>  0 0.41757631E+03</rscale>
<asrwt>0</asrwt>
<pdfrwt beam="1">  1        2 0.42245622E+00 0.41757631E+03</pdfrwt>
<pdfrwt beam="2">  1       -2 0.24423241E-02 0.41757631E+03</pdfrwt>
<totfact> 0.16555721E+03</totfact>
</mgrwt>
</event>
<event>
 6    1  0.1831439E-005  0.3130048E+04  0.7818608E-02  0.8207539E-01
         -2   -1    0    0    0  501 -0.00000000000E+00  0.00000000000E+00  0.20162510462E+04  0.20162510462E+04  0.00000000000E+00 0.  1.
          2   -1    0    0  501    0  0.00000000000E+00 -0.00000000000E+00 -0.12147797252E+04  0.12147797252E+04  0.00000000000E+00 0. -1.
         23    2    1    2    0    0  0.11374625442E+04  0.10414623651E+04  0.66725981043E+03  0.16829746913E+04  0.93291262085E+02 0.  0.
         13    1    3    3    0    0  0.34817137209E+03  0.37435850632E+03  0.20379119367E+03  0.55036210464E+03  0.00000000000E+00 0. -1.
        -13    1    3    3    0    0  0.78929117211E+03  0.66710385878E+03  0.46346861676E+03  0.11326125867E+04  0.00000000000E+00 0.  1.
         22    1    1    2    0    0 -0.11374625442E+04 -0.10414623651E+04  0.13421151057E+03  0.15480560800E+04  0.00000000000E+00 0. -1.
<mgrwt>
<rscale>  0 0.31300485E+04</rscale>
<asrwt>0</asrwt>
<pdfrwt beam="1">  1        2 0.18688919E+00 0.31300485E+04</pdfrwt>
<pdfrwt beam="2">  1       -2 0.31019247E+00 0.31300485E+04</pdfrwt>
<totfact> 0.43251866E-01</totfact>
</mgrwt>
</event>
<event>
 6    1  0.1831439E-005  0.2196690E+04  0.7818608E-02  0.8519807E-01
         -2   -1    0    0    0  501 -0.00000000000E+00  0.00000000000E+00  0.33787496847E+03  0.33787496847E+03  0.00000000000E+00 0. -1.
          2   -1    0    0  501    0  0.00000000000E+00 -0.00000000000E+00 -0.35704368508E+04  0.35704368508E+04  0.00000000000E+00 0.  1.
         23    2    1    2    0    0  0.51174329840E+03  0.87480021764E+03 -0.23631837218E+04  0.25730309461E+04  0.93243351149E+02 0.  0.
         11    1    3    3    0    0  0.49813612956E+03  0.84126085385E+03 -0.22277451778E+04  0.24328394943E+04  0.00000000000E+00 0. -1.
        -11    1    3    3    0    0  0.13607168837E+02  0.33539363784E+02 -0.13543854397E+03  0.14019145181E+03  0.00000000000E+00 0.  1.
         22    1    1    2    0    0 -0.51174329840E+03 -0.87480021764E+03 -0.86937816061E+03  0.13352808732E+04  0.00000000000E+00 0. -1.
<mgrwt>
<rscale>  0 0.21966895E+04</rscale>
<asrwt>0</asrwt>
<pdfrwt beam="1">  1        2 0.54929796E+00 0.21966895E+04</pdfrwt>
<pdfrwt beam="2">  1       -2 0.51980766E-01 0.21966895E+04</pdfrwt>
<totfact> 0.23252284E+00</totfact>
</mgrwt>
</event>
<event>
 6    1  0.1831439E-005  0.2460064E+04  0.7818608E-02  0.8417353E-01
         -2   -1    0    0    0  501 -0.00000000000E+00  0.00000000000E+00  0.81213296252E+03  0.81213296252E+03  0.00000000000E+00 0.  1.
          2   -1    0    0  501    0  0.00000000000E+00 -0.00000000000E+00 -0.18629696056E+04  0.18629696056E+04  0.00000000000E+00 0. -1.
         23    2    1    2    0    0  0.76952899278E+03  0.87687826964E+03 -0.10521011040E+03  0.11733369706E+04  0.67528577737E+02 0.  0.
         13    1    3    3    0    0  0.50176499059E+03  0.57711817537E+03 -0.10093959067E+03  0.77137688265E+03  0.00000000000E+00 0.  1.
        -13    1    3    3    0    0  0.26776400219E+03  0.29976009426E+03 -0.42705197277E+01  0.40196008797E+03  0.00000000000E+00 0. -1.
         22    1    1    2    0    0 -0.76952899278E+03 -0.87687826964E+03 -0.94562653267E+03  0.15017655975E+04  0.00000000000E+00 0. -1.
<mgrwt>
<rscale>  0 0.24600642E+04</rscale>
<asrwt>0</asrwt>
<pdfrwt beam="1">  1        2 0.28661070E+00 0.24600642E+04</pdfrwt>
<pdfrwt beam="2">  1       -2 0.12494353E+00 0.24600642E+04</pdfrwt>
<totfact> 0.34199740E+00</totfact>
</mgrwt>
</event>
<event>
 6    1  0.1831439E-005  0.5855553E+04  0.7818608E-02  0.7708574E-01
         -2   -1    0    0    0  501 -0.00000000000E+00  0.00000000000E+00  0.27822251297E+04  0.27822251297E+04  0.00000000000E+00 0.  1.
          2   -1    0    0  501    0  0.00000000000E+00 -0.00000000000E+00 -0.30809427553E+04  0.30809427553E+04  0.00000000000E+00 0. -1.
         23    2    1    2    0    0 -0.13074189724E+04  0.26124900284E+04 -0.33260346944E+03  0.29415935204E+04  0.88875492526E+02 0.  0.
         13    1    3    3    0    0 -0.10426687475E+04  0.20762100598E+04 -0.30037545879E+03  0.23426548498E+04  0.00000000000E+00 0. -1.
        -13    1    3    3    0    0 -0.26475022497E+03  0.53627996863E+03 -0.32228010645E+02  0.59893867052E+03  0.00000000000E+00 0.  1.
         22    1    1    2    0    0  0.13074189724E+04 -0.26124900284E+04  0.33885843820E+02  0.29215743647E+04  0.00000000000E+00 0. -1.
<mgrwt>
<rscale>  0 0.58555534E+04</rscale>
<asrwt>0</asrwt>
<pdfrwt beam="1">  1        2 0.47399120E+00 0.58555534E+04</pdfrwt>
<pdfrwt beam="2">  1       -2 0.42803463E+00 0.58555534E+04</pdfrwt>
<totfact> 0.51213421E-03</totfact>
</mgrwt>
</event>
<event>
 6    1  0.1831439E-005  0.2528504E+04  0.7818608E-02  0.8392901E-01
         -2   -1    0    0    0  501 -0.00000000000E+00  0.00000000000E+00  0.13990437132E+04  0.13990437132E+04  0.00000000000E+00 0.  1.
          2   -1    0    0  501    0  0.00000000000E+00 -0.00000000000E+00 -0.11424472040E+04  0.11424472040E+04  0.00000000000E+00 0. -1.
         23    2    1    2    0    0 -0.83399791847E+03  0.94722761349E+03  0.97364302002E+02  0.12694266203E+04  0.95767725992E+02 0.  0.
         13    1    3    3    0    0 -0.17002961213E+03  0.20551882582E+03 -0.17663968571E+02  0.26732016862E+03  0.00000000000E+00 0.  1.
        -13    1    3    3    0    0 -0.66396830634E+03  0.74170878767E+03  0.11502827057E+03  0.10021064517E+04  0.00000000000E+00 0. -1.
         22    1    1    2    0    0  0.83399791847E+03 -0.94722761349E+03  0.15923220719E+03  0.12720642970E+04  0.00000000000E+00 0. -1.
<mgrwt>
<rscale>  0 0.25285044E+04</rscale>
<asrwt>0</asrwt>
<pdfrwt beam="1">  1        2 0.17576111E+00 0.25285044E+04</pdfrwt>
<pdfrwt beam="2">  1       -2 0.21523749E+00 0.25285044E+04</pdfrwt>
<totfact> 0.19347215E+00</totfact>
</mgrwt>
</event>
<event>
 6    1  0.1831439E-005  0.2296152E+04  0.7818608E-02  0.8479440E-01
         -1   -1    0    0    0  501 -0.00000000000E+00  0.00000000000E+00  0.10254731596E+04  0.10254731596E+04  0.00000000000E+00 0.  1.
          1   -1    0    0  501    0  0.00000000000E+00 -0.00000000000E+00 -0.12853367031E+04  0.12853367031E+04  0.00000000000E+00 0. -1.
         23    2    1    2    0    0 -0.32553991133E+03  0.10036375267E+04 -0.58091054842E+03  0.12079337598E+04  0.91555360343E+02 0.  0.
         13    1    3    3    0    0 -0.11303344952E+03  0.37290707326E+03 -0.26473268294E+03  0.47108347394E+03  0.00000000000E+00 0.  1.
        -13    1    3    3    0    0 -0.21250646181E+03  0.63073045344E+03 -0.31617786548E+03  0.73685028590E+03  0.00000000000E+00 0. -1.
         22    1    1    2    0    0  0.32553991133E+03 -0.10036375267E+04  0.32104700486E+03  0.11028761028E+04  0.00000000000E+00 0.  1.
<mgrwt>
<rscale>  0 0.22961518E+04</rscale>
<asrwt>0</asrwt>
<pdfrwt beam="1">  1        1 0.19774411E+00 0.22961518E+04</pdfrwt>
<pdfrwt beam="2">  1       -1 0.15776510E+00 0.22961518E+04</pdfrwt>
<totfact> 0.25467667E+00</totfact>
</mgrwt>
</event>
<event>
 6    1  0.1831439E-005  0.1187343E+04  0.7818608E-02  0.9124007E-01
         -2   -1    0    0    0  501 -0.00000000000E+00  0.00000000000E+00  0.19624318673E+03  0.19624318673E+03  0.00000000000E+00 0.  1.
          2   -1    0    0  501    0  0.00000000000E+00 -0.00000000000E+00 -0.17959661089E+04  0.17959661089E+04  0.00000000000E+00 0. -1.
         23    2    1    2    0    0 -0.58549831182E+03  0.59581362908E+01 -0.92909379189E+03  0.11019356282E+04  0.90570867524E+02 0.  0.
         13    1    3    3    0    0 -0.27703878879E+03 -0.40410270308E+02 -0.46419705360E+03  0.54209075349E+03  0.00000000000E+00 0. -1.
        -13    1    3    3    0    0 -0.30845952303E+03  0.46368406599E+02 -0.46489673829E+03  0.55984487472E+03  0.00000000000E+00 0.  1.
         22    1    1    2    0    0  0.58549831182E+03 -0.59581362908E+01 -0.67062913029E+03  0.89027366744E+03  0.00000000000E+00 0. -1.
<mgrwt>
<rscale>  0 0.11873434E+04</rscale>
<asrwt>0</asrwt>
<pdfrwt beam="1">  1        2 0.27630248E+00 0.11873434E+04</pdfrwt>
<pdfrwt beam="2">  1       -2 0.30191259E-01 0.11873434E+04</pdfrwt>
<totfact> 0.86817406E+01</totfact>
</mgrwt>
</event>
<event>
 6    1  0.1831439E-005  0.1951599E+04  0.7818608E-02  0.8629590E-01
          1   -1    0    0  501    0  0.00000000000E+00  0.00000000000E+00  0.63648692311E+03  0.63648692311E+03  0.00000000000E+00 0. -1.
         -1   -1    0    0    0  501 -0.00000000000E+00 -0.00000000000E+00 -0.14960003134E+04  0.14960003134E+04  0.00000000000E+00 0.  1.
         23    2    1    2    0    0 -0.32315539911E+03 -0.56669072782E+03  0.35891685945E+03  0.75040906706E+03  0.93405904319E+02 0.  0.
         11    1    3    3    0    0 -0.49782259040E+02 -0.11185521242E+03  0.10863771636E+03  0.16368266639E+03  0.00000000000E+00 0. -1.
        -11    1    3    3    0    0 -0.27337314007E+03 -0.45483551540E+03  0.25027914309E+03  0.58672640067E+03  0.00000000000E+00 0.  1.
         22    1    1    2    0    0  0.32315539911E+03  0.56669072782E+03 -0.12184302497E+04  0.13820781694E+04  0.00000000000E+00 0.  1.
<mgrwt>
<rscale>  0 0.19515990E+04</rscale>
<asrwt>0</asrwt>
<pdfrwt beam="1">  1        1 0.97921066E-01 0.19515990E+04</pdfrwt>
<pdfrwt beam="2">  1       -1 0.23015389E+00 0.19515990E+04</pdfrwt>
<totfact> 0.27556777E+00</totfact>
</mgrwt>
</event>
<event>
 6    1  0.1831439E-005  0.2567798E+04  0.7818608E-02  0.8379222E-01
         -1   -1    0    0    0  501 -0.00000000000E+00  0.00000000000E+00  0.10003121154E+04  0.10003121154E+04  0.00000000000E+00 0.  1.
          1   -1    0    0  501    0  0.00000000000E+00 -0.00000000000E+00 -0.16478826000E+04  0.16478826000E+04  0.00000000000E+00 0. -1.
         23    2    1    2    0    0  0.11204546043E+03  0.77272023276E+03  0.72461263853E+03  0.10694175726E+04  0.94550121038E+02 0.  0.
         13    1    3    3    0    0  0.11937297426E+03  0.56110187369E+03  0.55389551017E+03  0.79742426338E+03  0.00000000000E+00 0. -1.
        -13    1    3    3    0    0 -0.73275138345E+01  0.21161835907E+03  0.17071712837E+03  0.27199330924E+03  0.00000000000E+00 0.  1.
         22    1    1    2    0    0 -0.11204546043E+03 -0.77272023276E+03 -0.13721831231E+04  0.15787771428E+04  0.00000000000E+00 0. -1.
<mgrwt>
<rscale>  0 0.25677982E+04</rscale>
<asrwt>0</asrwt>
<pdfrwt beam="1">  1        1 0.25352040E+00 0.25677982E+04</pdfrwt>
<pdfrwt beam="2">  1       -1 0.15389417E+00 0.25677982E+04</pdfrwt>
<totfact> 0.14870694E+00</totfact>
</mgrwt>
</event>
<event>
 6    1  0.1831439E-005  0.1318851E+04  0.7818608E-02  0.9014748E-01
          1   -1    0    0  501    0  0.00000000000E+00  0.00000000000E+00  0.59160688327E+03  0.59160688327E+03  0.00000000000E+00 0. -1.
         -1   -1    0    0    0  501 -0.00000000000E+00 -0.00000000000E+00 -0.73501899628E+03  0.73501899628E+03  0.00000000000E+00 0.  1.
         23    2    1    2    0    0 -0.33562119205E+03 -0.46216392714E+03  0.25222071421E+03  0.63181481597E+03  0.96631221154E+02 0.  0.
         13    1    3    3    0    0 -0.13486162837E+03 -0.17051194233E+03  0.46486246521E+02  0.22231273558E+03  0.00000000000E+00 0. -1.
        -13    1    3    3    0    0 -0.20075956368E+03 -0.29165198481E+03  0.20573446769E+03  0.40950208040E+03  0.00000000000E+00 0.  1.
         22    1    1    2    0    0  0.33562119205E+03  0.46216392714E+03 -0.39563282722E+03  0.69481106358E+03  0.00000000000E+00 0.  1.
<mgrwt>
<rscale>  0 0.13188515E+04</rscale>
<asrwt>0</asrwt>
<pdfrwt beam="1">  1        1 0.91016444E-01 0.13188515E+04</pdfrwt>
<pdfrwt beam="2">  1       -1 0.11307985E+00 0.13188515E+04</pdfrwt>
<totfact> 0.24519439E+01</totfact>
</mgrwt>
</event>
<event>
 6    1  0.2821321E-005  0.1702842E+04  0.7818608E-02  0.8759745E-01
         -1   -1    0    0    0  501 -0.00000000000E+00  0.00000000000E+00  0.77862372478E+03  0.77862372478E+03  0.00000000000E+00 0.  1.
          1   -1    0    0  501    0  0.00000000000E+00 -0.00000000000E+00 -0.93102446118E+03  0.93102446118E+03  0.00000000000E+00 0. -1.
         23    2    1    2    0    0  0.30692241508E+03  0.75387722808E+03  0.16873102660E+03  0.83462941296E+03  0.74858892202E+02 0.  0.
         13    1    3    3    0    0  0.11164191316E+03  0.31186661262E+03  0.10337647975E+03  0.34700345446E+03  0.00000000000E+00 0. -1.
        -13    1    3    3    0    0  0.19528050192E+03  0.44201061546E+03  0.65354546859E+02  0.48762595850E+03  0.00000000000E+00 0.  1.
         22    1    1    2    0    0 -0.30692241508E+03 -0.75387722808E+03 -0.32113176301E+03  0.87501877300E+03  0.00000000000E+00 0. -1.
<mgrwt>
<rscale>  0 0.17028420E+04</rscale>
<asrwt>0</asrwt>
<pdfrwt beam="1">  1        1 0.14323453E+00 0.17028420E+04</pdfrwt>
<pdfrwt beam="2">  1       -1 0.11978827E+00 0.17028420E+04</pdfrwt>
<totfact> 0.10157578E+01</totfact>
</mgrwt>
</event>
<event>
 6    1  0.1831439E-005  0.2337890E+04  0.7818608E-02  0.8463130E-01
         -2   -1    0    0    0  501 -0.00000000000E+00  0.00000000000E+00  0.76118938752E+03  0.76118938752E+03  0.00000000000E+00 0.  1.
          2   -1    0    0  501    0  0.00000000000E+00 -0.00000000000E+00 -0.17951286249E+04  0.17951286249E+04  0.00000000000E+00 0. -1.
         23    2    1    2    0    0 -0.29482919134E+03  0.63813055121E+03  0.50125566076E+03  0.86783993211E+03  0.88057128405E+02 0.  0.
         13    1    3    3    0    0 -0.89555603939E+02  0.19795203544E+03  0.20627096520E+03  0.29958792636E+03  0.00000000000E+00 0. -1.
        -13    1    3    3    0    0 -0.20527358740E+03  0.44017851577E+03  0.29498469555E+03  0.56825200575E+03  0.00000000000E+00 0.  1.
         22    1    1    2    0    0  0.29482919134E+03 -0.63813055121E+03 -0.15351948981E+04  0.16884780803E+04  0.00000000000E+00 0. -1.
<mgrwt>
<rscale>  0 0.23378904E+04</rscale>
<asrwt>0</asrwt>
<pdfrwt beam="1">  1        2 0.27617363E+00 0.23378904E+04</pdfrwt>
<pdfrwt beam="2">  1       -2 0.11710606E+00 0.23378904E+04</pdfrwt>
<totfact> 0.44265232E+00</totfact>
</mgrwt>
</event>
<event>
 6    1  0.1831439E-005  0.1567251E+04  0.7818608E-02  0.8840923E-01
         -1   -1    0    0    0  501 -0.00000000000E+00  0.00000000000E+00  0.61874141254E+03  0.61874141254E+03  0.00000000000E+00 0.  1.
          1   -1    0    0  501    0  0.00000000000E+00 -0.00000000000E+00 -0.99244868735E+03  0.99244868735E+03  0.00000000000E+00 0. -1.
         23    2    1    2    0    0  0.42621476682E+03  0.27826827800E+03 -0.79628223438E+03  0.94962992996E+03  0.92948077422E+02 0.  0.
         13    1    3    3    0    0  0.18319336120E+03  0.76205782449E+02 -0.25871400089E+03  0.32603690454E+03  0.00000000000E+00 0.  1.
        -13    1    3    3    0    0  0.24302140562E+03  0.20206249555E+03 -0.53756823349E+03  0.62359302542E+03  0.00000000000E+00 0. -1.
         22    1    1    2    0    0 -0.42621476682E+03 -0.27826827800E+03  0.42257495956E+03  0.66156016994E+03  0.00000000000E+00 0.  1.
<mgrwt>
<rscale>  0 0.15672512E+04</rscale>
<asrwt>0</asrwt>
<pdfrwt beam="1">  1        1 0.15268441E+00 0.15672512E+04</pdfrwt>
<pdfrwt beam="2">  1       -1 0.95190986E-01 0.15672512E+04</pdfrwt>
<totfact> 0.15734238E+01</totfact>
</mgrwt>
</event>
<event>
 6    1  0.1831439E-005  0.7584108E+03  0.7818608E-02  0.9622247E-01
         -2   -1    0    0    0  501 -0.00000000000E+00  0.00000000000E+00  0.12181731670E+03  0.12181731670E+03  0.00000000000E+00 0.  1.
          2   -1    0    0  501    0  0.00000000000E+00 -0.00000000000E+00 -0.11804293063E+04  0.11804293063E+04  0.00000000000E+00 0. -1.
         23    2    1    2    0    0  0.27730427315E+03 -0.73669345618E+02 -0.12554675617E+03  0.32606243843E+03  0.90718759787E+02 0.  0.
         11    1    3    3    0    0  0.24459681457E+03 -0.91176212564E+02 -0.12384302712E+03  0.28892524777E+03  0.00000000000E+00 0.  1.
        -11    1    3    3    0    0  0.32707458581E+02  0.17506866945E+02 -0.17037290538E+01  0.37137190655E+02  0.00000000000E+00 0. -1.
         22    1    1    2    0    0 -0.27730427315E+03  0.73669345618E+02 -0.93306523344E+03  0.97618418459E+03  0.00000000000E+00 0. -1.
<mgrwt>
<rscale>  0 0.75841079E+03</rscale>
<asrwt>0</asrwt>
<pdfrwt beam="1">  1        2 0.18160451E+00 0.75841079E+03</pdfrwt>
<pdfrwt beam="2">  1       -2 0.18741125E-01 0.75841079E+03</pdfrwt>
<totfact> 0.46866263E+02</totfact>
</mgrwt>
</event>
<event>
 6    1  0.1831439E-005  0.1871504E+04  0.7818608E-02  0.8669172E-01
          2   -1    0    0  501    0  0.00000000000E+00  0.00000000000E+00  0.15551033472E+04  0.15551033472E+04  0.00000000000E+00 0. -1.
         -2   -1    0    0    0  501 -0.00000000000E+00 -0.00000000000E+00 -0.56306984145E+03  0.56306984145E+03  0.00000000000E+00 0.  1.
         23    2    1    2    0    0  0.15297212315E+03 -0.90088019482E+03  0.28034004188E+03  0.95994472140E+03  0.88981645192E+02 0.  0.
         11    1    3    3    0    0  0.94695628643E+02 -0.35448161984E+03  0.83833985963E+02  0.37636766345E+03  0.00000000000E+00 0. -1.
        -11    1    3    3    0    0  0.58276494506E+02 -0.54639857498E+03  0.19650605592E+03  0.58357705795E+03  0.00000000000E+00 0.  1.
         22    1    1    2    0    0 -0.15297212315E+03  0.90088019482E+03  0.71169346390E+03  0.11582284673E+04  0.00000000000E+00 0. -1.
<mgrwt>
<rscale>  0 0.18715040E+04</rscale>
<asrwt>0</asrwt>
<pdfrwt beam="1">  1        2 0.23924667E+00 0.18715040E+04</pdfrwt>
<pdfrwt beam="2">  1       -2 0.86626130E-01 0.18715040E+04</pdfrwt>
<totfact> 0.12800286E+01</totfact>
</mgrwt>
</event>
<event>
 6    1  0.1831439E-005  0.2822694E+04  0.7818608E-02  0.8296257E-01
         -2   -1    0    0    0  501 -0.00000000000E+00  0.00000000000E+00  0.15570365885E+04  0.15570365885E+04  0.00000000000E+00 0.  1.
          2   -1    0    0  501    0  0.00000000000E+00 -0.00000000000E+00 -0.12792894711E+04  0.12792894711E+04  0.00000000000E+00 0. -1.
         23    2    1    2    0    0  0.12596582651E+04  0.14502327045E+03  0.75846597772E+03  0.14802798522E+04  0.90482637460E+02 0.  0.
         11    1    3    3    0    0  0.85143380492E+03  0.82266927518E+02  0.46501752567E+03  0.97362655608E+03  0.00000000000E+00 0. -1.
        -11    1    3    3    0    0  0.40822446023E+03  0.62756342933E+02  0.29344845205E+03  0.50665329616E+03  0.00000000000E+00 0.  1.
         22    1    1    2    0    0 -0.12596582651E+04 -0.14502327045E+03 -0.48071886027E+03  0.13560462074E+04  0.00000000000E+00 0. -1.
<mgrwt>
<rscale>  0 0.28226941E+04</rscale>
<asrwt>0</asrwt>
<pdfrwt beam="1">  1        2 0.19681377E+00 0.28226941E+04</pdfrwt>
<pdfrwt beam="2">  1       -2 0.23954409E+00 0.28226941E+04</pdfrwt>
<totfact> 0.11008386E+00</totfact>
</mgrwt>
</event>
<event>
 6    1  0.1831439E-005  0.1126252E+04  0.7818608E-02  0.9179976E-01
          2   -1    0    0  501    0  0.00000000000E+00  0.00000000000E+00  0.16443337152E+04  0.16443337152E+04  0.00000000000E+00 0. -1.
         -2   -1    0    0    0  501 -0.00000000000E+00 -0.00000000000E+00 -0.19285059066E+03  0.19285059066E+03  0.00000000000E+00 0.  1.
         23    2    1    2    0    0  0.34422844748E+03  0.37460589694E+03  0.35033396867E+03  0.62419120383E+03  0.89766181039E+02 0.  0.
         11    1    3    3    0    0  0.12491872072E+03  0.18253772869E+03  0.11362312507E+03  0.24866628990E+03  0.00000000000E+00 0. -1.
        -11    1    3    3    0    0  0.21930972676E+03  0.19206816826E+03  0.23671084359E+03  0.37552491393E+03  0.00000000000E+00 0.  1.
         22    1    1    2    0    0 -0.34422844748E+03 -0.37460589694E+03  0.11011491559E+04  0.12129931020E+04  0.00000000000E+00 0. -1.
<mgrwt>
<rscale>  0 0.11262517E+04</rscale>
<asrwt>0</asrwt>
<pdfrwt beam="1">  1        2 0.25297441E+00 0.11262517E+04</pdfrwt>
<pdfrwt beam="2">  1       -2 0.29669323E-01 0.11262517E+04</pdfrwt>
<totfact> 0.10927885E+02</totfact>
</mgrwt>
</event>
<event>
 6    1  0.1831439E-005  0.2026224E+04  0.7818608E-02  0.8594457E-01
         -2   -1    0    0    0  501 -0.00000000000E+00  0.00000000000E+00  0.12556238498E+04  0.12556238498E+04  0.00000000000E+00 0.  1.
          2   -1    0    0  501    0  0.00000000000E+00 -0.00000000000E+00 -0.81743932169E+03  0.81743932169E+03  0.00000000000E+00 0. -1.
         23    2    1    2    0    0 -0.60858423233E+03 -0.62882923553E+03  0.73761751019E+03  0.11481517779E+04  0.91498297522E+02 0.  0.
         11    1    3    3    0    0 -0.33303401204E+03 -0.35000876956E+03  0.46593628466E+03  0.67120370478E+03  0.00000000000E+00 0. -1.
        -11    1    3    3    0    0 -0.27555022030E+03 -0.27882046597E+03  0.27168122553E+03  0.47694807312E+03  0.00000000000E+00 0.  1.
         22    1    1    2    0    0  0.60858423233E+03  0.62882923553E+03 -0.29943298205E+03  0.92491139362E+03  0.00000000000E+00 0. -1.
<mgrwt>
<rscale>  0 0.20262244E+04</rscale>
<asrwt>0</asrwt>
<pdfrwt beam="1">  1        2 0.12575990E+00 0.20262244E+04</pdfrwt>
<pdfrwt beam="2">  1       -2 0.19317290E+00 0.20262244E+04</pdfrwt>
<totfact> 0.45771316E+00</totfact>
</mgrwt>
</event>
<event>
 6    1  0.1831439E-005  0.2696996E+04  0.7818608E-02  0.8335980E-01
          2   -1    0    0  501    0  0.00000000000E+00  0.00000000000E+00  0.21871054933E+04  0.21871054933E+04  0.00000000000E+00 0. -1.
         -2   -1    0    0    0  501 -0.00000000000E+00 -0.00000000000E+00 -0.83144014209E+03  0.83144014209E+03  0.00000000000E+00 0.  1.
         23    2    1    2    0    0  0.10356980502E+04  0.16924018933E+03  0.16233562788E+04  0.19355077202E+04  0.97937910021E+02 0.  0.
         11    1    3    3    0    0  0.89866900572E+03  0.11254012724E+03  0.13920412802E+04  0.16607378444E+04  0.00000000000E+00 0. -1.
        -11    1    3    3    0    0  0.13702904451E+03  0.56700062091E+02  0.23131499857E+03  0.27476987580E+03  0.00000000000E+00 0.  1.
         22    1    1    2    0    0 -0.10356980502E+04 -0.16924018933E+03 -0.26769092760E+03  0.10830379152E+04  0.00000000000E+00 0.  1.
<mgrwt>
<rscale>  0 0.26969963E+04</rscale>
<asrwt>0</asrwt>
<pdfrwt beam="1">  1        2 0.33647777E+00 0.26969963E+04</pdfrwt>
<pdfrwt beam="2">  1       -2 0.12791387E+00 0.26969963E+04</pdfrwt>
<totfact> 0.20845674E+00</totfact>
</mgrwt>
</event>
<event>
 6    1  0.1831439E-005  0.1932065E+04  0.7818608E-02  0.8639058E-01
         -1   -1    0    0    0  501 -0.00000000000E+00  0.00000000000E+00  0.36800184026E+03  0.36800184026E+03  0.00000000000E+00 0.  1.
          1   -1    0    0  501    0  0.00000000000E+00 -0.00000000000E+00 -0.25359074736E+04  0.25359074736E+04  0.00000000000E+00 0. -1.
         23    2    1    2    0    0 -0.16092497773E+03 -0.47845605234E+03  0.14764608049E+03  0.53397328479E+03  0.92255413429E+02 0.  0.
         11    1    3    3    0    0 -0.80496153685E+01 -0.78080608089E+02 -0.59307423084E+01  0.78718176881E+02  0.00000000000E+00 0. -1.
        -11    1    3    3    0    0 -0.15287536237E+03 -0.40037544425E+03  0.15357682280E+03  0.45525510791E+03  0.00000000000E+00 0.  1.
         22    1    1    2    0    0  0.16092497773E+03  0.47845605234E+03 -0.23155517139E+04  0.23699360291E+04  0.00000000000E+00 0. -1.
<mgrwt>
<rscale>  0 0.19320648E+04</rscale>
<asrwt>0</asrwt>
<pdfrwt beam="1">  1        1 0.39013962E+00 0.19320648E+04</pdfrwt>
<pdfrwt beam="2">  1       -1 0.56615666E-01 0.19320648E+04</pdfrwt>
<totfact> 0.37713743E+00</totfact>
</mgrwt>
</event>
<event>
 6    1  0.1831439E-005  0.1712871E+04  0.7818608E-02  0.8754057E-01
          2   -1    0    0  501    0  0.00000000000E+00  0.00000000000E+00  0.23162439430E+04  0.23162439430E+04  0.00000000000E+00 0. -1.
         -2   -1    0    0    0  501 -0.00000000000E+00 -0.00000000000E+00 -0.31666859810E+03  0.31666859810E+03  0.00000000000E+00 0.  1.
         23    2    1    2    0    0  0.59489206666E+03  0.13563277684E+01  0.19446396705E+04  0.20354877852E+04  0.87685034392E+02 0.  0.
         13    1    3    3    0    0  0.36470023169E+03  0.40661342210E+02  0.11354163127E+04  0.11932433981E+04  0.00000000000E+00 0. -1.
        -13    1    3    3    0    0  0.23019183497E+03 -0.39305014442E+02  0.80922335772E+03  0.84224438717E+03  0.00000000000E+00 0.  1.
         22    1    1    2    0    0 -0.59489206666E+03 -0.13563277684E+01  0.54935674424E+02  0.59742475587E+03  0.00000000000E+00 0.  1.
<mgrwt>
<rscale>  0 0.17128709E+04</rscale>
<asrwt>0</asrwt>
<pdfrwt beam="1">  1        2 0.35634521E+00 0.17128709E+04</pdfrwt>
<pdfrwt beam="2">  1       -2 0.48718247E-01 0.17128709E+04</pdfrwt>
<totfact> 0.16847594E+01</totfact>
</mgrwt>
</event>
<event>
 6    1  0.2535625E-005  0.5528412E+04  0.7818608E-02  0.7751792E-01
         -2   -1    0    0    0  501 -0.00000000000E+00  0.00000000000E+00  0.30491959807E+04  0.30491959807E+04  0.00000000000E+00 0. -1.
          2   -1    0    0  501    0  0.00000000000E+00 -0.00000000000E+00 -0.25058522945E+04  0.25058522945E+04  0.00000000000E+00 0.  1.
         23    2    1    2    0    0 -0.22732113509E+04 -0.78320398304E+03  0.16406095153E+04  0.29121539102E+04  0.90235749689E+02 0.  0.
         13    1    3    3    0    0 -0.12224281033E+04 -0.41469437160E+03  0.93467264545E+03  0.15937110289E+04  0.00000000000E+00 0. -1.
        -13    1    3    3    0    0 -0.10507832476E+04 -0.36850961143E+03  0.70593686986E+03  0.13184428813E+04  0.00000000000E+00 0.  1.
         22    1    1    2    0    0  0.22732113509E+04  0.78320398304E+03 -0.10972658290E+04  0.26428943649E+04  0.00000000000E+00 0.  1.
<mgrwt>
<rscale>  0 0.55284120E+04</rscale>
<asrwt>0</asrwt>
<pdfrwt beam="1">  1        2 0.38551574E+00 0.55284120E+04</pdfrwt>
<pdfrwt beam="2">  1       -2 0.46910708E+00 0.55284120E+04</pdfrwt>
<totfact> 0.63039094E-03</totfact>
</mgrwt>
</event>
<event>
 6    1  0.1831439E-005  0.1450228E+04  0.7818608E-02  0.8918243E-01
          2   -1    0    0  501    0  0.00000000000E+00  0.00000000000E+00  0.91150092814E+03  0.91150092814E+03  0.00000000000E+00 0. -1.
         -2   -1    0    0    0  501 -0.00000000000E+00 -0.00000000000E+00 -0.57683995774E+03  0.57683995774E+03  0.00000000000E+00 0.  1.
         23    2    1    2    0    0 -0.10672262804E+03 -0.36344733272E+03  0.79969953021E+03  0.88855380274E+03  0.80776473942E+02 0.  0.
         11    1    3    3    0    0 -0.60896249360E+02 -0.18925163993E+03  0.51052694113E+03  0.54787069096E+03  0.00000000000E+00 0. -1.
        -11    1    3    3    0    0 -0.45826378679E+02 -0.17419569279E+03  0.28917258909E+03  0.34068311178E+03  0.00000000000E+00 0.  1.
         22    1    1    2    0    0  0.10672262804E+03  0.36344733272E+03 -0.46503855981E+03  0.59978708315E+03  0.00000000000E+00 0.  1.
<mgrwt>
<rscale>  0 0.14502278E+04</rscale>
<asrwt>0</asrwt>
<pdfrwt beam="1">  1        2 0.14023091E+00 0.14502278E+04</pdfrwt>
<pdfrwt beam="2">  1       -2 0.88744609E-01 0.14502278E+04</pdfrwt>
<totfact> 0.30497960E+01</totfact>
</mgrwt>
</event>
<event>
 6    1  0.1831439E-005  0.1417826E+04  0.7818608E-02  0.8941015E-01
         -2   -1    0    0    0  501 -0.00000000000E+00  0.00000000000E+00  0.51084838704E+03  0.51084838704E+03  0.00000000000E+00 0. -1.
          2   -1    0    0  501    0  0.00000000000E+00 -0.00000000000E+00 -0.98377042732E+03  0.98377042732E+03  0.00000000000E+00 0.  1.
         23    2    1    2    0    0  0.58190204205E+03  0.37166655612E+03 -0.81671780312E+02  0.70100506612E+03  0.89396910217E+02 0.  0.
         13    1    3    3    0    0  0.24026705210E+03  0.16188106469E+03 -0.78215550451E+02  0.30008566737E+03  0.00000000000E+00 0.  1.
        -13    1    3    3    0    0  0.34163498995E+03  0.20978549143E+03 -0.34562298605E+01  0.40091939876E+03  0.00000000000E+00 0. -1.
         22    1    1    2    0    0 -0.58190204205E+03 -0.37166655612E+03 -0.39125025997E+03  0.79361374824E+03  0.00000000000E+00 0.  1.
<mgrwt>
<rscale>  0 0.14178259E+04</rscale>
<asrwt>0</asrwt>
<pdfrwt beam="1">  1        2 0.15134930E+00 0.14178259E+04</pdfrwt>
<pdfrwt beam="2">  1       -2 0.78592060E-01 0.14178259E+04</pdfrwt>
<totfact> 0.36092859E+01</totfact>
</mgrwt>
</event>
<event>
 6    1  0.1831439E-005  0.4707396E+04  0.7818608E-02  0.7875301E-01
         -2   -1    0    0    0  501 -0.00000000000E+00  0.00000000000E+00  0.18394656064E+04  0.18394656064E+04  0.00000000000E+00 0.  1.
          2   -1    0    0  501    0  0.00000000000E+00 -0.00000000000E+00 -0.30116868629E+04  0.30116868629E+04  0.00000000000E+00 0. -1.
         23    2    1    2    0    0 -0.21955144571E+04  0.20135569504E+02 -0.14577726242E+04  0.26370547397E+04  0.90925813354E+02 0.  0.
         13    1    3    3    0    0 -0.11560426089E+04 -0.22746689892E+02 -0.80428659807E+03  0.14084845960E+04  0.00000000000E+00 0. -1.
        -13    1    3    3    0    0 -0.10394718483E+04  0.42882259396E+02 -0.65348602609E+03  0.12285701436E+04  0.00000000000E+00 0.  1.
         22    1    1    2    0    0  0.21955144571E+04 -0.20135569504E+02  0.28555136768E+03  0.22140977296E+04  0.00000000000E+00 0.  1.
<mgrwt>
<rscale>  0 0.47073961E+04</rscale>
<asrwt>0</asrwt>
<pdfrwt beam="1">  1        2 0.46333644E+00 0.47073961E+04</pdfrwt>
<pdfrwt beam="2">  1       -2 0.28299471E+00 0.47073961E+04</pdfrwt>
<totfact> 0.51479971E-02</totfact>
</mgrwt>
</event>
<event>
 6    1  0.1831439E-005  0.1035868E+04  0.7818608E-02  0.9270057E-01
         -2   -1    0    0    0  501 -0.00000000000E+00  0.00000000000E+00  0.41567625729E+03  0.41567625729E+03  0.00000000000E+00 0.  1.
          2   -1    0    0  501    0  0.00000000000E+00 -0.00000000000E+00 -0.64534769363E+03  0.64534769363E+03  0.00000000000E+00 0. -1.
         23    2    1    2    0    0 -0.30717745043E+03 -0.30764362362E+03  0.16532628339E+03  0.47363499648E+03  0.89413336253E+02 0.  0.
         11    1    3    3    0    0 -0.15536116410E+03 -0.11685891265E+03  0.36237720135E+02  0.19775305090E+03  0.00000000000E+00 0.  1.
        -11    1    3    3    0    0 -0.15181628632E+03 -0.19078471097E+03  0.12908856326E+03  0.27588194558E+03  0.00000000000E+00 0. -1.
         22    1    1    2    0    0  0.30717745043E+03  0.30764362362E+03 -0.39499771973E+03  0.58738895444E+03  0.00000000000E+00 0. -1.
<mgrwt>
<rscale>  0 0.10358682E+04</rscale>
<asrwt>0</asrwt>
<pdfrwt beam="1">  1        2 0.99284260E-01 0.10358682E+04</pdfrwt>
<pdfrwt beam="2">  1       -2 0.63950194E-01 0.10358682E+04</pdfrwt>
<totfact> 0.10226718E+02</totfact>
</mgrwt>
</event>
<event>
 6    1  0.1831439E-005  0.5242941E+04  0.7818608E-02  0.7792086E-01
          2   -1    0    0  501    0  0.00000000000E+00  0.00000000000E+00  0.41657656101E+04  0.41657656101E+04  0.00000000000E+00 0. -1.
         -2   -1    0    0    0  501 -0.00000000000E+00 -0.00000000000E+00 -0.16496627979E+04  0.16496627979E+04  0.00000000000E+00 0.  1.
         23    2    1    2    0    0 -0.13801920949E+04  0.10598547356E+03 -0.12097989520E+04  0.18406948200E+04  0.91546581796E+02 0.  0.
         11    1    3    3    0    0 -0.12032200380E+04  0.72976655374E+02 -0.10832012072E+04  0.16206137440E+04  0.00000000000E+00 0. -1.
        -11    1    3    3    0    0 -0.17697205693E+03  0.33008818185E+02 -0.12659774475E+03  0.22008107594E+03  0.00000000000E+00 0.  1.
         22    1    1    2    0    0  0.13801920949E+04 -0.10598547356E+03  0.37259017642E+04  0.39747335880E+04  0.00000000000E+00 0. -1.
<mgrwt>
<rscale>  0 0.52429414E+04</rscale>
<asrwt>0</asrwt>
<pdfrwt beam="1">  1        2 0.64088701E+00 0.52429414E+04</pdfrwt>
<pdfrwt beam="2">  1       -2 0.25379428E+00 0.52429414E+04</pdfrwt>
<totfact> 0.10757369E-02</totfact>
</mgrwt>
</event>
<event>
 6    1  0.1831439E-005  0.1470715E+04  0.7818608E-02  0.8904164E-01
         -2   -1    0    0    0  501 -0.00000000000E+00  0.00000000000E+00  0.53779135766E+03  0.53779135766E+03  0.00000000000E+00 0.  1.
          2   -1    0    0  501    0  0.00000000000E+00 -0.00000000000E+00 -0.10055025242E+04  0.10055025242E+04  0.00000000000E+00 0. -1.
         23    2    1    2    0    0 -0.35364327036E+03  0.16695339844E+03  0.41514038326E+03  0.57770397982E+03  0.91996470413E+02 0.  0.
         13    1    3    3    0    0 -0.27963324225E+03  0.12205718508E+03  0.26372318044E+03  0.40328975006E+03  0.00000000000E+00 0.  1.
        -13    1    3    3    0    0 -0.74010028111E+02  0.44896213356E+02  0.15141720281E+03  0.17441422976E+03  0.00000000000E+00 0. -1.
         22    1    1    2    0    0  0.35364327036E+03 -0.16695339844E+03 -0.88285154978E+03  0.96558990201E+03  0.00000000000E+00 0. -1.
<mgrwt>
<rscale>  0 0.14707149E+04</rscale>
<asrwt>0</asrwt>
<pdfrwt beam="1">  1        2 0.15469270E+00 0.14707149E+04</pdfrwt>
<pdfrwt beam="2">  1       -2 0.82737131E-01 0.14707149E+04</pdfrwt>
<totfact> 0.31000652E+01</totfact>
</mgrwt>
</event>
<event>
 6    1  0.1831439E-005  0.8316203E+03  0.7818608E-02  0.9515343E-01
         -2   -1    0    0    0  501 -0.00000000000E+00  0.00000000000E+00  0.61369463943E+02  0.61369463943E+02  0.00000000000E+00 0.  1.
          2   -1    0    0  501    0  0.00000000000E+00 -0.00000000000E+00 -0.28173308604E+04  0.28173308604E+04  0.00000000000E+00 0. -1.
         23    2    1    2    0    0 -0.14542213854E+03  0.32871830433E+03 -0.72874313431E+03  0.81986152435E+03  0.10910106013E+03 0.  0.
         13    1    3    3    0    0 -0.60807940270E+02  0.21295946148E+03 -0.34255019683E+03  0.40790927322E+03  0.00000000000E+00 0.  1.
        -13    1    3    3    0    0 -0.84614198274E+02  0.11575884285E+03 -0.38619293748E+03  0.41195225113E+03  0.00000000000E+00 0. -1.
         22    1    1    2    0    0  0.14542213854E+03 -0.32871830433E+03 -0.20272182622E+04  0.20588388000E+04  0.00000000000E+00 0. -1.
<mgrwt>
<rscale>  0 0.83162031E+03</rscale>
<asrwt>0</asrwt>
<pdfrwt beam="1">  1        2 0.43343538E+00 0.83162031E+03</pdfrwt>
<pdfrwt beam="2">  1       -2 0.94414590E-02 0.83162031E+03</pdfrwt>
<totfact> 0.17680731E+02</totfact>
</mgrwt>
</event>
<event>
 6    1  0.1831439E-005  0.3894218E+04  0.7818608E-02  0.8026233E-01
          2   -1    0    0  501    0  0.00000000000E+00  0.00000000000E+00  0.39994141389E+04  0.39994141389E+04  0.00000000000E+00 0. -1.
         -2   -1    0    0    0  501 -0.00000000000E+00 -0.00000000000E+00 -0.94794712637E+03  0.94794712637E+03  0.00000000000E+00 0.  1.
         23    2    1    2    0    0 -0.18236091322E+04  0.12808638845E+03  0.67906545211E+03  0.19523244452E+04  0.92111134702E+02 0.  0.
         13    1    3    3    0    0 -0.60591907943E+03  0.39273543520E+02  0.27197895646E+03  0.66532164762E+03  0.00000000000E+00 0. -1.
        -13    1    3    3    0    0 -0.12176900527E+04  0.88812844929E+02  0.40708649565E+03  0.12870027976E+04  0.00000000000E+00 0.  1.
         22    1    1    2    0    0  0.18236091322E+04 -0.12808638845E+03  0.23724015605E+04  0.29950368201E+04  0.00000000000E+00 0. -1.
<mgrwt>
<rscale>  0 0.38942178E+04</rscale>
<asrwt>0</asrwt>
<pdfrwt beam="1">  1        2 0.61529447E+00 0.38942178E+04</pdfrwt>
<pdfrwt beam="2">  1       -2 0.14583802E+00 0.38942178E+04</pdfrwt>
<totfact> 0.87640596E-02</totfact>
</mgrwt>
</event>
<event>
 6    1  0.1831439E-005  0.4352078E+03  0.7818608E-02  0.1032227E+00
          1   -1    0    0  501    0  0.00000000000E+00  0.00000000000E+00  0.17609486854E+03  0.17609486854E+03  0.00000000000E+00 0. -1.
         -1   -1    0    0    0  501 -0.00000000000E+00 -0.00000000000E+00 -0.26889744388E+03  0.26889744388E+03  0.00000000000E+00 0.  1.
         23    2    1    2    0    0  0.88125831929E+02 -0.11279125942E+03  0.10673838222E+03  0.19942231385E+03  0.88815238377E+02 0.  0.
         11    1    3    3    0    0  0.55107110534E+02 -0.31388303106E+02  0.89836536525E+02  0.10996646079E+03  0.00000000000E+00 0. -1.
        -11    1    3    3    0    0  0.33018721395E+02 -0.81402956319E+02  0.16901845696E+02  0.89455853067E+02  0.00000000000E+00 0.  1.
         22    1    1    2    0    0 -0.88125831929E+02  0.11279125942E+03 -0.19954095756E+03  0.24556999857E+03  0.00000000000E+00 0.  1.
<mgrwt>
<rscale>  0 0.43520781E+03</rscale>
<asrwt>0</asrwt>
<pdfrwt beam="1">  1        1 0.27091518E-01 0.43520781E+03</pdfrwt>
<pdfrwt beam="2">  1       -1 0.41368837E-01 0.43520781E+03</pdfrwt>
<totfact> 0.10072637E+03</totfact>
</mgrwt>
</event>
<event>
 6    1  0.1831439E-005  0.2972610E+04  0.7818608E-02  0.8251596E-01
         -2   -1    0    0    0  501 -0.00000000000E+00  0.00000000000E+00  0.70983852097E+03  0.70983852097E+03  0.00000000000E+00 0.  1.
          2   -1    0    0  501    0  0.00000000000E+00 -0.00000000000E+00 -0.31121206004E+04  0.31121206004E+04  0.00000000000E+00 0. -1.
         23    2    1    2    0    0 -0.83698771334E+03  0.35682231376E+03 -0.27110579642E+04  0.28611193101E+04  0.91092399724E+02 0.  0.
         13    1    3    3    0    0 -0.23843573220E+03  0.10111214460E+03 -0.90622348157E+03  0.94250531177E+03  0.00000000000E+00 0. -1.
        -13    1    3    3    0    0 -0.59855198114E+03  0.25571016915E+03 -0.18048344826E+04  0.19186139983E+04  0.00000000000E+00 0.  1.
         22    1    1    2    0    0  0.83698771334E+03 -0.35682231376E+03  0.30877588482E+03  0.96083981127E+03  0.00000000000E+00 0.  1.
<mgrwt>
<rscale>  0 0.29726104E+04</rscale>
<asrwt>0</asrwt>
<pdfrwt beam="1">  1        2 0.47878779E+00 0.29726104E+04</pdfrwt>
<pdfrwt beam="2">  1       -2 0.10920593E+00 0.29726104E+04</pdfrwt>
<totfact> 0.84743650E-01</totfact>
</mgrwt>
</event>
<event>
 6    1  0.1831439E-005  0.2890242E+04  0.7818608E-02  0.8275787E-01
          2   -1    0    0  501    0  0.00000000000E+00  0.00000000000E+00  0.17824757947E+04  0.17824757947E+04  0.00000000000E+00 0.  1.
         -2   -1    0    0    0  501 -0.00000000000E+00 -0.00000000000E+00 -0.11716145847E+04  0.11716145847E+04  0.00000000000E+00 0. -1.
         23    2    1    2    0    0  0.16085752073E+03  0.13421044174E+04 -0.21251309292E+03  0.13713507762E+04  0.91223503414E+02 0.  0.
         11    1    3    3    0    0  0.70588269776E+02  0.64131073849E+03 -0.14714037757E+03  0.66174954314E+03  0.00000000000E+00 0.  1.
        -11    1    3    3    0    0  0.90269250955E+02  0.70079367887E+03 -0.65372715351E+02  0.70960123304E+03  0.00000000000E+00 0. -1.
         22    1    1    2    0    0 -0.16085752073E+03 -0.13421044174E+04  0.82337430287E+03  0.15827396033E+04  0.00000000000E+00 0. -1.
<mgrwt>
<rscale>  0 0.28902420E+04</rscale>
<asrwt>0</asrwt>
<pdfrwt beam="1">  1        2 0.27422705E+00 0.28902420E+04</pdfrwt>
<pdfrwt beam="2">  1       -2 0.18024840E+00 0.28902420E+04</pdfrwt>
<totfact> 0.13768192E+00</totfact>
</mgrwt>
</event>
<event>
 6    1  0.1831439E-005  0.2026044E+04  0.7818608E-02  0.8594540E-01
         -2   -1    0    0    0  501 -0.00000000000E+00  0.00000000000E+00  0.34611966311E+03  0.34611966311E+03  0.00000000000E+00 0.  1.
          2   -1    0    0  501    0  0.00000000000E+00 -0.00000000000E+00 -0.29649091752E+04  0.29649091752E+04  0.00000000000E+00 0. -1.
         23    2    1    2    0    0  0.50761503059E+03 -0.70585910768E+03 -0.46901804660E+03  0.99210075554E+03  0.91519844523E+02 0.  0.
         11    1    3    3    0    0  0.16949942276E+03 -0.16677381928E+03 -0.13430458502E+03  0.27309573902E+03  0.00000000000E+00 0.  1.
        -11    1    3    3    0    0  0.33811560783E+03 -0.53908528840E+03 -0.33471346157E+03  0.71900501652E+03  0.00000000000E+00 0. -1.
         22    1    1    2    0    0 -0.50761503059E+03  0.70585910768E+03 -0.21497714655E+04  0.23189280828E+04  0.00000000000E+00 0. -1.
<mgrwt>
<rscale>  0 0.20260438E+04</rscale>
<asrwt>0</asrwt>
<pdfrwt beam="1">  1        2 0.45613987E+00 0.20260438E+04</pdfrwt>
<pdfrwt beam="2">  1       -2 0.53249179E-01 0.20260438E+04</pdfrwt>
<totfact> 0.56568667E+00</totfact>
</mgrwt>
</event>
<event>
 6    1  0.1831439E-005  0.8138566E+03  0.7818608E-02  0.9540174E-01
          2   -1    0    0  501    0  0.00000000000E+00  0.00000000000E+00  0.77154980572E+03  0.77154980572E+03  0.00000000000E+00 0.  1.
         -2   -1    0    0    0  501 -0.00000000000E+00 -0.00000000000E+00 -0.21462078195E+03  0.21462078195E+03  0.00000000000E+00 0. -1.
         23    2    1    2    0    0 -0.22203960538E+02 -0.27528691252E+03 -0.71808007418E+02  0.29944927996E+03  0.90761122021E+02 0.  0.
         11    1    3    3    0    0 -0.55233474877E+02 -0.12280323219E+03 -0.30810039313E+02  0.13813265040E+03  0.00000000000E+00 0.  1.
        -11    1    3    3    0    0  0.33029514340E+02 -0.15248368033E+03 -0.40997968105E+02  0.16131662956E+03  0.00000000000E+00 0. -1.
         22    1    1    2    0    0  0.22203960538E+02  0.27528691252E+03  0.62873703119E+03  0.68672130771E+03  0.00000000000E+00 0.  1.
<mgrwt>
<rscale>  0 0.81385655E+03</rscale>
<asrwt>0</asrwt>
<pdfrwt beam="1">  1        2 0.11869997E+00 0.81385655E+03</pdfrwt>
<pdfrwt beam="2">  1       -2 0.33018582E-01 0.81385655E+03</pdfrwt>
<totfact> 0.31073235E+02</totfact>
</mgrwt>
</event>
<event>
 6    1  0.1831439E-005  0.1198884E+04  0.7818608E-02  0.9113834E-01
          1   -1    0    0  501    0  0.00000000000E+00  0.00000000000E+00  0.84404827885E+03  0.84404827885E+03  0.00000000000E+00 0. -1.
         -1   -1    0    0    0  501 -0.00000000000E+00 -0.00000000000E+00 -0.42572302494E+03  0.42572302494E+03  0.00000000000E+00 0.  1.
         23    2    1    2    0    0 -0.31175250430E+03  0.25962387460E+02 -0.32702437781E+03  0.46143366207E+03  0.90068925317E+02 0.  0.
         11    1    3    3    0    0 -0.22345154386E+03 -0.14139126743E+02 -0.19052471418E+03  0.29399009179E+03  0.00000000000E+00 0.  1.
        -11    1    3    3    0    0 -0.88300960447E+02  0.40101514203E+02 -0.13649966363E+03  0.16744357028E+03  0.00000000000E+00 0. -1.
         22    1    1    2    0    0  0.31175250430E+03 -0.25962387460E+02  0.74534963172E+03  0.80833764172E+03  0.00000000000E+00 0. -1.
<mgrwt>
<rscale>  0 0.11988841E+04</rscale>
<asrwt>0</asrwt>
<pdfrwt beam="1">  1        1 0.12985358E+00 0.11988841E+04</pdfrwt>
<pdfrwt beam="2">  1       -1 0.65495850E-01 0.11988841E+04</pdfrwt>
<totfact> 0.47400950E+01</totfact>
</mgrwt>
</event>
<event>
 6    1  0.1831439E-005  0.3452862E+04  0.7818608E-02  0.8125053E-01
          2   -1    0    0  501    0  0.00000000000E+00  0.00000000000E+00  0.12345928287E+04  0.12345928287E+04  0.00000000000E+00 0. -1.
         -2   -1    0    0    0  501 -0.00000000000E+00 -0.00000000000E+00 -0.24142082957E+04  0.24142082957E+04  0.00000000000E+00 0.  1.
         23    2    1    2    0    0 -0.79592307105E+03  0.14048007653E+04 -0.12324838683E+04  0.20333278831E+04  0.91907940003E+02 0.  0.
         13    1    3    3    0    0 -0.40784231311E+03  0.76270231277E+03 -0.60872319006E+03  0.10576360869E+04  0.00000000000E+00 0.  1.
        -13    1    3    3    0    0 -0.38808075794E+03  0.64209845253E+03 -0.62376067826E+03  0.97569179619E+03  0.00000000000E+00 0. -1.
         22    1    1    2    0    0  0.79592307105E+03 -0.14048007653E+04  0.52868401325E+02  0.16154732412E+04  0.00000000000E+00 0. -1.
<mgrwt>
<rscale>  0 0.34528621E+04</rscale>
<asrwt>0</asrwt>
<pdfrwt beam="1">  1        2 0.18993736E+00 0.34528621E+04</pdfrwt>
<pdfrwt beam="2">  1       -2 0.37141666E+00 0.34528621E+04</pdfrwt>
<totfact> 0.16930134E-01</totfact>
</mgrwt>
</event>
<event>
 6    1  0.1831439E-005  0.4846689E+03  0.7818608E-02  0.1017860E+00
          1   -1    0    0  501    0  0.00000000000E+00  0.00000000000E+00  0.10230933625E+04  0.10230933625E+04  0.00000000000E+00 0. -1.
         -1   -1    0    0    0  501 -0.00000000000E+00 -0.00000000000E+00 -0.57400412740E+02  0.57400412740E+02  0.00000000000E+00 0.  1.
         23    2    1    2    0    0  0.17593927766E+03  0.71938520837E+02  0.80332308359E+03  0.83050626826E+03  0.91010465188E+02 0.  0.
         11    1    3    3    0    0  0.11133250461E+03  0.17326382945E+02  0.59654900879E+03  0.60709624444E+03  0.00000000000E+00 0. -1.
        -11    1    3    3    0    0  0.64606773049E+02  0.54612137892E+02  0.20677407481E+03  0.22341002381E+03  0.00000000000E+00 0.  1.
         22    1    1    2    0    0 -0.17593927766E+03 -0.71938520837E+02  0.16236986615E+03  0.24998750696E+03  0.00000000000E+00 0.  1.
<mgrwt>
<rscale>  0 0.48466888E+03</rscale>
<asrwt>0</asrwt>
<pdfrwt beam="1">  1        1 0.15739897E+00 0.48466888E+03</pdfrwt>
<pdfrwt beam="2">  1       -1 0.88308335E-02 0.48466888E+03</pdfrwt>
<totfact> 0.11308228E+03</totfact>
</mgrwt>
</event>
<event>
 6    1  0.1831439E-005  0.1094434E+04  0.7818608E-02  0.9210634E-01
          2   -1    0    0  501    0  0.00000000000E+00  0.00000000000E+00  0.50224905388E+03  0.50224905388E+03  0.00000000000E+00 0. -1.
         -2   -1    0    0    0  501 -0.00000000000E+00 -0.00000000000E+00 -0.59621066310E+03  0.59621066310E+03  0.00000000000E+00 0.  1.
         23    2    1    2    0    0 -0.36423622840E+03  0.38619583802E+03  0.69272027538E+02  0.54306753522E+03  0.91150856434E+02 0.  0.
         11    1    3    3    0    0 -0.19127454991E+03  0.25304234464E+03  0.69792525171E+02  0.32478820513E+03  0.00000000000E+00 0.  1.
        -11    1    3    3    0    0 -0.17296167850E+03  0.13315349338E+03 -0.52049763327E+00  0.21827933010E+03  0.00000000000E+00 0. -1.
         22    1    1    2    0    0  0.36423622840E+03 -0.38619583802E+03 -0.16323363676E+03  0.55539218175E+03  0.00000000000E+00 0.  1.
<mgrwt>
<rscale>  0 0.10944336E+04</rscale>
<asrwt>0</asrwt>
<pdfrwt beam="1">  1        2 0.77269085E-01 0.10944336E+04</pdfrwt>
<pdfrwt beam="2">  1       -2 0.91724717E-01 0.10944336E+04</pdfrwt>
<totfact> 0.61561794E+01</totfact>
</mgrwt>
</event>
<event>
 6    1  0.1831439E-005  0.2741442E+04  0.7818608E-02  0.8321682E-01
         -2   -1    0    0    0  501 -0.00000000000E+00  0.00000000000E+00  0.40897226433E+03  0.40897226433E+03  0.00000000000E+00 0.  1.
          2   -1    0    0  501    0  0.00000000000E+00 -0.00000000000E+00 -0.45941402854E+04  0.45941402854E+04  0.00000000000E+00 0. -1.
         23    2    1    2    0    0  0.11604109705E+03  0.34066741651E+03 -0.45058269643E+04  0.45210938958E+04  0.91068969745E+02 0.  0.
         11    1    3    3    0    0  0.57290735931E+02  0.27156801227E+03 -0.31303828347E+04  0.31426625822E+04  0.00000000000E+00 0. -1.
        -11    1    3    3    0    0  0.58750361124E+02  0.69099404241E+02 -0.13754441296E+04  0.13784313136E+04  0.00000000000E+00 0.  1.
         22    1    1    2    0    0 -0.11604109705E+03 -0.34066741651E+03  0.32065894325E+03  0.48201865396E+03  0.00000000000E+00 0.  1.
<mgrwt>
<rscale>  0 0.27414419E+04</rscale>
<asrwt>0</asrwt>
<pdfrwt beam="1">  1        2 0.70679082E+00 0.27414419E+04</pdfrwt>
<pdfrwt beam="2">  1       -2 0.62918809E-01 0.27414419E+04</pdfrwt>
<totfact> 0.20331018E-01</totfact>
</mgrwt>
</event>
<event>
 6    1  0.1831439E-005  0.1942009E+04  0.7818608E-02  0.8634224E-01
         -1   -1    0    0    0  501 -0.00000000000E+00  0.00000000000E+00  0.32839379378E+03  0.32839379378E+03  0.00000000000E+00 0.  1.
          1   -1    0    0  501    0  0.00000000000E+00 -0.00000000000E+00 -0.28710945771E+04  0.28710945771E+04  0.00000000000E+00 0. -1.
         23    2    1    2    0    0  0.41656857344E+03 -0.78206522539E+03 -0.62763243720E+03  0.10893599000E+04  0.87333398141E+02 0.  0.
         11    1    3    3    0    0  0.29078078628E+03 -0.55010706946E+03 -0.48836047158E+03  0.79099127918E+03  0.00000000000E+00 0. -1.
        -11    1    3    3    0    0  0.12578778716E+03 -0.23195815592E+03 -0.13927196562E+03  0.29836862085E+03  0.00000000000E+00 0.  1.
         22    1    1    2    0    0 -0.41656857344E+03  0.78206522539E+03 -0.19150683461E+04  0.21101284708E+04  0.00000000000E+00 0.  1.
<mgrwt>
<rscale>  0 0.19420089E+04</rscale>
<asrwt>0</asrwt>
<pdfrwt beam="1">  1        1 0.44170684E+00 0.19420089E+04</pdfrwt>
<pdfrwt beam="2">  1       -1 0.50522124E-01 0.19420089E+04</pdfrwt>
<totfact> 0.27237173E+00</totfact>
</mgrwt>
</event>
<event>
 6    1  0.1831439E-005  0.1562784E+04  0.7818608E-02  0.8843743E-01
          1   -1    0    0  501    0  0.00000000000E+00  0.00000000000E+00  0.12431419304E+04  0.12431419304E+04  0.00000000000E+00 0. -1.
         -1   -1    0    0    0  501 -0.00000000000E+00 -0.00000000000E+00 -0.49115368949E+03  0.49115368949E+03  0.00000000000E+00 0.  1.
         23    2    1    2    0    0 -0.65266337968E+03 -0.30216291194E+02 -0.92976388280E+02  0.66619087971E+03  0.91011911334E+02 0.  0.
         11    1    3    3    0    0 -0.14806082397E+03  0.31176669215E+02 -0.18256254058E+02  0.15240499700E+03  0.00000000000E+00 0. -1.
        -11    1    3    3    0    0 -0.50460255571E+03 -0.61392960409E+02 -0.74720134222E+02  0.51378588272E+03  0.00000000000E+00 0.  1.
         22    1    1    2    0    0  0.65266337968E+03  0.30216291194E+02  0.84496462923E+03  0.10681047402E+04  0.00000000000E+00 0. -1.
<mgrwt>
<rscale>  0 0.15627844E+04</rscale>
<asrwt>0</asrwt>
<pdfrwt beam="1">  1        1 0.19125260E+00 0.15627844E+04</pdfrwt>
<pdfrwt beam="2">  1       -1 0.75562106E-01 0.15627844E+04</pdfrwt>
<totfact> 0.16839247E+01</totfact>
</mgrwt>
</event>
<event>
 6    1  0.1831439E-005  0.1182028E+04  0.7818608E-02  0.9128735E-01
          2   -1    0    0  501    0  0.00000000000E+00  0.00000000000E+00  0.76512019018E+03  0.76512019018E+03  0.00000000000E+00 0. -1.
         -2   -1    0    0    0  501 -0.00000000000E+00 -0.00000000000E+00 -0.45652623826E+03  0.45652623826E+03  0.00000000000E+00 0.  1.
         23    2    1    2    0    0  0.12768022732E+03 -0.31154530509E+03 -0.34146616740E+03  0.48956659925E+03  0.98557567154E+02 0.  0.
         13    1    3    3    0    0  0.66546338449E+02 -0.19412016080E+03 -0.26996790202E+03  0.33910723984E+03  0.00000000000E+00 0. -1.
        -13    1    3    3    0    0  0.61133888874E+02 -0.11742514429E+03 -0.71498265380E+02  0.15045935940E+03  0.00000000000E+00 0.  1.
         22    1    1    2    0    0 -0.12768022732E+03  0.31154530509E+03  0.65006011933E+03  0.73207982919E+03  0.00000000000E+00 0. -1.
<mgrwt>
<rscale>  0 0.11820278E+04</rscale>
<asrwt>0</asrwt>
<pdfrwt beam="1">  1        2 0.11771080E+00 0.11820278E+04</pdfrwt>
<pdfrwt beam="2">  1       -2 0.70234805E-01 0.11820278E+04</pdfrwt>
<totfact> 0.66637077E+01</totfact>
</mgrwt>
</event>
<event>
 6    1  0.2616230E-005  0.3009236E+04  0.7818608E-02  0.8241098E-01
          1   -1    0    0  501    0  0.00000000000E+00  0.00000000000E+00  0.16210360324E+04  0.16210360324E+04  0.00000000000E+00 0.  1.
         -1   -1    0    0    0  501 -0.00000000000E+00 -0.00000000000E+00 -0.13965610328E+04  0.13965610328E+04  0.00000000000E+00 0. -1.
         23    2    1    2    0    0 -0.11775811842E+04 -0.84402524751E+03 -0.29054142676E+03  0.14799631741E+04  0.82465823725E+02 0.  0.
         13    1    3    3    0    0 -0.80212538767E+03 -0.54725867412E+03 -0.22674474907E+03  0.99715112956E+03  0.00000000000E+00 0.  1.
        -13    1    3    3    0    0 -0.37545579655E+03 -0.29676657339E+03 -0.63796677684E+02  0.48281204451E+03  0.00000000000E+00 0. -1.
         22    1    1    2    0    0  0.11775811842E+04  0.84402524751E+03  0.51501642635E+03  0.15376338912E+04  0.00000000000E+00 0.  1.
<mgrwt>
<rscale>  0 0.30092363E+04</rscale>
<asrwt>0</asrwt>
<pdfrwt beam="1">  1        1 0.24939016E+00 0.30092363E+04</pdfrwt>
<pdfrwt beam="2">  1       -1 0.21485554E+00 0.30092363E+04</pdfrwt>
<totfact> 0.54707018E-01</totfact>
</mgrwt>
</event>
<event>
 6    1  0.1831439E-005  0.1007529E+04  0.7818608E-02  0.9300326E-01
          2   -1    0    0  501    0  0.00000000000E+00  0.00000000000E+00  0.34687384625E+03  0.34687384625E+03  0.00000000000E+00 0. -1.
         -2   -1    0    0    0  501 -0.00000000000E+00 -0.00000000000E+00 -0.73161632314E+03  0.73161632314E+03  0.00000000000E+00 0.  1.
         23    2    1    2    0    0 -0.46093316422E+03 -0.88049483539E+02 -0.37735381471E+03  0.60916439153E+03  0.92050317792E+02 0.  0.
         13    1    3    3    0    0 -0.31508099407E+03 -0.85484461937E+02 -0.21502480941E+03  0.39092108503E+03  0.00000000000E+00 0.  1.
        -13    1    3    3    0    0 -0.14585217015E+03 -0.25650216013E+01 -0.16232900529E+03  0.21824330650E+03  0.00000000000E+00 0. -1.
         22    1    1    2    0    0  0.46093316422E+03  0.88049483539E+02 -0.73886621819E+01  0.46932577786E+03  0.00000000000E+00 0. -1.
<mgrwt>
<rscale>  0 0.10075288E+04</rscale>
<asrwt>0</asrwt>
<pdfrwt beam="1">  1        2 0.53365208E-01 0.10075288E+04</pdfrwt>
<pdfrwt beam="2">  1       -2 0.11255636E+00 0.10075288E+04</pdfrwt>
<totfact> 0.57874883E+01</totfact>
</mgrwt>
</event>
<event>
 6    1  0.1831439E-005  0.7252910E+03  0.7818608E-02  0.9674933E-01
          1   -1    0    0  501    0  0.00000000000E+00  0.00000000000E+00  0.17177898221E+03  0.17177898221E+03  0.00000000000E+00 0. -1.
         -1   -1    0    0    0  501 -0.00000000000E+00 -0.00000000000E+00 -0.76558695240E+03  0.76558695240E+03  0.00000000000E+00 0.  1.
         23    2    1    2    0    0  0.50886441802E+02  0.19897336681E+03  0.75725398756E+02  0.23704117938E+03  0.90963476442E+02 0.  0.
         11    1    3    3    0    0  0.49819416186E+02  0.17749552335E+03  0.30361030852E+02  0.18683797054E+03  0.00000000000E+00 0.  1.
        -11    1    3    3    0    0  0.10670256162E+01  0.21477843461E+02  0.45364367904E+02  0.50203208849E+02  0.00000000000E+00 0. -1.
         22    1    1    2    0    0 -0.50886441802E+02 -0.19897336681E+03 -0.66953336894E+03  0.70032475523E+03  0.00000000000E+00 0.  1.
<mgrwt>
<rscale>  0 0.72529097E+03</rscale>
<asrwt>0</asrwt>
<pdfrwt beam="1">  1        1 0.26427536E-01 0.72529097E+03</pdfrwt>
<pdfrwt beam="2">  1       -1 0.11778261E+00 0.72529097E+03</pdfrwt>
<totfact> 0.11950845E+02</totfact>
</mgrwt>
</event>
<event>
 6    1  0.1831439E-005  0.1678838E+04  0.7818608E-02  0.8773527E-01
          2   -1    0    0  501    0  0.00000000000E+00  0.00000000000E+00  0.18093607370E+04  0.18093607370E+04  0.00000000000E+00 0. -1.
         -2   -1    0    0    0  501 -0.00000000000E+00 -0.00000000000E+00 -0.38943276685E+03  0.38943276685E+03  0.00000000000E+00 0.  1.
         23    2    1    2    0    0 -0.51524613684E+03 -0.32686361593E+03  0.14624418582E+04  0.15871352368E+04  0.89127247870E+02 0.  0.
         13    1    3    3    0    0 -0.63267784099E+02 -0.56933064077E+02  0.28330439246E+03  0.29581339570E+03  0.00000000000E+00 0.  1.
        -13    1    3    3    0    0 -0.45197835275E+03 -0.26993055185E+03  0.11791374658E+04  0.12913218411E+04  0.00000000000E+00 0. -1.
         22    1    1    2    0    0  0.51524613684E+03  0.32686361593E+03 -0.42513888079E+02  0.61165826703E+03  0.00000000000E+00 0.  1.
<mgrwt>
<rscale>  0 0.16788381E+04</rscale>
<asrwt>0</asrwt>
<pdfrwt beam="1">  1        2 0.27836319E+00 0.16788381E+04</pdfrwt>
<pdfrwt beam="2">  1       -2 0.59912734E-01 0.16788381E+04</pdfrwt>
<totfact> 0.21110417E+01</totfact>
</mgrwt>
</event>
<event>
 6    1  0.1831439E-005  0.7081178E+03  0.7818608E-02  0.9703449E-01
         -1   -1    0    0    0  501 -0.00000000000E+00  0.00000000000E+00  0.29565955294E+03  0.29565955294E+03  0.00000000000E+00 0.  1.
          1   -1    0    0  501    0  0.00000000000E+00 -0.00000000000E+00 -0.42399344251E+03  0.42399344251E+03  0.00000000000E+00 0. -1.
         23    2    1    2    0    0 -0.23301634791E+03  0.16206473349E+02 -0.32753375574E+03  0.41266789019E+03  0.91962809225E+02 0.  0.
         13    1    3    3    0    0 -0.17636232760E+03 -0.25752059043E+02 -0.25856826148E+03  0.31404519577E+03  0.00000000000E+00 0. -1.
        -13    1    3    3    0    0 -0.56654020304E+02  0.41958532392E+02 -0.68965494253E+02  0.98622694420E+02  0.00000000000E+00 0.  1.
         22    1    1    2    0    0  0.23301634791E+03 -0.16206473349E+02  0.19919986617E+03  0.30698510526E+03  0.00000000000E+00 0.  1.
<mgrwt>
<rscale>  0 0.70811782E+03</rscale>
<asrwt>0</asrwt>
<pdfrwt beam="1">  1        1 0.65229760E-01 0.70811782E+03</pdfrwt>
<pdfrwt beam="2">  1       -1 0.45486085E-01 0.70811782E+03</pdfrwt>
<totfact> 0.26986732E+02</totfact>
</mgrwt>
</event>
<event>
 6    1  0.1831439E-005  0.2107629E+04  0.7818608E-02  0.8557890E-01
          1   -1    0    0  501    0  0.00000000000E+00  0.00000000000E+00  0.14483764945E+04  0.14483764945E+04  0.00000000000E+00 0. -1.
         -1   -1    0    0    0  501 -0.00000000000E+00 -0.00000000000E+00 -0.76673779219E+03  0.76673779219E+03  0.00000000000E+00 0.  1.
         23    2    1    2    0    0 -0.28747184311E+03 -0.45621525732E+03 -0.60771783376E+03  0.81754042506E+03  0.90988788019E+02 0.  0.
         11    1    3    3    0    0 -0.10949350469E+03 -0.17341143957E+03 -0.16705469681E+03  0.26451394419E+03  0.00000000000E+00 0.  1.
        -11    1    3    3    0    0 -0.17797833843E+03 -0.28280381775E+03 -0.44066313695E+03  0.55302648087E+03  0.00000000000E+00 0. -1.
         22    1    1    2    0    0  0.28747184311E+03  0.45621525732E+03  0.12893565360E+04  0.13975738616E+04  0.00000000000E+00 0. -1.
<mgrwt>
<rscale>  0 0.21076290E+04</rscale>
<asrwt>0</asrwt>
<pdfrwt beam="1">  1        1 0.22282715E+00 0.21076290E+04</pdfrwt>
<pdfrwt beam="2">  1       -1 0.11795966E+00 0.21076290E+04</pdfrwt>
<totfact> 0.42162212E+00</totfact>
</mgrwt>
</event>
<event>
 6    1  0.1831439E-005  0.2842937E+04  0.7818608E-02  0.8290061E-01
         -2   -1    0    0    0  501 -0.00000000000E+00  0.00000000000E+00  0.66680669873E+03  0.66680669873E+03  0.00000000000E+00 0.  1.
          2   -1    0    0  501    0  0.00000000000E+00 -0.00000000000E+00 -0.30302222449E+04  0.30302222449E+04  0.00000000000E+00 0. -1.
         23    2    1    2    0    0 -0.10116431176E+04 -0.54131106413E+02 -0.24768866854E+04  0.26776037754E+04  0.90787399140E+02 0.  0.
         13    1    3    3    0    0 -0.23381380488E+03 -0.49462359033E+02 -0.55414792556E+03  0.60348599298E+03  0.00000000000E+00 0. -1.
        -13    1    3    3    0    0 -0.77782931271E+03 -0.46687473804E+01 -0.19227387599E+04  0.20741177825E+04  0.00000000000E+00 0.  1.
         22    1    1    2    0    0  0.10116431176E+04  0.54131106413E+02  0.11347113927E+03  0.10194251682E+04  0.00000000000E+00 0.  1.
<mgrwt>
<rscale>  0 0.28429369E+04</rscale>
<asrwt>0</asrwt>
<pdfrwt beam="1">  1        2 0.46618803E+00 0.28429369E+04</pdfrwt>
<pdfrwt beam="2">  1       -2 0.10258565E+00 0.28429369E+04</pdfrwt>
<totfact> 0.11226510E+00</totfact>
</mgrwt>
</event>
<event>
 6    1  0.1831439E-005  0.3627125E+04  0.7818608E-02  0.8084307E-01
          2   -1    0    0  501    0  0.00000000000E+00  0.00000000000E+00  0.13287057151E+04  0.13287057151E+04  0.00000000000E+00 0.  1.
         -2   -1    0    0    0  501 -0.00000000000E+00 -0.00000000000E+00 -0.24753477518E+04  0.24753477518E+04  0.00000000000E+00 0. -1.
         23    2    1    2    0    0 -0.13209709559E+04 -0.11324301291E+04 -0.11059745057E+04  0.20636465857E+04  0.89974218088E+02 0.  0.
         11    1    3    3    0    0 -0.85999311832E+03 -0.75920111154E+03 -0.68213515580E+03  0.13346470927E+04  0.00000000000E+00 0.  1.
        -11    1    3    3    0    0 -0.46097783761E+03 -0.37322901753E+03 -0.42383934993E+03  0.72899949303E+03  0.00000000000E+00 0. -1.
         22    1    1    2    0    0  0.13209709559E+04  0.11324301291E+04 -0.40667530990E+02  0.17404068811E+04  0.00000000000E+00 0.  1.
<mgrwt>
<rscale>  0 0.36271249E+04</rscale>
<asrwt>0</asrwt>
<pdfrwt beam="1">  1        2 0.20441627E+00 0.36271249E+04</pdfrwt>
<pdfrwt beam="2">  1       -2 0.38082272E+00 0.36271249E+04</pdfrwt>
<totfact> 0.12786241E-01</totfact>
</mgrwt>
</event>
<event>
 6    1  0.1831439E-005  0.9442146E+03  0.7818608E-02  0.9371939E-01
          2   -1    0    0  501    0  0.00000000000E+00  0.00000000000E+00  0.85169009742E+03  0.85169009742E+03  0.00000000000E+00 0.  1.
         -2   -1    0    0    0  501 -0.00000000000E+00 -0.00000000000E+00 -0.26169764008E+03  0.26169764008E+03  0.00000000000E+00 0. -1.
         23    2    1    2    0    0  0.24062702937E+03  0.40001215226E+03  0.26555257743E+03  0.54490526206E+03  0.92154674417E+02 0.  0.
         11    1    3    3    0    0  0.26409861204E+02  0.16433672096E+02  0.41115368826E+02  0.51555988023E+02  0.00000000000E+00 0.  1.
        -11    1    3    3    0    0  0.21421716817E+03  0.38357848016E+03  0.22443720860E+03  0.49334927403E+03  0.00000000000E+00 0. -1.
         22    1    1    2    0    0 -0.24062702937E+03 -0.40001215226E+03  0.32443987990E+03  0.56848247545E+03  0.00000000000E+00 0. -1.
<mgrwt>
<rscale>  0 0.94421457E+03</rscale>
<asrwt>0</asrwt>
<pdfrwt beam="1">  1        2 0.13102924E+00 0.94421457E+03</pdfrwt>
<pdfrwt beam="2">  1       -2 0.40261176E-01 0.94421457E+03</pdfrwt>
<totfact> 0.18488396E+02</totfact>
</mgrwt>
</event>
<event>
 6    1  0.1831439E-005  0.1848288E+04  0.7818608E-02  0.8681034E-01
         -2   -1    0    0    0  501 -0.00000000000E+00  0.00000000000E+00  0.31543774183E+03  0.31543774183E+03  0.00000000000E+00 0.  1.
          2   -1    0    0  501    0  0.00000000000E+00 -0.00000000000E+00 -0.27074824217E+04  0.27074824217E+04  0.00000000000E+00 0. -1.
         23    2    1    2    0    0  0.68950241062E+03 -0.21279063667E+03 -0.21371188721E+04  0.22576224458E+04  0.94279398788E+02 0.  0.
         13    1    3    3    0    0  0.44428452442E+03 -0.17073427385E+03 -0.13040559997E+04  0.13882006271E+04  0.00000000000E+00 0. -1.
        -13    1    3    3    0    0  0.24521788620E+03 -0.42056362827E+02 -0.83306287243E+03  0.86942181868E+03  0.00000000000E+00 0.  1.
         22    1    1    2    0    0 -0.68950241062E+03  0.21279063667E+03 -0.25492580780E+03  0.76529771774E+03  0.00000000000E+00 0.  1.
<mgrwt>
<rscale>  0 0.18482880E+04</rscale>
<asrwt>0</asrwt>
<pdfrwt beam="1">  1        2 0.41653576E+00 0.18482880E+04</pdfrwt>
<pdfrwt beam="2">  1       -2 0.48528883E-01 0.18482880E+04</pdfrwt>
<totfact> 0.99588396E+00</totfact>
</mgrwt>
</event>
<event>
 6    1  0.1831439E-005  0.2886550E+04  0.7818608E-02  0.8276891E-01
          2   -1    0    0  501    0  0.00000000000E+00  0.00000000000E+00  0.20977283293E+04  0.20977283293E+04  0.00000000000E+00 0. -1.
         -2   -1    0    0    0  501 -0.00000000000E+00 -0.00000000000E+00 -0.99299894113E+03  0.99299894113E+03  0.00000000000E+00 0.  1.
         23    2    1    2    0    0 -0.62022927199E+03 -0.11608177082E+04  0.11834029426E+04  0.17722540513E+04  0.90883420364E+02 0.  0.
         13    1    3    3    0    0 -0.32638004489E+03 -0.70102489123E+03  0.67488724368E+03  0.10263686587E+04  0.00000000000E+00 0.  1.
        -13    1    3    3    0    0 -0.29384922710E+03 -0.45979281700E+03  0.50851569891E+03  0.74588539259E+03  0.00000000000E+00 0. -1.
         22    1    1    2    0    0  0.62022927199E+03  0.11608177082E+04 -0.78673554392E+02  0.13184732192E+04  0.00000000000E+00 0.  1.
<mgrwt>
<rscale>  0 0.28865495E+04</rscale>
<asrwt>0</asrwt>
<pdfrwt beam="1">  1        2 0.32272743E+00 0.28865495E+04</pdfrwt>
<pdfrwt beam="2">  1       -2 0.15276907E+00 0.28865495E+04</pdfrwt>
<totfact> 0.14531198E+00</totfact>
</mgrwt>
</event>
<event>
 6    1  0.1831439E-005  0.1531152E+04  0.7818608E-02  0.8863997E-01
         -2   -1    0    0    0  501 -0.00000000000E+00  0.00000000000E+00  0.44502810932E+03  0.44502810932E+03  0.00000000000E+00 0.  1.
          2   -1    0    0  501    0  0.00000000000E+00 -0.00000000000E+00 -0.13170104300E+04  0.13170104300E+04  0.00000000000E+00 0. -1.
         23    2    1    2    0    0  0.59571390002E+03  0.13814650969E+03 -0.96248748155E+03  0.11438551580E+04  0.89793994920E+02 0.  0.
         11    1    3    3    0    0  0.31033886501E+03  0.34579551998E+02 -0.43940149591E+03  0.53905438609E+03  0.00000000000E+00 0.  1.
        -11    1    3    3    0    0  0.28537503502E+03  0.10356695770E+03 -0.52308598564E+03  0.60480077191E+03  0.00000000000E+00 0. -1.
         22    1    1    2    0    0 -0.59571390002E+03 -0.13814650969E+03  0.90505160844E+02  0.61818338134E+03  0.00000000000E+00 0.  1.
<mgrwt>
<rscale>  0 0.15311521E+04</rscale>
<asrwt>0</asrwt>
<pdfrwt beam="1">  1        2 0.20261699E+00 0.15311521E+04</pdfrwt>
<pdfrwt beam="2">  1       -2 0.68465863E-01 0.15311521E+04</pdfrwt>
<totfact> 0.30387819E+01</totfact>
</mgrwt>
</event>
<event>
 6    1  0.1831439E-005  0.3771907E+04  0.7818608E-02  0.8052210E-01
          1   -1    0    0  501    0  0.00000000000E+00  0.00000000000E+00  0.16844131165E+04  0.16844131165E+04  0.00000000000E+00 0. -1.
         -1   -1    0    0    0  501 -0.00000000000E+00 -0.00000000000E+00 -0.21116086994E+04  0.21116086994E+04  0.00000000000E+00 0.  1.
         23    2    1    2    0    0  0.15267604956E+04 -0.56202345791E+03 -0.11715465669E+04  0.20069085255E+04  0.91063125940E+02 0.  0.
         11    1    3    3    0    0  0.51733618910E+03 -0.23239086856E+03 -0.38553860340E+03  0.68577129063E+03  0.00000000000E+00 0. -1.
        -11    1    3    3    0    0  0.10094243065E+04 -0.32963258936E+03 -0.78600796352E+03  0.13211372349E+04  0.00000000000E+00 0.  1.
         22    1    1    2    0    0 -0.15267604956E+04  0.56202345791E+03  0.74435098402E+03  0.17891132904E+04  0.00000000000E+00 0. -1.
<mgrwt>
<rscale>  0 0.37719074E+04</rscale>
<asrwt>0</asrwt>
<pdfrwt beam="1">  1        1 0.25914048E+00 0.37719074E+04</pdfrwt>
<pdfrwt beam="2">  1       -1 0.32486288E+00 0.37719074E+04</pdfrwt>
<totfact> 0.88590391E-02</totfact>
</mgrwt>
</event>
<event>
 6    1  0.1831439E-005  0.1233773E+04  0.7818608E-02  0.9083798E-01
          2   -1    0    0  501    0  0.00000000000E+00  0.00000000000E+00  0.14242995287E+04  0.14242995287E+04  0.00000000000E+00 0. -1.
         -2   -1    0    0    0  501 -0.00000000000E+00 -0.00000000000E+00 -0.26718305792E+03  0.26718305792E+03  0.00000000000E+00 0.  1.
         23    2    1    2    0    0 -0.94500823467E+02  0.30185578568E+03  0.13024508731E+04  0.13433886202E+04  0.90925172432E+02 0.  0.
         13    1    3    3    0    0 -0.27704778428E+02  0.28403741569E+02  0.28378046330E+03  0.28654088475E+03  0.00000000000E+00 0. -1.
        -13    1    3    3    0    0 -0.66796045039E+02  0.27345204411E+03  0.10186704098E+04  0.10568477354E+04  0.00000000000E+00 0.  1.
         22    1    1    2    0    0  0.94500823467E+02 -0.30185578568E+03 -0.14533440232E+03  0.34809396645E+03  0.00000000000E+00 0.  1.
<mgrwt>
<rscale>  0 0.12337726E+04</rscale>
<asrwt>0</asrwt>
<pdfrwt beam="1">  1        2 0.21912300E+00 0.12337726E+04</pdfrwt>
<pdfrwt beam="2">  1       -2 0.41105087E-01 0.12337726E+04</pdfrwt>
<totfact> 0.77311754E+01</totfact>
</mgrwt>
</event>
<event>
 6    1  0.1831439E-005  0.4255108E+04  0.7818608E-02  0.7954972E-01
          2   -1    0    0  501    0  0.00000000000E+00  0.00000000000E+00  0.32079139178E+04  0.32079139178E+04  0.00000000000E+00 0. -1.
         -2   -1    0    0    0  501 -0.00000000000E+00 -0.00000000000E+00 -0.14110371024E+04  0.14110371024E+04  0.00000000000E+00 0.  1.
         23    2    1    2    0    0  0.50168396507E+03  0.26880691814E+03 -0.13253573901E+04  0.14452638279E+04  0.90947021517E+02 0.  0.
         13    1    3    3    0    0  0.19335349553E+03  0.72176962495E+02 -0.39618588948E+03  0.44671953972E+03  0.00000000000E+00 0.  1.
        -13    1    3    3    0    0  0.30833046955E+03  0.19662995564E+03 -0.92917150062E+03  0.99854428818E+03  0.00000000000E+00 0. -1.
         22    1    1    2    0    0 -0.50168396507E+03 -0.26880691814E+03  0.31222342055E+04  0.31736871922E+04  0.00000000000E+00 0. -1.
<mgrwt>
<rscale>  0 0.42551078E+04</rscale>
<asrwt>0</asrwt>
<pdfrwt beam="1">  1        2 0.49352521E+00 0.42551078E+04</pdfrwt>
<pdfrwt beam="2">  1       -2 0.21708263E+00 0.42551078E+04</pdfrwt>
<totfact> 0.10204243E-01</totfact>
</mgrwt>
</event>
<event>
 6    1  0.1831439E-005  0.7526522E+03  0.7818608E-02  0.9631199E-01
          2   -1    0    0  501    0  0.00000000000E+00  0.00000000000E+00  0.11061199644E+04  0.11061199644E+04  0.00000000000E+00 0. -1.
         -2   -1    0    0    0  501 -0.00000000000E+00 -0.00000000000E+00 -0.12803433944E+03  0.12803433944E+03  0.00000000000E+00 0.  1.
         23    2    1    2    0    0  0.10925815684E+03  0.29734618388E+03  0.81373026020E+03  0.87727227316E+03  0.84247296579E+02 0.  0.
         13    1    3    3    0    0  0.84624023219E+02  0.15146163001E+03  0.35232792982E+03  0.39272995913E+03  0.00000000000E+00 0.  1.
        -13    1    3    3    0    0  0.24634133616E+02  0.14588455387E+03  0.46140233038E+03  0.48454231403E+03  0.00000000000E+00 0. -1.
         22    1    1    2    0    0 -0.10925815684E+03 -0.29734618388E+03  0.16435536477E+03  0.35688203070E+03  0.00000000000E+00 0.  1.
<mgrwt>
<rscale>  0 0.75265221E+03</rscale>
<asrwt>0</asrwt>
<pdfrwt beam="1">  1        2 0.17017230E+00 0.75265221E+03</pdfrwt>
<pdfrwt beam="2">  1       -2 0.19697591E-01 0.75265221E+03</pdfrwt>
<totfact> 0.47655954E+02</totfact>
</mgrwt>
</event>
<event>
 6    1  0.1831439E-005  0.2642890E+04  0.7818608E-02  0.8353777E-01
          2   -1    0    0  501    0  0.00000000000E+00  0.00000000000E+00  0.28708400990E+04  0.28708400990E+04  0.00000000000E+00 0. -1.
         -2   -1    0    0    0  501 -0.00000000000E+00 -0.00000000000E+00 -0.60825968703E+03  0.60825968703E+03  0.00000000000E+00 0.  1.
         23    2    1    2    0    0 -0.87745727891E+03 -0.84189898109E+03  0.18081664912E+04  0.21809406347E+04  0.91163708799E+02 0.  0.
         13    1    3    3    0    0 -0.66731369799E+03 -0.58528348705E+03  0.13310809176E+04  0.15998877276E+04  0.00000000000E+00 0.  1.
        -13    1    3    3    0    0 -0.21014358093E+03 -0.25661549404E+03  0.47708557352E+03  0.58105290710E+03  0.00000000000E+00 0. -1.
         22    1    1    2    0    0  0.87745727891E+03  0.84189898109E+03  0.45441392083E+03  0.12981591513E+04  0.00000000000E+00 0.  1.
<mgrwt>
<rscale>  0 0.26428896E+04</rscale>
<asrwt>0</asrwt>
<pdfrwt beam="1">  1        2 0.44166770E+00 0.26428896E+04</pdfrwt>
<pdfrwt beam="2">  1       -2 0.93578415E-01 0.26428896E+04</pdfrwt>
<totfact> 0.17811699E+00</totfact>
</mgrwt>
</event>
<event>
 6    1  0.1831439E-005  0.3102316E+04  0.7818608E-02  0.8215103E-01
         -1   -1    0    0    0  501 -0.00000000000E+00  0.00000000000E+00  0.22121696635E+04  0.22121696635E+04  0.00000000000E+00 0.  1.
          1   -1    0    0  501    0  0.00000000000E+00 -0.00000000000E+00 -0.10876609658E+04  0.10876609658E+04  0.00000000000E+00 0. -1.
         23    2    1    2    0    0 -0.10761931562E+04  0.97819817835E+03  0.11323394098E+04  0.18454837981E+04  0.92490672331E+02 0.  0.
         13    1    3    3    0    0 -0.65483010487E+03  0.57371231164E+03  0.62351539602E+03  0.10708500044E+04  0.00000000000E+00 0. -1.
        -13    1    3    3    0    0 -0.42136305133E+03  0.40448586671E+03  0.50882401376E+03  0.77463379372E+03  0.00000000000E+00 0.  1.
         22    1    1    2    0    0  0.10761931562E+04 -0.97819817835E+03 -0.78307121268E+01  0.14543468313E+04  0.00000000000E+00 0. -1.
<mgrwt>
<rscale>  0 0.31023156E+04</rscale>
<asrwt>0</asrwt>
<pdfrwt beam="1">  1        1 0.16733246E+00 0.31023156E+04</pdfrwt>
<pdfrwt beam="2">  1       -1 0.34033379E+00 0.31023156E+04</pdfrwt>
<totfact> 0.19668257E-01</totfact>
</mgrwt>
</event>
<event>
 6    1  0.1831439E-005  0.1851311E+04  0.7818608E-02  0.8679479E-01
         -1   -1    0    0    0  501 -0.00000000000E+00  0.00000000000E+00  0.42751012012E+03  0.42751012012E+03  0.00000000000E+00 0.  1.
          1   -1    0    0  501    0  0.00000000000E+00 -0.00000000000E+00 -0.20042516182E+04  0.20042516182E+04  0.00000000000E+00 0. -1.
         23    2    1    2    0    0  0.21094639826E+03 -0.76342611359E+03 -0.16669805053E+03  0.81449851368E+03  0.91114076210E+02 0.  0.
         11    1    3    3    0    0  0.36526548703E+02 -0.83649313320E+02  0.69403273854E+01  0.91539961346E+02  0.00000000000E+00 0. -1.
        -11    1    3    3    0    0  0.17441984956E+03 -0.67977680027E+03 -0.17363837792E+03  0.72295855233E+03  0.00000000000E+00 0.  1.
         22    1    1    2    0    0 -0.21094639826E+03  0.76342611359E+03 -0.14100434476E+04  0.16172632247E+04  0.00000000000E+00 0.  1.
<mgrwt>
<rscale>  0 0.18513107E+04</rscale>
<asrwt>0</asrwt>
<pdfrwt beam="1">  1        1 0.30834641E+00 0.18513107E+04</pdfrwt>
<pdfrwt beam="2">  1       -1 0.65770786E-01 0.18513107E+04</pdfrwt>
<totfact> 0.65169066E+00</totfact>
</mgrwt>
</event>
<event>
 6    1  0.1831439E-005  0.1772632E+04  0.7818608E-02  0.8720990E-01
         -2   -1    0    0    0  501 -0.00000000000E+00  0.00000000000E+00  0.27815291847E+03  0.27815291847E+03  0.00000000000E+00 0.  1.
          2   -1    0    0  501    0  0.00000000000E+00 -0.00000000000E+00 -0.28241869692E+04  0.28241869692E+04  0.00000000000E+00 0. -1.
         23    2    1    2    0    0 -0.52854409393E+03 -0.48315999494E+03 -0.21835594004E+04  0.22997252154E+04  0.89453739277E+02 0.  0.
         13    1    3    3    0    0 -0.14546835074E+03 -0.18779091608E+03 -0.75553914098E+03  0.79200117599E+03  0.00000000000E+00 0. -1.
        -13    1    3    3    0    0 -0.38307574319E+03 -0.29536907887E+03 -0.14280202594E+04  0.15077240394E+04  0.00000000000E+00 0.  1.
         22    1    1    2    0    0  0.52854409393E+03  0.48315999494E+03 -0.36247465030E+03  0.80261467221E+03  0.00000000000E+00 0.  1.
<mgrwt>
<rscale>  0 0.17726318E+04</rscale>
<asrwt>0</asrwt>
<pdfrwt beam="1">  1        2 0.43449032E+00 0.17726318E+04</pdfrwt>
<pdfrwt beam="2">  1       -2 0.42792755E-01 0.17726318E+04</pdfrwt>
<totfact> 0.10982508E+01</totfact>
</mgrwt>
</event>
<event>
 6    1  0.2214116E-005  0.4485942E+04  0.7818608E-02  0.7913102E-01
          2   -1    0    0  501    0  0.00000000000E+00  0.00000000000E+00  0.34635544738E+04  0.34635544738E+04  0.00000000000E+00 0.  1.
         -2   -1    0    0    0  501 -0.00000000000E+00 -0.00000000000E+00 -0.14525309104E+04  0.14525309104E+04  0.00000000000E+00 0. -1.
         23    2    1    2    0    0 -0.21616714123E+04  0.55865690957E+03  0.12302388105E+04  0.25508061897E+04  0.90575101902E+02 0.  0.
         13    1    3    3    0    0 -0.14756565013E+04  0.34667076777E+03  0.80532590112E+03  0.17164767805E+04  0.00000000000E+00 0. -1.
        -13    1    3    3    0    0 -0.68601491101E+03  0.21198614180E+03  0.42491290937E+03  0.83432940916E+03  0.00000000000E+00 0.  1.
         22    1    1    2    0    0  0.21616714123E+04 -0.55865690957E+03  0.78078475294E+03  0.23652791945E+04  0.00000000000E+00 0. -1.
<mgrwt>
<rscale>  0 0.44859425E+04</rscale>
<asrwt>0</asrwt>
<pdfrwt beam="1">  1        2 0.53285453E+00 0.44859425E+04</pdfrwt>
<pdfrwt beam="2">  1       -2 0.22346630E+00 0.44859425E+04</pdfrwt>
<totfact> 0.61335971E-02</totfact>
</mgrwt>
</event>
<event>
 6    1  0.1831439E-005  0.3146165E+04  0.7818608E-02  0.8203181E-01
         -1   -1    0    0    0  501 -0.00000000000E+00  0.00000000000E+00  0.13695176467E+04  0.13695176467E+04  0.00000000000E+00 0.  1.
          1   -1    0    0  501    0  0.00000000000E+00 -0.00000000000E+00 -0.18069055689E+04  0.18069055689E+04  0.00000000000E+00 0. -1.
         23    2    1    2    0    0 -0.12011031401E+04 -0.48421078779E+03 -0.11181455271E+04  0.17133648584E+04  0.90889371813E+02 0.  0.
         13    1    3    3    0    0 -0.70820830874E+03 -0.24095490862E+03 -0.66770740907E+03  0.10027220256E+04  0.00000000000E+00 0. -1.
        -13    1    3    3    0    0 -0.49289483140E+03 -0.24325587917E+03 -0.45043811802E+03  0.71064283275E+03  0.00000000000E+00 0.  1.
         22    1    1    2    0    0  0.12011031401E+04  0.48421078779E+03  0.68075760486E+03  0.14630583573E+04  0.00000000000E+00 0.  1.
<mgrwt>
<rscale>  0 0.31461653E+04</rscale>
<asrwt>0</asrwt>
<pdfrwt beam="1">  1        1 0.27798547E+00 0.31461653E+04</pdfrwt>
<pdfrwt beam="2">  1       -1 0.21069502E+00 0.31461653E+04</pdfrwt>
<totfact> 0.43080496E-01</totfact>
</mgrwt>
</event>
<event>
 6    1  0.1831439E-005  0.3809718E+04  0.7818608E-02  0.8044073E-01
          2   -1    0    0  501    0  0.00000000000E+00  0.00000000000E+00  0.41380772783E+04  0.41380772783E+04  0.00000000000E+00 0. -1.
         -2   -1    0    0    0  501 -0.00000000000E+00 -0.00000000000E+00 -0.87685335729E+03  0.87685335729E+03  0.00000000000E+00 0.  1.
         23    2    1    2    0    0 -0.13193781642E+04 -0.11870826208E+04  0.25377093230E+04  0.30983197563E+04  0.98452097478E+02 0.  0.
         13    1    3    3    0    0 -0.45562248290E+03 -0.37012545659E+03  0.77750148203E+03  0.97421417312E+03  0.00000000000E+00 0. -1.
        -13    1    3    3    0    0 -0.86375568134E+03 -0.81695716425E+03  0.17602078409E+04  0.21241055832E+04  0.00000000000E+00 0.  1.
         22    1    1    2    0    0  0.13193781642E+04  0.11870826208E+04  0.72351459804E+03  0.19166108793E+04  0.00000000000E+00 0. -1.
<mgrwt>
<rscale>  0 0.38097176E+04</rscale>
<asrwt>0</asrwt>
<pdfrwt beam="1">  1        2 0.63662726E+00 0.38097176E+04</pdfrwt>
<pdfrwt beam="2">  1       -2 0.13490052E+00 0.38097176E+04</pdfrwt>
<totfact> 0.82892759E-02</totfact>
</mgrwt>
</event>
<event>
 6    1  0.1831439E-005  0.1515775E+04  0.7818608E-02  0.8874030E-01
          1   -1    0    0  501    0  0.00000000000E+00  0.00000000000E+00  0.14061002387E+04  0.14061002387E+04  0.00000000000E+00 0. -1.
         -1   -1    0    0    0  501 -0.00000000000E+00 -0.00000000000E+00 -0.40850124139E+03  0.40850124139E+03  0.00000000000E+00 0.  1.
         23    2    1    2    0    0 -0.59132325992E+03 -0.24791918735E+03  0.97794519446E+03  0.11731083834E+04  0.93163054013E+02 0.  0.
         13    1    3    3    0    0 -0.34934962985E+03 -0.16008497891E+03  0.50427374048E+03  0.63400660067E+03  0.00000000000E+00 0. -1.
        -13    1    3    3    0    0 -0.24197363007E+03 -0.87834208440E+02  0.47367145398E+03  0.53910178272E+03  0.00000000000E+00 0.  1.
         22    1    1    2    0    0  0.59132325992E+03  0.24791918735E+03  0.19653802887E+02  0.64149309673E+03  0.00000000000E+00 0.  1.
<mgrwt>
<rscale>  0 0.15157753E+04</rscale>
<asrwt>0</asrwt>
<pdfrwt beam="1">  1        1 0.21632311E+00 0.15157753E+04</pdfrwt>
<pdfrwt beam="2">  1       -1 0.62846345E-01 0.15157753E+04</pdfrwt>
<totfact> 0.18872799E+01</totfact>
</mgrwt>
</event>
<event>
 6    1  0.1831439E-005  0.1346029E+04  0.7818608E-02  0.8993840E-01
         -1   -1    0    0    0  501 -0.00000000000E+00  0.00000000000E+00  0.68573689636E+03  0.68573689636E+03  0.00000000000E+00 0.  1.
          1   -1    0    0  501    0  0.00000000000E+00 -0.00000000000E+00 -0.66052802218E+03  0.66052802218E+03  0.00000000000E+00 0. -1.
         23    2    1    2    0    0 -0.59877706455E+03  0.13155693025E+03 -0.25853637515E+03  0.67072619616E+03  0.84801969383E+02 0.  0.
         13    1    3    3    0    0 -0.20599580512E+03  0.37115905310E+02 -0.46219909530E+02  0.21435517766E+03  0.00000000000E+00 0.  1.
        -13    1    3    3    0    0 -0.39278125943E+03  0.94441024938E+02 -0.21231646562E+03  0.45637101850E+03  0.00000000000E+00 0. -1.
         22    1    1    2    0    0  0.59877706455E+03 -0.13155693025E+03  0.28374524932E+03  0.67553872239E+03  0.00000000000E+00 0.  1.
<mgrwt>
<rscale>  0 0.13460289E+04</rscale>
<asrwt>0</asrwt>
<pdfrwt beam="1">  1        1 0.10161970E+00 0.13460289E+04</pdfrwt>
<pdfrwt beam="2">  1       -1 0.10549798E+00 0.13460289E+04</pdfrwt>
<totfact> 0.24527161E+01</totfact>
</mgrwt>
</event>
<event>
 6    1  0.1831439E-005  0.3683100E+04  0.7818608E-02  0.8071718E-01
          1   -1    0    0  501    0  0.00000000000E+00  0.00000000000E+00  0.24342908486E+04  0.24342908486E+04  0.00000000000E+00 0. -1.
         -1   -1    0    0    0  501 -0.00000000000E+00 -0.00000000000E+00 -0.13931390038E+04  0.13931390038E+04  0.00000000000E+00 0.  1.
         23    2    1    2    0    0  0.15083871568E+04  0.32211829380E+01 -0.57493537204E+03  0.16167783459E+04  0.90439742453E+02 0.  0.
         11    1    3    3    0    0  0.11245662336E+04 -0.36858962433E+02 -0.42434772783E+03  0.12025301622E+04  0.00000000000E+00 0. -1.
        -11    1    3    3    0    0  0.38382092318E+03  0.40080145371E+02 -0.15058764422E+03  0.41424818372E+03  0.00000000000E+00 0.  1.
         22    1    1    2    0    0 -0.15083871568E+04 -0.32211829380E+01  0.16160872168E+04  0.22106515065E+04  0.00000000000E+00 0. -1.
<mgrwt>
<rscale>  0 0.36830995E+04</rscale>
<asrwt>0</asrwt>
<pdfrwt beam="1">  1        1 0.37450628E+00 0.36830995E+04</pdfrwt>
<pdfrwt beam="2">  1       -1 0.21432908E+00 0.36830995E+04</pdfrwt>
<totfact> 0.14523946E-01</totfact>
</mgrwt>
</event>
<event>
 6    1  0.1831439E-005  0.1547562E+04  0.7818608E-02  0.8853427E-01
         -2   -1    0    0    0  501 -0.00000000000E+00  0.00000000000E+00  0.20090328915E+03  0.20090328915E+03  0.00000000000E+00 0.  1.
          2   -1    0    0  501    0  0.00000000000E+00 -0.00000000000E+00 -0.29802251385E+04  0.29802251385E+04  0.00000000000E+00 0. -1.
         23    2    1    2    0    0 -0.44468604054E+03  0.25275076899E+03 -0.20754096331E+03  0.55897558092E+03  0.88044436183E+02 0.  0.
         11    1    3    3    0    0 -0.26294522457E+03  0.12032807105E+03 -0.15483525844E+03  0.32801370865E+03  0.00000000000E+00 0. -1.
        -11    1    3    3    0    0 -0.18174081597E+03  0.13242269793E+03 -0.52705704873E+02  0.23096187227E+03  0.00000000000E+00 0.  1.
         22    1    1    2    0    0  0.44468604054E+03 -0.25275076899E+03 -0.25717808861E+04  0.26221528468E+04  0.00000000000E+00 0. -1.
<mgrwt>
<rscale>  0 0.15475620E+04</rscale>
<asrwt>0</asrwt>
<pdfrwt beam="1">  1        2 0.45849618E+00 0.15475620E+04</pdfrwt>
<pdfrwt beam="2">  1       -2 0.30908198E-01 0.15475620E+04</pdfrwt>
<totfact> 0.16833878E+01</totfact>
</mgrwt>
</event>
<event>
 6    1  0.1831439E-005  0.3508345E+04  0.7818608E-02  0.8111815E-01
          2   -1    0    0  501    0  0.00000000000E+00  0.00000000000E+00  0.31591073724E+04  0.31591073724E+04  0.00000000000E+00 0. -1.
         -2   -1    0    0    0  501 -0.00000000000E+00 -0.00000000000E+00 -0.97404767376E+03  0.97404767376E+03  0.00000000000E+00 0.  1.
         23    2    1    2    0    0 -0.13601674300E+04  0.10067112328E+04  0.16325761451E+04  0.23530536387E+04  0.89630424209E+02 0.  0.
         13    1    3    3    0    0 -0.32572435388E+03  0.26012345175E+03  0.45229807275E+03  0.61508870212E+03  0.00000000000E+00 0.  1.
        -13    1    3    3    0    0 -0.10344430761E+04  0.74658778106E+03  0.11802780723E+04  0.17379649365E+04  0.00000000000E+00 0. -1.
         22    1    1    2    0    0  0.13601674300E+04 -0.10067112328E+04  0.55248355350E+03  0.17801014075E+04  0.00000000000E+00 0.  1.
<mgrwt>
<rscale>  0 0.35083450E+04</rscale>
<asrwt>0</asrwt>
<pdfrwt beam="1">  1        2 0.48601651E+00 0.35083450E+04</pdfrwt>
<pdfrwt beam="2">  1       -2 0.14985349E+00 0.35083450E+04</pdfrwt>
<totfact> 0.33974158E-01</totfact>
</mgrwt>
</event>
<event>
 6    1  0.1831439E-005  0.6095652E+04  0.7818608E-02  0.7678654E-01
         -2   -1    0    0    0  501 -0.00000000000E+00  0.00000000000E+00  0.33839986028E+04  0.33839986028E+04  0.00000000000E+00 0.  1.
          2   -1    0    0  501    0  0.00000000000E+00 -0.00000000000E+00 -0.27450493339E+04  0.27450493339E+04  0.00000000000E+00 0. -1.
         23    2    1    2    0    0  0.56765892701E+03  0.15583951037E+04  0.28897836572E+04  0.33331424662E+04  0.90316986251E+02 0.  0.
         11    1    3    3    0    0  0.45810077915E+03  0.12758274868E+04  0.24281222733E+04  0.27808937186E+04  0.00000000000E+00 0.  1.
        -11    1    3    3    0    0  0.10955814786E+03  0.28256761686E+03  0.46166138391E+03  0.55224874763E+03  0.00000000000E+00 0. -1.
         22    1    1    2    0    0 -0.56765892701E+03 -0.15583951037E+04 -0.22508343882E+04  0.27959054705E+04  0.00000000000E+00 0. -1.
<mgrwt>
<rscale>  0 0.60956519E+04</rscale>
<asrwt>0</asrwt>
<pdfrwt beam="1">  1        2 0.42231528E+00 0.60956519E+04</pdfrwt>
<pdfrwt beam="2">  1       -2 0.52061517E+00 0.60956519E+04</pdfrwt>
<totfact> 0.20971547E-03</totfact>
</mgrwt>
</event>
<event>
 6    1  0.1831439E-005  0.1868304E+04  0.7818608E-02  0.8670796E-01
         -1   -1    0    0    0  501 -0.00000000000E+00  0.00000000000E+00  0.78556293284E+03  0.78556293284E+03  0.00000000000E+00 0.  1.
          1   -1    0    0  501    0  0.00000000000E+00 -0.00000000000E+00 -0.11108466061E+04  0.11108466061E+04  0.00000000000E+00 0. -1.
         23    2    1    2    0    0 -0.49602713329E+03  0.68833955084E+03  0.22803255342E+03  0.88348649105E+03  0.93248486479E+02 0.  0.
         11    1    3    3    0    0 -0.39533712380E+02  0.10560648400E+03  0.40916630874E+02  0.11995755316E+03  0.00000000000E+00 0. -1.
        -11    1    3    3    0    0 -0.45649342091E+03  0.58273306684E+03  0.18711592254E+03  0.76352893789E+03  0.00000000000E+00 0.  1.
         22    1    1    2    0    0  0.49602713329E+03 -0.68833955084E+03 -0.55331622664E+03  0.10129230479E+04  0.00000000000E+00 0. -1.
<mgrwt>
<rscale>  0 0.18683040E+04</rscale>
<asrwt>0</asrwt>
<pdfrwt beam="1">  1        1 0.17089948E+00 0.18683040E+04</pdfrwt>
<pdfrwt beam="2">  1       -1 0.12085584E+00 0.18683040E+04</pdfrwt>
<totfact> 0.71022928E+00</totfact>
</mgrwt>
</event>
<event>
 6    1  0.1831439E-005  0.1270965E+04  0.7818608E-02  0.9052912E-01
          2   -1    0    0  501    0  0.00000000000E+00  0.00000000000E+00  0.29500777311E+04  0.29500777311E+04  0.00000000000E+00 0. -1.
         -2   -1    0    0    0  501 -0.00000000000E+00 -0.00000000000E+00 -0.13689067215E+03  0.13689067215E+03  0.00000000000E+00 0.  1.
         23    2    1    2    0    0 -0.16086511090E+03  0.14815031399E+03  0.28543205713E+04  0.28644418537E+04  0.10027516940E+03 0.  0.
         11    1    3    3    0    0 -0.50297231957E+02  0.55336134721E+02  0.16170459570E+04  0.16187740814E+04  0.00000000000E+00 0. -1.
        -11    1    3    3    0    0 -0.11056787895E+03  0.92814179271E+02  0.12372746143E+04  0.12456677723E+04  0.00000000000E+00 0.  1.
         22    1    1    2    0    0  0.16086511090E+03 -0.14815031399E+03 -0.41133512364E+02  0.22252654961E+03  0.00000000000E+00 0.  1.
<mgrwt>
<rscale>  0 0.12709652E+04</rscale>
<asrwt>0</asrwt>
<pdfrwt beam="1">  1        2 0.45385806E+00 0.12709652E+04</pdfrwt>
<pdfrwt beam="2">  1       -2 0.21060106E-01 0.12709652E+04</pdfrwt>
<totfact> 0.36258931E+01</totfact>
</mgrwt>
</event>
<event>
 6    1  0.1831439E-005  0.3766039E+04  0.7818608E-02  0.8053482E-01
          2   -1    0    0  501    0  0.00000000000E+00  0.00000000000E+00  0.32878256674E+04  0.32878256674E+04  0.00000000000E+00 0. -1.
         -2   -1    0    0    0  501 -0.00000000000E+00 -0.00000000000E+00 -0.10784520916E+04  0.10784520916E+04  0.00000000000E+00 0.  1.
         23    2    1    2    0    0  0.61091082308E+03 -0.17729829265E+04  0.12859331824E+04  0.22759613592E+04  0.98465565895E+02 0.  0.
         13    1    3    3    0    0  0.35888602537E+03 -0.99412364841E+03  0.78060407863E+03  0.13139344486E+04  0.00000000000E+00 0. -1.
        -13    1    3    3    0    0  0.25202479772E+03 -0.77885927806E+03  0.50532910374E+03  0.96202691063E+03  0.00000000000E+00 0.  1.
         22    1    1    2    0    0 -0.61091082308E+03  0.17729829265E+04  0.92344039344E+03  0.20903163999E+04  0.00000000000E+00 0.  1.
<mgrwt>
<rscale>  0 0.37660390E+04</rscale>
<asrwt>0</asrwt>
<pdfrwt beam="1">  1        2 0.50581933E+00 0.37660390E+04</pdfrwt>
<pdfrwt beam="2">  1       -2 0.16591571E+00 0.37660390E+04</pdfrwt>
<totfact> 0.20779814E-01</totfact>
</mgrwt>
</event>
<event>
 6    1  0.1831439E-005  0.2153270E+04  0.7818608E-02  0.8538134E-01
         -2   -1    0    0    0  501 -0.00000000000E+00  0.00000000000E+00  0.78614631542E+03  0.78614631542E+03  0.00000000000E+00 0.  1.
          2   -1    0    0  501    0  0.00000000000E+00 -0.00000000000E+00 -0.14744620245E+04  0.14744620245E+04  0.00000000000E+00 0. -1.
         23    2    1    2    0    0 -0.35356123148E+03 -0.29497805575E+01 -0.14101338816E+04  0.14568448673E+04  0.94367143154E+02 0.  0.
         13    1    3    3    0    0 -0.15131951071E+03  0.44215999561E+02 -0.56640214878E+03  0.58793200549E+03  0.00000000000E+00 0. -1.
        -13    1    3    3    0    0 -0.20224172077E+03 -0.47165780119E+02 -0.84373173287E+03  0.86891286185E+03  0.00000000000E+00 0.  1.
         22    1    1    2    0    0  0.35356123148E+03  0.29497805575E+01  0.72181817257E+03  0.80376347259E+03  0.00000000000E+00 0.  1.
<mgrwt>
<rscale>  0 0.21532700E+04</rscale>
<asrwt>0</asrwt>
<pdfrwt beam="1">  1        2 0.22684031E+00 0.21532700E+04</pdfrwt>
<pdfrwt beam="2">  1       -2 0.12094559E+00 0.21532700E+04</pdfrwt>
<totfact> 0.62713465E+00</totfact>
</mgrwt>
</event>
<event>
 6    1  0.1831439E-005  0.3270676E+04  0.7818608E-02  0.8170397E-01
          2   -1    0    0  501    0  0.00000000000E+00  0.00000000000E+00  0.17723994198E+04  0.17723994198E+04  0.00000000000E+00 0. -1.
         -2   -1    0    0    0  501 -0.00000000000E+00 -0.00000000000E+00 -0.15088757767E+04  0.15088757767E+04  0.00000000000E+00 0.  1.
         23    2    1    2    0    0  0.11893357530E+04  0.73279758607E+03 -0.71851961743E+03  0.15736684500E+04  0.93005990679E+02 0.  0.
         13    1    3    3    0    0  0.45713668922E+03  0.28114127258E+03 -0.32725109286E+03  0.62857588687E+03  0.00000000000E+00 0.  1.
        -13    1    3    3    0    0  0.73219906376E+03  0.45165631349E+03 -0.39126852458E+03  0.94509256309E+03  0.00000000000E+00 0. -1.
         22    1    1    2    0    0 -0.11893357530E+04 -0.73279758607E+03  0.98204326044E+03  0.17076067465E+04  0.00000000000E+00 0. -1.
<mgrwt>
<rscale>  0 0.32706761E+04</rscale>
<asrwt>0</asrwt>
<pdfrwt beam="1">  1        2 0.27267684E+00 0.32706761E+04</pdfrwt>
<pdfrwt beam="2">  1       -2 0.23213473E+00 0.32706761E+04</pdfrwt>
<totfact> 0.62050408E-01</totfact>
</mgrwt>
</event>
<event>
 6    1  0.1831439E-005  0.2595294E+04  0.7818608E-02  0.8369801E-01
          1   -1    0    0  501    0  0.00000000000E+00  0.00000000000E+00  0.79281812483E+03  0.79281812483E+03  0.00000000000E+00 0. -1.
         -1   -1    0    0    0  501 -0.00000000000E+00 -0.00000000000E+00 -0.21239272207E+04  0.21239272207E+04  0.00000000000E+00 0.  1.
         23    2    1    2    0    0  0.30607227384E+03 -0.64655623031E+03 -0.18809755884E+04  0.20144879790E+04  0.91528452598E+02 0.  0.
         11    1    3    3    0    0  0.21561751835E+03 -0.35996615050E+03 -0.11490253978E+04  0.12232440102E+04  0.00000000000E+00 0. -1.
        -11    1    3    3    0    0  0.90454755485E+02 -0.28659007980E+03 -0.73195019062E+03  0.79124396881E+03  0.00000000000E+00 0.  1.
         22    1    1    2    0    0 -0.30607227384E+03  0.64655623031E+03  0.54986649256E+03  0.90225736650E+03  0.00000000000E+00 0. -1.
<mgrwt>
<rscale>  0 0.25952942E+04</rscale>
<asrwt>0</asrwt>
<pdfrwt beam="1">  1        1 0.12197202E+00 0.25952942E+04</pdfrwt>
<pdfrwt beam="2">  1       -1 0.32675803E+00 0.25952942E+04</pdfrwt>
<totfact> 0.43698493E-01</totfact>
</mgrwt>
</event>
<event>
 6    1  0.1831439E-005  0.7389534E+03  0.7818608E-02  0.9652842E-01
          1   -1    0    0  501    0  0.00000000000E+00  0.00000000000E+00  0.20896845516E+04  0.20896845516E+04  0.00000000000E+00 0. -1.
         -1   -1    0    0    0  501 -0.00000000000E+00 -0.00000000000E+00 -0.65327105370E+02  0.65327105370E+02  0.00000000000E+00 0.  1.
         23    2    1    2    0    0  0.29724292018E+03  0.14052815449E+03  0.57455698093E+03  0.66839707847E+03  0.92398129733E+02 0.  0.
         11    1    3    3    0    0  0.20490888734E+03  0.61113327288E+02  0.42296514776E+03  0.47394304205E+03  0.00000000000E+00 0.  1.
        -11    1    3    3    0    0  0.92334032839E+02  0.79414827204E+02  0.15159183316E+03  0.19445403642E+03  0.00000000000E+00 0. -1.
         22    1    1    2    0    0 -0.29724292018E+03 -0.14052815449E+03  0.14498004653E+04  0.14866145784E+04  0.00000000000E+00 0. -1.
<mgrwt>
<rscale>  0 0.73895343E+03</rscale>
<asrwt>0</asrwt>
<pdfrwt beam="1">  1        1 0.32148988E+00 0.73895343E+03</pdfrwt>
<pdfrwt beam="2">  1       -1 0.10050326E-01 0.73895343E+03</pdfrwt>
<totfact> 0.16741133E+02</totfact>
</mgrwt>
</event>
<event>
 6    1  0.1831439E-005  0.1625857E+04  0.7818608E-02  0.8804819E-01
          1   -1    0    0  501    0  0.00000000000E+00  0.00000000000E+00  0.20403781903E+04  0.20403781903E+04  0.00000000000E+00 0. -1.
         -1   -1    0    0    0  501 -0.00000000000E+00 -0.00000000000E+00 -0.32388745820E+03  0.32388745820E+03  0.00000000000E+00 0.  1.
         23    2    1    2    0    0 -0.72487360586E+03 -0.11955689962E+03  0.13579471235E+04  0.15467761281E+04  0.93597026724E+02 0.  0.
         11    1    3    3    0    0 -0.34070842285E+03 -0.99980424824E+02  0.61451017195E+03  0.70971900509E+03  0.00000000000E+00 0.  1.
        -11    1    3    3    0    0 -0.38416518301E+03 -0.19576474799E+02  0.74343695153E+03  0.83705712297E+03  0.00000000000E+00 0. -1.
         22    1    1    2    0    0  0.72487360586E+03  0.11955689962E+03  0.35854360857E+03  0.81748952040E+03  0.00000000000E+00 0.  1.
<mgrwt>
<rscale>  0 0.16258572E+04</rscale>
<asrwt>0</asrwt>
<pdfrwt beam="1">  1        1 0.31390433E+00 0.16258572E+04</pdfrwt>
<pdfrwt beam="2">  1       -1 0.49828841E-01 0.16258572E+04</pdfrwt>
<totfact> 0.10827772E+01</totfact>
</mgrwt>
</event>
<event>
 6    1  0.1831439E-005  0.3174346E+04  0.7818608E-02  0.8195625E-01
          2   -1    0    0  501    0  0.00000000000E+00  0.00000000000E+00  0.17675300232E+04  0.17675300232E+04  0.00000000000E+00 0. -1.
         -2   -1    0    0    0  501 -0.00000000000E+00 -0.00000000000E+00 -0.14252197509E+04  0.14252197509E+04  0.00000000000E+00 0.  1.
         23    2    1    2    0    0  0.77799246686E+03 -0.11174624772E+04  0.98896946386E+03  0.16853802851E+04  0.91931706970E+02 0.  0.
         13    1    3    3    0    0  0.25637298475E+03 -0.38449640085E+03  0.28377654107E+03  0.54230407968E+03  0.00000000000E+00 0.  1.
        -13    1    3    3    0    0  0.52161948211E+03 -0.73296607630E+03  0.70519292279E+03  0.11430762055E+04  0.00000000000E+00 0. -1.
         22    1    1    2    0    0 -0.77799246686E+03  0.11174624772E+04 -0.64665919150E+03  0.15073694890E+04  0.00000000000E+00 0.  1.
<mgrwt>
<rscale>  0 0.31743464E+04</rscale>
<asrwt>0</asrwt>
<pdfrwt beam="1">  1        2 0.27192770E+00 0.31743464E+04</pdfrwt>
<pdfrwt beam="2">  1       -2 0.21926458E+00 0.31743464E+04</pdfrwt>
<totfact> 0.75832913E-01</totfact>
</mgrwt>
</event>
<event>
 6    1  0.1831439E-005  0.1261139E+04  0.7818608E-02  0.9060963E-01
         -2   -1    0    0    0  501 -0.00000000000E+00  0.00000000000E+00  0.70887071112E+03  0.70887071112E+03  0.00000000000E+00 0.  1.
          2   -1    0    0  501    0  0.00000000000E+00 -0.00000000000E+00 -0.56091699359E+03  0.56091699359E+03  0.00000000000E+00 0. -1.
         23    2    1    2    0    0 -0.56788666825E+03  0.19440735432E+03  0.25770410619E+03  0.65959541109E+03  0.91461536114E+02 0.  0.
         11    1    3    3    0    0 -0.20794961621E+03  0.26379436565E+02  0.99365564566E+02  0.23197506973E+03  0.00000000000E+00 0.  1.
        -11    1    3    3    0    0 -0.35993705204E+03  0.16802791775E+03  0.15833854163E+03  0.42762034135E+03  0.00000000000E+00 0. -1.
         22    1    1    2    0    0  0.56788666825E+03 -0.19440735432E+03 -0.10975038865E+03  0.61019229362E+03  0.00000000000E+00 0. -1.
<mgrwt>
<rscale>  0 0.12611386E+04</rscale>
<asrwt>0</asrwt>
<pdfrwt beam="1">  1        2 0.86294923E-01 0.12611386E+04</pdfrwt>
<pdfrwt beam="2">  1       -2 0.10905703E+00 0.12611386E+04</pdfrwt>
<totfact> 0.35457907E+01</totfact>
</mgrwt>
</event>
<event>
 6    1  0.1831439E-005  0.1361869E+04  0.7818608E-02  0.8981891E-01
         -1   -1    0    0    0  501 -0.00000000000E+00  0.00000000000E+00  0.58784093579E+03  0.58784093579E+03  0.00000000000E+00 0.  1.
          1   -1    0    0  501    0  0.00000000000E+00 -0.00000000000E+00 -0.78877127615E+03  0.78877127615E+03  0.00000000000E+00 0. -1.
         23    2    1    2    0    0 -0.31593701640E+02  0.33101731380E+03 -0.69919090787E+03  0.77758448542E+03  0.72104662151E+02 0.  0.
         11    1    3    3    0    0 -0.52401813338E+02  0.20015284225E+03 -0.45251757444E+03  0.49757337698E+03  0.00000000000E+00 0.  1.
        -11    1    3    3    0    0  0.20808111698E+02  0.13086447154E+03 -0.24667333343E+03  0.28001110844E+03  0.00000000000E+00 0. -1.
         22    1    1    2    0    0  0.31593701640E+02 -0.33101731380E+03  0.49826056750E+03  0.59902772652E+03  0.00000000000E+00 0.  1.
<mgrwt>
<rscale>  0 0.13618694E+04</rscale>
<asrwt>0</asrwt>
<pdfrwt beam="1">  1        1 0.12134943E+00 0.13618694E+04</pdfrwt>
<pdfrwt beam="2">  1       -1 0.90437067E-01 0.13618694E+04</pdfrwt>
<totfact> 0.26443307E+01</totfact>
</mgrwt>
</event>
<event>
 6    1  0.1831439E-005  0.3142983E+04  0.7818608E-02  0.8204040E-01
         -2   -1    0    0    0  501 -0.00000000000E+00  0.00000000000E+00  0.81410476119E+03  0.81410476119E+03  0.00000000000E+00 0.  1.
          2   -1    0    0  501    0  0.00000000000E+00 -0.00000000000E+00 -0.30334986629E+04  0.30334986629E+04  0.00000000000E+00 0. -1.
         23    2    1    2    0    0  0.14496658867E+04  0.55973236790E+03 -0.83346641281E+03  0.17653866939E+04  0.84216453318E+02 0.  0.
         11    1    3    3    0    0  0.37817207121E+03  0.10683424993E+03 -0.20914182332E+03  0.44516061671E+03  0.00000000000E+00 0. -1.
        -11    1    3    3    0    0  0.10714938155E+04  0.45289811797E+03 -0.62432458949E+03  0.13202260772E+04  0.00000000000E+00 0.  1.
         22    1    1    2    0    0 -0.14496658867E+04 -0.55973236790E+03 -0.13859274889E+04  0.20822167302E+04  0.00000000000E+00 0. -1.
<mgrwt>
<rscale>  0 0.31429831E+04</rscale>
<asrwt>0</asrwt>
<pdfrwt beam="1">  1        2 0.46669210E+00 0.31429831E+04</pdfrwt>
<pdfrwt beam="2">  1       -2 0.12524689E+00 0.31429831E+04</pdfrwt>
<totfact> 0.66902211E-01</totfact>
</mgrwt>
</event>
<event>
 6    1  0.1831439E-005  0.4378587E+04  0.7818608E-02  0.7932244E-01
          2   -1    0    0  501    0  0.00000000000E+00  0.00000000000E+00  0.45462687981E+04  0.45462687981E+04  0.00000000000E+00 0. -1.
         -2   -1    0    0    0  501 -0.00000000000E+00 -0.00000000000E+00 -0.10542724375E+04  0.10542724375E+04  0.00000000000E+00 0.  1.
         23    2    1    2    0    0 -0.17808959407E+04  0.10460514421E+04  0.82174349729E+03  0.22247355058E+04  0.91497126746E+02 0.  0.
         13    1    3    3    0    0 -0.74219675063E+03  0.41487178487E+03  0.38269560127E+03  0.93243259153E+03  0.00000000000E+00 0. -1.
        -13    1    3    3    0    0 -0.10386991901E+04  0.63117965726E+03  0.43904789602E+03  0.12923029142E+04  0.00000000000E+00 0.  1.
         22    1    1    2    0    0  0.17808959407E+04 -0.10460514421E+04  0.26702528633E+04  0.33758057298E+04  0.00000000000E+00 0.  1.
<mgrwt>
<rscale>  0 0.43785869E+04</rscale>
<asrwt>0</asrwt>
<pdfrwt beam="1">  1        2 0.69942596E+00 0.43785869E+04</pdfrwt>
<pdfrwt beam="2">  1       -2 0.16219576E+00 0.43785869E+04</pdfrwt>
<totfact> 0.20387760E-02</totfact>
</mgrwt>
</event>
<event>
 6    1  0.1831439E-005  0.1977322E+04  0.7818608E-02  0.8617297E-01
          1   -1    0    0  501    0  0.00000000000E+00  0.00000000000E+00  0.26308559667E+04  0.26308559667E+04  0.00000000000E+00 0. -1.
         -1   -1    0    0    0  501 -0.00000000000E+00 -0.00000000000E+00 -0.37153326467E+03  0.37153326467E+03  0.00000000000E+00 0.  1.
         23    2    1    2    0    0  0.76775087858E+03 -0.40638730618E+03  0.18420447576E+04  0.20386916974E+04  0.92427775708E+02 0.  0.
         11    1    3    3    0    0  0.53719637291E+03 -0.33083073280E+03  0.13411681481E+04  0.14821474010E+04  0.00000000000E+00 0. -1.
        -11    1    3    3    0    0  0.23055450567E+03 -0.75556573379E+02  0.50087660945E+03  0.55654429631E+03  0.00000000000E+00 0.  1.
         22    1    1    2    0    0 -0.76775087858E+03  0.40638730618E+03  0.41727794448E+03  0.96369753405E+03  0.00000000000E+00 0.  1.
<mgrwt>
<rscale>  0 0.19773219E+04</rscale>
<asrwt>0</asrwt>
<pdfrwt beam="1">  1        1 0.40474706E+00 0.19773219E+04</pdfrwt>
<pdfrwt beam="2">  1       -1 0.57158965E-01 0.19773219E+04</pdfrwt>
<totfact> 0.31649565E+00</totfact>
</mgrwt>
</event>
<event>
 6    1  0.1831439E-005  0.2094487E+04  0.7818608E-02  0.8563676E-01
         -2   -1    0    0    0  501 -0.00000000000E+00  0.00000000000E+00  0.46732418411E+03  0.46732418411E+03  0.00000000000E+00 0.  1.
          2   -1    0    0  501    0  0.00000000000E+00 -0.00000000000E+00 -0.23468061479E+04  0.23468061479E+04  0.00000000000E+00 0. -1.
         23    2    1    2    0    0 -0.83239608711E+03 -0.10587044506E+03 -0.17789646514E+04  0.19690294345E+04  0.90938912506E+02 0.  0.
         11    1    3    3    0    0 -0.73771544692E+02 -0.25853529046E+02 -0.21910513079E+03  0.23263212183E+03  0.00000000000E+00 0. -1.
        -11    1    3    3    0    0 -0.75862454242E+03 -0.80016916017E+02 -0.15598595206E+04  0.17363973126E+04  0.00000000000E+00 0.  1.
         22    1    1    2    0    0  0.83239608711E+03  0.10587044506E+03 -0.10051731240E+03  0.84510089756E+03  0.00000000000E+00 0.  1.
<mgrwt>
<rscale>  0 0.20944873E+04</rscale>
<asrwt>0</asrwt>
<pdfrwt beam="1">  1        2 0.36104711E+00 0.20944873E+04</pdfrwt>
<pdfrwt beam="2">  1       -2 0.71896027E-01 0.20944873E+04</pdfrwt>
<totfact> 0.68923455E+00</totfact>
</mgrwt>
</event>
<event>
 6    1  0.2278114E-005  0.3188546E+04  0.7818608E-02  0.8191849E-01
          2   -1    0    0  501    0  0.00000000000E+00  0.00000000000E+00  0.17220883076E+04  0.17220883076E+04  0.00000000000E+00 0.  1.
         -2   -1    0    0    0  501 -0.00000000000E+00 -0.00000000000E+00 -0.14759447035E+04  0.14759447035E+04  0.00000000000E+00 0. -1.
         23    2    1    2    0    0 -0.67371333038E+03 -0.12876969075E+04 -0.53099735574E+03  0.15500035670E+04  0.92194841878E+02 0.  0.
         11    1    3    3    0    0 -0.48659086757E+03 -0.92095029604E+03 -0.42412019258E+03  0.11246324101E+04  0.00000000000E+00 0. -1.
        -11    1    3    3    0    0 -0.18712246281E+03 -0.36674661146E+03 -0.10687716316E+03  0.42537115689E+03  0.00000000000E+00 0.  1.
         22    1    1    2    0    0  0.67371333038E+03  0.12876969075E+04  0.77714095988E+03  0.16480294441E+04  0.00000000000E+00 0.  1.
<mgrwt>
<rscale>  0 0.31885465E+04</rscale>
<asrwt>0</asrwt>
<pdfrwt beam="1">  1        2 0.26493666E+00 0.31885465E+04</pdfrwt>
<pdfrwt beam="2">  1       -2 0.22706842E+00 0.31885465E+04</pdfrwt>
<totfact> 0.71674422E-01</totfact>
</mgrwt>
</event>
<event>
 6    1  0.1831439E-005  0.1446741E+04  0.7818608E-02  0.8920663E-01
         -2   -1    0    0    0  501 -0.00000000000E+00  0.00000000000E+00  0.21109612908E+03  0.21109612908E+03  0.00000000000E+00 0. -1.
          2   -1    0    0  501    0  0.00000000000E+00 -0.00000000000E+00 -0.24787991243E+04  0.24787991243E+04  0.00000000000E+00 0.  1.
         23    2    1    2    0    0 -0.36417439543E+03  0.56582470365E+03 -0.66218765242E+03  0.94907357913E+03  0.97301521274E+02 0.  0.
         11    1    3    3    0    0 -0.32553640484E+03  0.43465124560E+03 -0.52240713504E+03  0.75352828143E+03  0.00000000000E+00 0.  1.
        -11    1    3    3    0    0 -0.38637990590E+02  0.13117345805E+03 -0.13978051738E+03  0.19554529770E+03  0.00000000000E+00 0. -1.
         22    1    1    2    0    0  0.36417439543E+03 -0.56582470365E+03 -0.16055153428E+04  0.17408216742E+04  0.00000000000E+00 0.  1.
<mgrwt>
<rscale>  0 0.14467410E+04</rscale>
<asrwt>0</asrwt>
<pdfrwt beam="1">  1        2 0.38135371E+00 0.14467410E+04</pdfrwt>
<pdfrwt beam="2">  1       -2 0.32476327E-01 0.14467410E+04</pdfrwt>
<totfact> 0.30779926E+01</totfact>
</mgrwt>
</event>
<event>
 6    1  0.1831439E-005  0.4221823E+04  0.7818608E-02  0.7961234E-01
          2   -1    0    0  501    0  0.00000000000E+00  0.00000000000E+00  0.29910077036E+04  0.29910077036E+04  0.00000000000E+00 0. -1.
         -2   -1    0    0    0  501 -0.00000000000E+00 -0.00000000000E+00 -0.14897814036E+04  0.14897814036E+04  0.00000000000E+00 0.  1.
         23    2    1    2    0    0  0.13780492664E+04 -0.58017330182E+03  0.23309264177E+04  0.27708115851E+04  0.92509646709E+02 0.  0.
         13    1    3    3    0    0  0.81683426864E+03 -0.31102694995E+03  0.14240494774E+04  0.16708898528E+04  0.00000000000E+00 0. -1.
        -13    1    3    3    0    0  0.56121499775E+03 -0.26914635187E+03  0.90687694021E+03  0.10999217323E+04  0.00000000000E+00 0.  1.
         22    1    1    2    0    0 -0.13780492664E+04  0.58017330182E+03 -0.82970011764E+03  0.17099775221E+04  0.00000000000E+00 0.  1.
<mgrwt>
<rscale>  0 0.42218231E+04</rscale>
<asrwt>0</asrwt>
<pdfrwt beam="1">  1        2 0.46015503E+00 0.42218231E+04</pdfrwt>
<pdfrwt beam="2">  1       -2 0.22919714E+00 0.42218231E+04</pdfrwt>
<totfact> 0.11816072E-01</totfact>
</mgrwt>
</event>
<event>
 6    1  0.1831439E-005  0.4341157E+04  0.7818608E-02  0.7939051E-01
         -2   -1    0    0    0  501 -0.00000000000E+00  0.00000000000E+00  0.31173557918E+04  0.31173557918E+04  0.00000000000E+00 0.  1.
          2   -1    0    0  501    0  0.00000000000E+00 -0.00000000000E+00 -0.15113483000E+04  0.15113483000E+04  0.00000000000E+00 0. -1.
         23    2    1    2    0    0 -0.15062519046E+04  0.49036580521E+02  0.24675568129E+04  0.28927701590E+04  0.89906517726E+02 0.  0.
         13    1    3    3    0    0 -0.93747059786E+03 -0.28544961633E+01  0.14791127633E+04  0.17511806979E+04  0.00000000000E+00 0. -1.
        -13    1    3    3    0    0 -0.56878130670E+03  0.51891076684E+02  0.98844404958E+03  0.11415894612E+04  0.00000000000E+00 0.  1.
         22    1    1    2    0    0  0.15062519046E+04 -0.49036580521E+02 -0.86154932112E+03  0.17359339328E+04  0.00000000000E+00 0. -1.
<mgrwt>
<rscale>  0 0.43411567E+04</rscale>
<asrwt>0</asrwt>
<pdfrwt beam="1">  1        2 0.23251512E+00 0.43411567E+04</pdfrwt>
<pdfrwt beam="2">  1       -2 0.47959320E+00 0.43411567E+04</pdfrwt>
<totfact> 0.21370995E-02</totfact>
</mgrwt>
</event>
<event>
 6    1  0.1831439E-005  0.8723341E+03  0.7818608E-02  0.9460842E-01
         -1   -1    0    0    0  501 -0.00000000000E+00  0.00000000000E+00  0.88086838104E+03  0.88086838104E+03  0.00000000000E+00 0.  1.
          1   -1    0    0  501    0  0.00000000000E+00 -0.00000000000E+00 -0.21597064999E+03  0.21597064999E+03  0.00000000000E+00 0. -1.
         23    2    1    2    0    0  0.13919720195E+03  0.40632532393E+03  0.29122840180E+03  0.52753691658E+03  0.94895133957E+02 0.  0.
         13    1    3    3    0    0  0.27250245278E+02  0.78589870057E+02  0.14955577693E+02  0.84513980190E+02  0.00000000000E+00 0. -1.
        -13    1    3    3    0    0  0.11194695667E+03  0.32773545387E+03  0.27627282411E+03  0.44302293639E+03  0.00000000000E+00 0.  1.
         22    1    1    2    0    0 -0.13919720195E+03 -0.40632532393E+03  0.37366932925E+03  0.56930211445E+03  0.00000000000E+00 0. -1.
<mgrwt>
<rscale>  0 0.87233415E+03</rscale>
<asrwt>0</asrwt>
<pdfrwt beam="1">  1        1 0.33226254E-01 0.87233415E+03</pdfrwt>
<pdfrwt beam="2">  1       -1 0.13551821E+00 0.87233415E+03</pdfrwt>
<totfact> 0.62000226E+01</totfact>
</mgrwt>
</event>
<event>
 6    1  0.1831439E-005  0.1990955E+04  0.7818608E-02  0.8610861E-01
          2   -1    0    0  501    0  0.00000000000E+00  0.00000000000E+00  0.23961372004E+04  0.23961372004E+04  0.00000000000E+00 0. -1.
         -2   -1    0    0    0  501 -0.00000000000E+00 -0.00000000000E+00 -0.41357224678E+03  0.41357224678E+03  0.00000000000E+00 0.  1.
         23    2    1    2    0    0  0.66973980354E+03  0.59544973249E+03  0.15978654493E+04  0.18344630696E+04  0.94704652206E+02 0.  0.
         11    1    3    3    0    0  0.13690715177E+03  0.16926694296E+03  0.34795001866E+03  0.41044376189E+03  0.00000000000E+00 0.  1.
        -11    1    3    3    0    0  0.53283265176E+03  0.42618278953E+03  0.12499154307E+04  0.14240193077E+04  0.00000000000E+00 0. -1.
         22    1    1    2    0    0 -0.66973980354E+03 -0.59544973249E+03  0.38469950424E+03  0.97524637755E+03  0.00000000000E+00 0.  1.
<mgrwt>
<rscale>  0 0.19909554E+04</rscale>
<asrwt>0</asrwt>
<pdfrwt beam="1">  1        2 0.36863648E+00 0.19909554E+04</pdfrwt>
<pdfrwt beam="2">  1       -2 0.63626501E-01 0.19909554E+04</pdfrwt>
<totfact> 0.84941255E+00</totfact>
</mgrwt>
</event>
<event>
 6    1  0.1831439E-005  0.1490826E+04  0.7818608E-02  0.8890576E-01
         -1   -1    0    0    0  501 -0.00000000000E+00  0.00000000000E+00  0.20930150540E+04  0.20930150540E+04  0.00000000000E+00 0.  1.
          1   -1    0    0  501    0  0.00000000000E+00 -0.00000000000E+00 -0.26547387593E+03  0.26547387593E+03  0.00000000000E+00 0. -1.
         23    2    1    2    0    0  0.54658516792E+03 -0.32148141119E+03  0.15287071335E+04  0.16574843438E+04  0.90571554962E+02 0.  0.
         11    1    3    3    0    0  0.32364594538E+03 -0.18918292042E+03  0.78573660451E+03  0.87058537031E+03  0.00000000000E+00 0.  1.
        -11    1    3    3    0    0  0.22293922255E+03 -0.13229849078E+03  0.74297052898E+03  0.78689897353E+03  0.00000000000E+00 0. -1.
         22    1    1    2    0    0 -0.54658516792E+03  0.32148141119E+03  0.29883404462E+03  0.70100458612E+03  0.00000000000E+00 0. -1.
<mgrwt>
<rscale>  0 0.14908264E+04</rscale>
<asrwt>0</asrwt>
<pdfrwt beam="1">  1        1 0.40842136E-01 0.14908264E+04</pdfrwt>
<pdfrwt beam="2">  1       -1 0.32200231E+00 0.14908264E+04</pdfrwt>
<totfact> 0.23733030E+00</totfact>
</mgrwt>
</event>
<event>
 6    1  0.1831439E-005  0.3107415E+04  0.7818608E-02  0.8213706E-01
          2   -1    0    0  501    0  0.00000000000E+00  0.00000000000E+00  0.24658614424E+04  0.24658614424E+04  0.00000000000E+00 0. -1.
         -2   -1    0    0    0  501 -0.00000000000E+00 -0.00000000000E+00 -0.97897108743E+03  0.97897108743E+03  0.00000000000E+00 0.  1.
         23    2    1    2    0    0  0.10563648411E+04 -0.10756401463E+04  0.33374537515E+03  0.15467672658E+04  0.90524015049E+02 0.  0.
         13    1    3    3    0    0  0.95922183022E+02 -0.64409113510E+02  0.19856566907E+02  0.11723430534E+03  0.00000000000E+00 0. -1.
        -13    1    3    3    0    0  0.96044265810E+03 -0.10112310328E+04  0.31388880824E+03  0.14295329605E+04  0.00000000000E+00 0.  1.
         22    1    1    2    0    0 -0.10563648411E+04  0.10756401463E+04  0.11531449798E+04  0.18980652640E+04  0.00000000000E+00 0. -1.
<mgrwt>
<rscale>  0 0.31074150E+04</rscale>
<asrwt>0</asrwt>
<pdfrwt beam="1">  1        2 0.37936330E+00 0.31074150E+04</pdfrwt>
<pdfrwt beam="2">  1       -2 0.15061094E+00 0.31074150E+04</pdfrwt>
<totfact> 0.91608836E-01</totfact>
</mgrwt>
</event>
<event>
 6    1  0.1831439E-005  0.3000530E+04  0.7818608E-02  0.8243580E-01
         -1   -1    0    0    0  501 -0.00000000000E+00  0.00000000000E+00  0.99539737278E+03  0.99539737278E+03  0.00000000000E+00 0.  1.
          1   -1    0    0  501    0  0.00000000000E+00 -0.00000000000E+00 -0.22612023744E+04  0.22612023744E+04  0.00000000000E+00 0. -1.
         23    2    1    2    0    0 -0.75754584111E+03 -0.83675367321E+03  0.43688297290E+03  0.12137637896E+04  0.91232636178E+02 0.  0.
         11    1    3    3    0    0 -0.37030343846E+03 -0.37921012813E+03  0.24892713688E+03  0.58556782467E+03  0.00000000000E+00 0.  1.
        -11    1    3    3    0    0 -0.38724240265E+03 -0.45754354508E+03  0.18795583603E+03  0.62819596493E+03  0.00000000000E+00 0. -1.
         22    1    1    2    0    0  0.75754584111E+03  0.83675367321E+03 -0.17026879746E+04  0.20428359576E+04  0.00000000000E+00 0. -1.
<mgrwt>
<rscale>  0 0.30005299E+04</rscale>
<asrwt>0</asrwt>
<pdfrwt beam="1">  1        1 0.34787728E+00 0.30005299E+04</pdfrwt>
<pdfrwt beam="2">  1       -1 0.15313806E+00 0.30005299E+04</pdfrwt>
<totfact> 0.55528435E-01</totfact>
</mgrwt>
</event>
<event>
 6    1  0.1831439E-005  0.2954021E+04  0.7818608E-02  0.8256984E-01
         -2   -1    0    0    0  501 -0.00000000000E+00  0.00000000000E+00  0.13889426243E+04  0.13889426243E+04  0.00000000000E+00 0.  1.
          2   -1    0    0  501    0  0.00000000000E+00 -0.00000000000E+00 -0.15706627151E+04  0.15706627151E+04  0.00000000000E+00 0. -1.
         23    2    1    2    0    0 -0.41121076656E+03 -0.20308228056E+03 -0.14962736820E+04  0.15673453596E+04  0.86022308619E+02 0.  0.
         11    1    3    3    0    0 -0.26958028958E+03 -0.13456842325E+03 -0.11123647740E+04  0.11524485166E+04  0.00000000000E+00 0. -1.
        -11    1    3    3    0    0 -0.14163047698E+03 -0.68513857309E+02 -0.38390890802E+03  0.41489684297E+03  0.00000000000E+00 0.  1.
         22    1    1    2    0    0  0.41121076656E+03  0.20308228056E+03  0.13145535912E+04  0.13922599798E+04  0.00000000000E+00 0.  1.
<mgrwt>
<rscale>  0 0.29540213E+04</rscale>
<asrwt>0</asrwt>
<pdfrwt beam="1">  1        2 0.24164042E+00 0.29540213E+04</pdfrwt>
<pdfrwt beam="2">  1       -2 0.21368348E+00 0.29540213E+04</pdfrwt>
<totfact> 0.10792489E+00</totfact>
</mgrwt>
</event>
<event>
 6    1  0.1831439E-005  0.2646770E+04  0.7818608E-02  0.8352486E-01
          1   -1    0    0  501    0  0.00000000000E+00  0.00000000000E+00  0.21167667151E+04  0.21167667151E+04  0.00000000000E+00 0. -1.
         -1   -1    0    0    0  501 -0.00000000000E+00 -0.00000000000E+00 -0.82736910885E+03  0.82736910885E+03  0.00000000000E+00 0.  1.
         23    2    1    2    0    0 -0.40543418087E+03  0.28449900363E+02  0.20445507704E+04  0.20865563390E+04  0.91341290860E+02 0.  0.
         13    1    3    3    0    0 -0.23475147314E+03  0.55036900707E+02  0.10717630599E+04  0.10985505774E+04  0.00000000000E+00 0. -1.
        -13    1    3    3    0    0 -0.17068270772E+03 -0.26587000345E+02  0.97278771051E+03  0.98800576164E+03  0.00000000000E+00 0.  1.
         22    1    1    2    0    0  0.40543418087E+03 -0.28449900363E+02 -0.75515316408E+03  0.85757948498E+03  0.00000000000E+00 0.  1.
<mgrwt>
<rscale>  0 0.26467696E+04</rscale>
<asrwt>0</asrwt>
<pdfrwt beam="1">  1        1 0.32565642E+00 0.26467696E+04</pdfrwt>
<pdfrwt beam="2">  1       -1 0.12728756E+00 0.26467696E+04</pdfrwt>
<totfact> 0.11643024E+00</totfact>
</mgrwt>
</event>
<event>
 6    1  0.1831439E-005  0.2037735E+04  0.7818608E-02  0.8589179E-01
         -2   -1    0    0    0  501 -0.00000000000E+00  0.00000000000E+00  0.91617731800E+03  0.91617731800E+03  0.00000000000E+00 0. -1.
          2   -1    0    0  501    0  0.00000000000E+00 -0.00000000000E+00 -0.11330673723E+04  0.11330673723E+04  0.00000000000E+00 0.  1.
         23    2    1    2    0    0  0.54779458983E+03 -0.26425181455E+01 -0.97033567322E+03  0.11177049991E+04  0.87334132339E+02 0.  0.
         13    1    3    3    0    0  0.32780164019E+03 -0.59211372153E+01 -0.66418249039E+03  0.74069383400E+03  0.00000000000E+00 0.  1.
        -13    1    3    3    0    0  0.21999294964E+03  0.32786190698E+01 -0.30615318283E+03  0.37701116507E+03  0.00000000000E+00 0. -1.
         22    1    1    2    0    0 -0.54779458983E+03  0.26425181455E+01  0.75344561896E+03  0.93153969120E+03  0.00000000000E+00 0. -1.
<mgrwt>
<rscale>  0 0.20377347E+04</rscale>
<asrwt>0</asrwt>
<pdfrwt beam="1">  1        2 0.17431806E+00 0.20377347E+04</pdfrwt>
<pdfrwt beam="2">  1       -2 0.14095036E+00 0.20377347E+04</pdfrwt>
<totfact> 0.67958958E+00</totfact>
</mgrwt>
</event>
<event>
 6    1  0.1831439E-005  0.5873616E+04  0.7818608E-02  0.7706272E-01
         -2   -1    0    0    0  501 -0.00000000000E+00  0.00000000000E+00  0.43776858210E+04  0.43776858210E+04  0.00000000000E+00 0.  1.
          2   -1    0    0  501    0  0.00000000000E+00 -0.00000000000E+00 -0.19701825433E+04  0.19701825433E+04  0.00000000000E+00 0. -1.
         23    2    1    2    0    0  0.10343427162E+03 -0.22478038002E+04 -0.83461844107E+03  0.24013922384E+04  0.82317481042E+02 0.  0.
         11    1    3    3    0    0 -0.70872613515E+01 -0.63212947955E+03 -0.22593792480E+03  0.67133140404E+03  0.00000000000E+00 0. -1.
        -11    1    3    3    0    0  0.11052153297E+03 -0.16156743206E+04 -0.60868051627E+03  0.17300608343E+04  0.00000000000E+00 0.  1.
         22    1    1    2    0    0 -0.10343427162E+03  0.22478038002E+04  0.32421217188E+04  0.39464761259E+04  0.00000000000E+00 0.  1.
<mgrwt>
<rscale>  0 0.58736156E+04</rscale>
<asrwt>0</asrwt>
<pdfrwt beam="1">  1        2 0.30310501E+00 0.58736156E+04</pdfrwt>
<pdfrwt beam="2">  1       -2 0.67349012E+00 0.58736156E+04</pdfrwt>
<totfact> 0.13488260E-03</totfact>
</mgrwt>
</event>
<event>
 6    1  0.1831439E-005  0.2655499E+04  0.7818608E-02  0.8349590E-01
         -2   -1    0    0    0  501 -0.00000000000E+00  0.00000000000E+00  0.58295743753E+03  0.58295743753E+03  0.00000000000E+00 0.  1.
          2   -1    0    0  501    0  0.00000000000E+00 -0.00000000000E+00 -0.30240957310E+04  0.30240957310E+04  0.00000000000E+00 0. -1.
         23    2    1    2    0    0  0.89865247038E+01  0.40636659670E+03 -0.29367134543E+04  0.29661090925E+04  0.91118975516E+02 0.  0.
         13    1    3    3    0    0 -0.17148032790E+01  0.33685264695E+03 -0.26270452895E+04  0.26485542470E+04  0.00000000000E+00 0.  1.
        -13    1    3    3    0    0  0.10701327983E+02  0.69513949747E+02 -0.30966816476E+03  0.31755484549E+03  0.00000000000E+00 0. -1.
         22    1    1    2    0    0 -0.89865247038E+01 -0.40636659670E+03  0.49557516082E+03  0.64094407600E+03  0.00000000000E+00 0.  1.
<mgrwt>
<rscale>  0 0.26554993E+04</rscale>
<asrwt>0</asrwt>
<pdfrwt beam="1">  1        2 0.46524549E+00 0.26554993E+04</pdfrwt>
<pdfrwt beam="2">  1       -2 0.89685761E-01 0.26554993E+04</pdfrwt>
<totfact> 0.15770430E+00</totfact>
</mgrwt>
</event>
<event>
 6    1  0.1831439E-005  0.2132609E+04  0.7818608E-02  0.8547014E-01
         -1   -1    0    0    0  501 -0.00000000000E+00  0.00000000000E+00  0.50698731513E+03  0.50698731513E+03  0.00000000000E+00 0.  1.
          1   -1    0    0  501    0  0.00000000000E+00 -0.00000000000E+00 -0.22426693336E+04  0.22426693336E+04  0.00000000000E+00 0. -1.
         23    2    1    2    0    0  0.33271146057E+03 -0.97141602115E+03 -0.50761921587E+03  0.11488805091E+04  0.88899683317E+02 0.  0.
         13    1    3    3    0    0  0.15640748027E+03 -0.35111909397E+03 -0.16069366654E+03  0.41661777746E+03  0.00000000000E+00 0. -1.
        -13    1    3    3    0    0  0.17630398029E+03 -0.62029692718E+03 -0.34692554934E+03  0.73226273162E+03  0.00000000000E+00 0.  1.
         22    1    1    2    0    0 -0.33271146057E+03  0.97141602115E+03 -0.12280628027E+04  0.16007761397E+04  0.00000000000E+00 0. -1.
<mgrwt>
<rscale>  0 0.21326086E+04</rscale>
<asrwt>0</asrwt>
<pdfrwt beam="1">  1        1 0.34502604E+00 0.21326086E+04</pdfrwt>
<pdfrwt beam="2">  1       -1 0.77998050E-01 0.21326086E+04</pdfrwt>
<totfact> 0.30753417E+00</totfact>
</mgrwt>
</event>
<event>
 6    1  0.1831439E-005  0.2910007E+04  0.7818608E-02  0.8269906E-01
          2   -1    0    0  501    0  0.00000000000E+00  0.00000000000E+00  0.14620606290E+04  0.14620606290E+04  0.00000000000E+00 0. -1.
         -2   -1    0    0    0  501 -0.00000000000E+00 -0.00000000000E+00 -0.14479805269E+04  0.14479805269E+04  0.00000000000E+00 0.  1.
         23    2    1    2    0    0 -0.64376922673E+03 -0.11343822272E+04 -0.63494494804E+03  0.14531625163E+04  0.85231197642E+02 0.  0.
         13    1    3    3    0    0 -0.89867604017E+02 -0.21050267232E+03 -0.13345259974E+03  0.26494746212E+03  0.00000000000E+00 0. -1.
        -13    1    3    3    0    0 -0.55390162271E+03 -0.92387955491E+03 -0.50149234830E+03  0.11882150542E+04  0.00000000000E+00 0.  1.
         22    1    1    2    0    0  0.64376922673E+03  0.11343822272E+04  0.64902505009E+03  0.14568786396E+04  0.00000000000E+00 0.  1.
<mgrwt>
<rscale>  0 0.29100071E+04</rscale>
<asrwt>0</asrwt>
<pdfrwt beam="1">  1        2 0.22493240E+00 0.29100071E+04</pdfrwt>
<pdfrwt beam="2">  1       -2 0.22276623E+00 0.29100071E+04</pdfrwt>
<totfact> 0.10919757E+00</totfact>
</mgrwt>
</event>
<event>
 6    1  0.1831439E-005  0.2274564E+04  0.7818608E-02  0.8488018E-01
          2   -1    0    0  501    0  0.00000000000E+00  0.00000000000E+00  0.15781790577E+04  0.15781790577E+04  0.00000000000E+00 0. -1.
         -2   -1    0    0    0  501 -0.00000000000E+00 -0.00000000000E+00 -0.81955880521E+03  0.81955880521E+03  0.00000000000E+00 0.  1.
         23    2    1    2    0    0  0.36796795414E+03  0.10582412217E+03  0.15059943362E+04  0.15579955327E+04  0.11283607242E+03 0.  0.
         13    1    3    3    0    0  0.31797426268E+02 -0.22904595745E+02  0.14857888212E+03  0.15365995261E+03  0.00000000000E+00 0. -1.
        -13    1    3    3    0    0  0.33617052787E+03  0.12872871791E+03  0.13574154541E+04  0.14043355801E+04  0.00000000000E+00 0.  1.
         22    1    1    2    0    0 -0.36796795414E+03 -0.10582412217E+03 -0.74737408371E+03  0.83974233018E+03  0.00000000000E+00 0.  1.
<mgrwt>
<rscale>  0 0.22745642E+04</rscale>
<asrwt>0</asrwt>
<pdfrwt beam="1">  1        2 0.24279678E+00 0.22745642E+04</pdfrwt>
<pdfrwt beam="2">  1       -2 0.12608597E+00 0.22745642E+04</pdfrwt>
<totfact> 0.48898519E+00</totfact>
</mgrwt>
</event>
<event>
 6    1  0.1831439E-005  0.2498309E+04  0.7818608E-02  0.8403588E-01
         -1   -1    0    0    0  501 -0.00000000000E+00  0.00000000000E+00  0.56423784385E+03  0.56423784385E+03  0.00000000000E+00 0. -1.
          1   -1    0    0  501    0  0.00000000000E+00 -0.00000000000E+00 -0.27654764259E+04  0.27654764259E+04  0.00000000000E+00 0.  1.
         23    2    1    2    0    0 -0.67753679366E+03 -0.73228098925E+03 -0.10376720892E+03  0.10070697177E+04  0.90167780991E+02 0.  0.
         11    1    3    3    0    0 -0.37985714364E+03 -0.40319425321E+03 -0.10233777679E+03  0.56332058009E+03  0.00000000000E+00 0.  1.
        -11    1    3    3    0    0 -0.29767965003E+03 -0.32908673604E+03 -0.14294321334E+01  0.44374913764E+03  0.00000000000E+00 0. -1.
         22    1    1    2    0    0  0.67753679366E+03  0.73228098925E+03 -0.20974713731E+04  0.23226445520E+04  0.00000000000E+00 0.  1.
<mgrwt>
<rscale>  0 0.24983086E+04</rscale>
<asrwt>0</asrwt>
<pdfrwt beam="1">  1        1 0.42545791E+00 0.24983086E+04</pdfrwt>
<pdfrwt beam="2">  1       -1 0.86805822E-01 0.24983086E+04</pdfrwt>
<totfact> 0.10246038E+00</totfact>
</mgrwt>
</event>
<event>
 6    1  0.1831439E-005  0.2599505E+04  0.7818608E-02  0.8368369E-01
         -2   -1    0    0    0  501 -0.00000000000E+00  0.00000000000E+00  0.74339827838E+03  0.74339827838E+03  0.00000000000E+00 0. -1.
          2   -1    0    0  501    0  0.00000000000E+00 -0.00000000000E+00 -0.22724785890E+04  0.22724785890E+04  0.00000000000E+00 0.  1.
         23    2    1    2    0    0 -0.25242436792E+03  0.12606111025E+04 -0.55674159346E+03  0.14039522431E+04  0.90897116493E+02 0.  0.
         13    1    3    3    0    0 -0.19499309909E+02  0.26409014702E+03 -0.96524119188E+02  0.28185232734E+03  0.00000000000E+00 0. -1.
        -13    1    3    3    0    0 -0.23292505801E+03  0.99652095551E+03 -0.46021747427E+03  0.11220999158E+04  0.00000000000E+00 0.  1.
         22    1    1    2    0    0  0.25242436792E+03 -0.12606111025E+04 -0.97233871713E+03  0.16119246242E+04  0.00000000000E+00 0. -1.
<mgrwt>
<rscale>  0 0.25995051E+04</rscale>
<asrwt>0</asrwt>
<pdfrwt beam="1">  1        2 0.34961209E+00 0.25995051E+04</pdfrwt>
<pdfrwt beam="2">  1       -2 0.11436897E+00 0.25995051E+04</pdfrwt>
<totfact> 0.24840794E+00</totfact>
</mgrwt>
</event>
<event>
 6    1  0.1831439E-005  0.1736215E+04  0.7818608E-02  0.8740975E-01
          2   -1    0    0  501    0  0.00000000000E+00  0.00000000000E+00  0.36396828818E+03  0.36396828818E+03  0.00000000000E+00 0.  1.
         -2   -1    0    0    0  501 -0.00000000000E+00 -0.00000000000E+00 -0.20705392793E+04  0.20705392793E+04  0.00000000000E+00 0. -1.
         23    2    1    2    0    0  0.81267581748E+02 -0.57926734922E+03  0.39372684590E+02  0.59318347856E+03  0.90340186093E+02 0.  0.
         13    1    3    3    0    0  0.69651273865E+02 -0.51773448035E+03  0.63149484756E+02  0.52620162439E+03  0.00000000000E+00 0.  1.
        -13    1    3    3    0    0  0.11616307883E+02 -0.61532868876E+02 -0.23776800166E+02  0.66981854163E+02  0.00000000000E+00 0. -1.
         22    1    1    2    0    0 -0.81267581748E+02  0.57926734922E+03 -0.17459436757E+04  0.18413240890E+04  0.00000000000E+00 0. -1.
<mgrwt>
<rscale>  0 0.17362150E+04</rscale>
<asrwt>0</asrwt>
<pdfrwt beam="1">  1        2 0.55995122E-01 0.17362150E+04</pdfrwt>
<pdfrwt beam="2">  1       -2 0.31854450E+00 0.17362150E+04</pdfrwt>
<totfact> 0.20572832E+00</totfact>
</mgrwt>
</event>
<event>
 6    1  0.1831439E-005  0.1299242E+04  0.7818608E-02  0.9030167E-01
         -2   -1    0    0    0  501 -0.00000000000E+00  0.00000000000E+00  0.53927337406E+03  0.53927337406E+03  0.00000000000E+00 0.  1.
          2   -1    0    0  501    0  0.00000000000E+00 -0.00000000000E+00 -0.78254782709E+03  0.78254782709E+03  0.00000000000E+00 0. -1.
         23    2    1    2    0    0  0.52198439821E+03 -0.16818154794E+03 -0.46713449275E+03  0.72948171874E+03  0.11478762396E+03 0.  0.
         11    1    3    3    0    0  0.24818405005E+03 -0.24338567468E+02 -0.23633853474E+03  0.34357472487E+03  0.00000000000E+00 0. -1.
        -11    1    3    3    0    0  0.27380034816E+03 -0.14384298048E+03 -0.23079595801E+03  0.38590699387E+03  0.00000000000E+00 0.  1.
         22    1    1    2    0    0 -0.52198439821E+03  0.16818154794E+03  0.22386003972E+03  0.59233948241E+03  0.00000000000E+00 0.  1.
<mgrwt>
<rscale>  0 0.12992416E+04</rscale>
<asrwt>0</asrwt>
<pdfrwt beam="1">  1        2 0.12039197E+00 0.12992416E+04</pdfrwt>
<pdfrwt beam="2">  1       -2 0.82965135E-01 0.12992416E+04</pdfrwt>
<totfact> 0.44283193E+01</totfact>
</mgrwt>
</event>
<event>
 6    1  0.1831439E-005  0.1816691E+04  0.7818608E-02  0.8697473E-01
          2   -1    0    0  501    0  0.00000000000E+00  0.00000000000E+00  0.16544682211E+04  0.16544682211E+04  0.00000000000E+00 0. -1.
         -2   -1    0    0    0  501 -0.00000000000E+00 -0.00000000000E+00 -0.49870520058E+03  0.49870520058E+03  0.00000000000E+00 0.  1.
         23    2    1    2    0    0 -0.66229461248E+03 -0.15435964363E+03  0.12887100005E+04  0.14602549901E+04  0.95446934077E+02 0.  0.
         13    1    3    3    0    0 -0.37661227496E+03 -0.13358889286E+03  0.71861826193E+03  0.82224996462E+03  0.00000000000E+00 0.  1.
        -13    1    3    3    0    0 -0.28568233752E+03 -0.20770750765E+02  0.57009173862E+03  0.63800502545E+03  0.00000000000E+00 0. -1.
         22    1    1    2    0    0  0.66229461248E+03  0.15435964363E+03 -0.13294698006E+03  0.69291843157E+03  0.00000000000E+00 0.  1.
<mgrwt>
<rscale>  0 0.18166914E+04</rscale>
<asrwt>0</asrwt>
<pdfrwt beam="1">  1        2 0.25453357E+00 0.18166914E+04</pdfrwt>
<pdfrwt beam="2">  1       -2 0.76723878E-01 0.18166914E+04</pdfrwt>
<totfact> 0.14879662E+01</totfact>
</mgrwt>
</event>
<event>
 6    1  0.1831439E-005  0.2055128E+04  0.7818608E-02  0.8581272E-01
         -2   -1    0    0    0  501 -0.00000000000E+00  0.00000000000E+00  0.65151735590E+03  0.65151735590E+03  0.00000000000E+00 0.  1.
          2   -1    0    0  501    0  0.00000000000E+00 -0.00000000000E+00 -0.16206592214E+04  0.16206592214E+04  0.00000000000E+00 0. -1.
         23    2    1    2    0    0  0.48022996617E+03 -0.10242575716E+03 -0.14814400856E+04  0.15625560291E+04  0.76188980300E+02 0.  0.
         11    1    3    3    0    0  0.38438073447E+03 -0.10662038481E+03 -0.11339423181E+04  0.12020572517E+04  0.00000000000E+00 0.  1.
        -11    1    3    3    0    0  0.95849231694E+02  0.41946276486E+01 -0.34749776754E+03  0.36049877748E+03  0.00000000000E+00 0. -1.
         22    1    1    2    0    0 -0.48022996617E+03  0.10242575716E+03  0.51229822009E+03  0.70962054821E+03  0.00000000000E+00 0.  1.
<mgrwt>
<rscale>  0 0.20551278E+04</rscale>
<asrwt>0</asrwt>
<pdfrwt beam="1">  1        2 0.24933219E+00 0.20551278E+04</pdfrwt>
<pdfrwt beam="2">  1       -2 0.10023344E+00 0.20551278E+04</pdfrwt>
<totfact> 0.82509954E+00</totfact>
</mgrwt>
</event>
<event>
 6    1  0.1831439E-005  0.2632258E+04  0.7818608E-02  0.8357326E-01
          1   -1    0    0  501    0  0.00000000000E+00  0.00000000000E+00  0.65355674473E+03  0.65355674473E+03  0.00000000000E+00 0. -1.
         -1   -1    0    0    0  501 -0.00000000000E+00 -0.00000000000E+00 -0.26504128856E+04  0.26504128856E+04  0.00000000000E+00 0.  1.
         23    2    1    2    0    0  0.51132339241E+03  0.11989065245E+04 -0.12142816048E+04  0.17836896000E+04  0.90776137323E+02 0.  0.
         13    1    3    3    0    0  0.25632176392E+03  0.71458990310E+03 -0.71167111641E+03  0.10405841409E+04  0.00000000000E+00 0.  1.
        -13    1    3    3    0    0  0.25500162849E+03  0.48431662142E+03 -0.50261048838E+03  0.74310545911E+03  0.00000000000E+00 0. -1.
         22    1    1    2    0    0 -0.51132339241E+03 -0.11989065245E+04 -0.78257453608E+03  0.15202800304E+04  0.00000000000E+00 0. -1.
<mgrwt>
<rscale>  0 0.26322578E+04</rscale>
<asrwt>0</asrwt>
<pdfrwt beam="1">  1        1 0.10054719E+00 0.26322578E+04</pdfrwt>
<pdfrwt beam="2">  1       -1 0.40775583E+00 0.26322578E+04</pdfrwt>
<totfact> 0.16790020E-01</totfact>
</mgrwt>
</event>
<event>
 6    1  0.1831439E-005  0.4129223E+04  0.7818608E-02  0.7978974E-01
          2   -1    0    0  501    0  0.00000000000E+00  0.00000000000E+00  0.33172152703E+04  0.33172152703E+04  0.00000000000E+00 0. -1.
         -2   -1    0    0    0  501 -0.00000000000E+00 -0.00000000000E+00 -0.12849998201E+04  0.12849998201E+04  0.00000000000E+00 0.  1.
         23    2    1    2    0    0 -0.91680018486E+03  0.47873360734E+03  0.30067848149E+04  0.31811261092E+04  0.95393677718E+02 0.  0.
         11    1    3    3    0    0 -0.13161554831E+03  0.92363578471E+02  0.55647830553E+03  0.57924242568E+03  0.00000000000E+00 0.  1.
        -11    1    3    3    0    0 -0.78518463654E+03  0.38637002887E+03  0.24503065094E+04  0.26018836835E+04  0.00000000000E+00 0. -1.
         22    1    1    2    0    0  0.91680018486E+03 -0.47873360734E+03 -0.97456936471E+03  0.14210889812E+04  0.00000000000E+00 0.  1.
<mgrwt>
<rscale>  0 0.41292232E+04</rscale>
<asrwt>0</asrwt>
<pdfrwt beam="1">  1        2 0.51034081E+00 0.41292232E+04</pdfrwt>
<pdfrwt beam="2">  1       -2 0.19769228E+00 0.41292232E+04</pdfrwt>
<totfact> 0.11649141E-01</totfact>
</mgrwt>
</event>
<event>
 6    1  0.1831439E-005  0.8122174E+03  0.7818608E-02  0.9542499E-01
         -2   -1    0    0    0  501 -0.00000000000E+00  0.00000000000E+00  0.10916211123E+03  0.10916211123E+03  0.00000000000E+00 0. -1.
          2   -1    0    0  501    0  0.00000000000E+00 -0.00000000000E+00 -0.15108198469E+04  0.15108198469E+04  0.00000000000E+00 0.  1.
         23    2    1    2    0    0  0.20680836658E+03 -0.21980544049E+03 -0.18330365348E+03  0.36480436044E+03  0.91639837775E+02 0.  0.
         13    1    3    3    0    0  0.30039206555E+02 -0.27433156877E+02  0.74028741217E+01  0.41348936769E+02  0.00000000000E+00 0. -1.
        -13    1    3    3    0    0  0.17676916002E+03 -0.19237228361E+03 -0.19070652760E+03  0.32345542368E+03  0.00000000000E+00 0.  1.
         22    1    1    2    0    0 -0.20680836658E+03  0.21980544049E+03 -0.12183540822E+04  0.12551775977E+04  0.00000000000E+00 0.  1.
<mgrwt>
<rscale>  0 0.81221742E+03</rscale>
<asrwt>0</asrwt>
<pdfrwt beam="1">  1        2 0.23243379E+00 0.81221742E+03</pdfrwt>
<pdfrwt beam="2">  1       -2 0.16794173E-01 0.81221742E+03</pdfrwt>
<totfact> 0.36503880E+02</totfact>
</mgrwt>
</event>
<event>
 6    1  0.1831439E-005  0.6906761E+03  0.7818608E-02  0.9733311E-01
          1   -1    0    0  501    0  0.00000000000E+00  0.00000000000E+00  0.14206080217E+04  0.14206080217E+04  0.00000000000E+00 0. -1.
         -1   -1    0    0    0  501 -0.00000000000E+00 -0.00000000000E+00 -0.83948829702E+02  0.83948829702E+02  0.00000000000E+00 0.  1.
         23    2    1    2    0    0  0.32382640182E+03 -0.14241822860E+02  0.90173085235E+03  0.96212802781E+03  0.86633964326E+02 0.  0.
         13    1    3    3    0    0  0.69009066935E+02  0.23690147973E+02  0.13776335240E+03  0.15589167936E+03  0.00000000000E+00 0. -1.
        -13    1    3    3    0    0  0.25481733489E+03 -0.37931970834E+02  0.76396749995E+03  0.80623634844E+03  0.00000000000E+00 0.  1.
         22    1    1    2    0    0 -0.32382640182E+03  0.14241822860E+02  0.43492833964E+03  0.54242882359E+03  0.00000000000E+00 0.  1.
<mgrwt>
<rscale>  0 0.69067614E+03</rscale>
<asrwt>0</asrwt>
<pdfrwt beam="1">  1        1 0.21855506E+00 0.69067614E+03</pdfrwt>
<pdfrwt beam="2">  1       -1 0.12915206E-01 0.69067614E+03</pdfrwt>
<totfact> 0.31786531E+02</totfact>
</mgrwt>
</event>
<event>
 6    1  0.1831439E-005  0.3895648E+04  0.7818608E-02  0.8025935E-01
         -1   -1    0    0    0  501 -0.00000000000E+00  0.00000000000E+00  0.14334400778E+04  0.14334400778E+04  0.00000000000E+00 0.  1.
          1   -1    0    0  501    0  0.00000000000E+00 -0.00000000000E+00 -0.26467927701E+04  0.26467927701E+04  0.00000000000E+00 0. -1.
         23    2    1    2    0    0 -0.14131026766E+04 -0.37290976026E+03  0.73992581889E+03  0.16407210512E+04  0.92490466093E+02 0.  0.
         11    1    3    3    0    0 -0.39299615956E+03 -0.14108178731E+03  0.18780403079E+03  0.45784321129E+03  0.00000000000E+00 0. -1.
        -11    1    3    3    0    0 -0.10201065171E+04 -0.23182797295E+03  0.55212178810E+03  0.11828778399E+04  0.00000000000E+00 0.  1.
         22    1    1    2    0    0  0.14131026766E+04  0.37290976026E+03 -0.19532785112E+04  0.24395117967E+04  0.00000000000E+00 0. -1.
<mgrwt>
<rscale>  0 0.38956483E+04</rscale>
<asrwt>0</asrwt>
<pdfrwt beam="1">  1        1 0.40719889E+00 0.38956483E+04</pdfrwt>
<pdfrwt beam="2">  1       -1 0.22052924E+00 0.38956483E+04</pdfrwt>
<totfact> 0.92170830E-02</totfact>
</mgrwt>
</event>
<event>
 6    1  0.1831439E-005  0.1386699E+04  0.7818608E-02  0.8963503E-01
          2   -1    0    0  501    0  0.00000000000E+00  0.00000000000E+00  0.25681699144E+04  0.25681699144E+04  0.00000000000E+00 0. -1.
         -2   -1    0    0    0  501 -0.00000000000E+00 -0.00000000000E+00 -0.18718915678E+03  0.18718915678E+03  0.00000000000E+00 0.  1.
         23    2    1    2    0    0  0.27139265162E+03  0.37122810900E+03  0.17204860051E+03  0.49906885160E+03  0.89469086504E+02 0.  0.
         13    1    3    3    0    0  0.71712023158E+02  0.63303007470E+02  0.68776770217E+02  0.11781395988E+03  0.00000000000E+00 0.  1.
        -13    1    3    3    0    0  0.19968062846E+03  0.30792510153E+03  0.10327183029E+03  0.38125489173E+03  0.00000000000E+00 0. -1.
         22    1    1    2    0    0 -0.27139265162E+03 -0.37122810900E+03  0.22089321571E+04  0.22562902196E+04  0.00000000000E+00 0.  1.
<mgrwt>
<rscale>  0 0.13866990E+04</rscale>
<asrwt>0</asrwt>
<pdfrwt beam="1">  1        2 0.39510304E+00 0.13866990E+04</pdfrwt>
<pdfrwt beam="2">  1       -2 0.28798334E-01 0.13866990E+04</pdfrwt>
<totfact> 0.34400383E+01</totfact>
</mgrwt>
</event>
<event>
 6    1  0.1831439E-005  0.3779035E+04  0.7818608E-02  0.8050669E-01
          2   -1    0    0  501    0  0.00000000000E+00  0.00000000000E+00  0.27420526431E+04  0.27420526431E+04  0.00000000000E+00 0.  1.
         -2   -1    0    0    0  501 -0.00000000000E+00 -0.00000000000E+00 -0.13020451827E+04  0.13020451827E+04  0.00000000000E+00 0. -1.
         23    2    1    2    0    0  0.13183539657E+04 -0.12803542413E+04  0.11845392729E+04  0.21886657583E+04  0.98794485466E+02 0.  0.
         13    1    3    3    0    0  0.92208526959E+03 -0.92126009154E+03  0.79070176217E+03  0.15245230983E+04  0.00000000000E+00 0. -1.
        -13    1    3    3    0    0  0.39626869614E+03 -0.35909414976E+03  0.39383751072E+03  0.66414265996E+03  0.00000000000E+00 0.  1.
         22    1    1    2    0    0 -0.13183539657E+04  0.12803542413E+04  0.25546818757E+03  0.18554320675E+04  0.00000000000E+00 0. -1.
<mgrwt>
<rscale>  0 0.37790350E+04</rscale>
<asrwt>0</asrwt>
<pdfrwt beam="1">  1        2 0.42185425E+00 0.37790350E+04</pdfrwt>
<pdfrwt beam="2">  1       -2 0.20031464E+00 0.37790350E+04</pdfrwt>
<totfact> 0.26636848E-01</totfact>
</mgrwt>
</event>
<event>
 6    1  0.1831439E-005  0.3059840E+04  0.7818608E-02  0.8226847E-01
          2   -1    0    0  501    0  0.00000000000E+00  0.00000000000E+00  0.20690879872E+04  0.20690879872E+04  0.00000000000E+00 0. -1.
         -2   -1    0    0    0  501 -0.00000000000E+00 -0.00000000000E+00 -0.11312498160E+04  0.11312498160E+04  0.00000000000E+00 0.  1.
         23    2    1    2    0    0 -0.15081240768E+04 -0.12782878006E+03  0.69315884097E+03  0.16671560126E+04  0.90341371989E+02 0.  0.
         11    1    3    3    0    0 -0.28456547575E+03 -0.32368240082E+02  0.16975741504E+03  0.33293061276E+03  0.00000000000E+00 0.  1.
        -11    1    3    3    0    0 -0.12235586011E+04 -0.95460539977E+02  0.52340142594E+03  0.13342253999E+04  0.00000000000E+00 0. -1.
         22    1    1    2    0    0  0.15081240768E+04  0.12782878006E+03  0.24467933024E+03  0.15331817905E+04  0.00000000000E+00 0. -1.
<mgrwt>
<rscale>  0 0.30598401E+04</rscale>
<asrwt>0</asrwt>
<pdfrwt beam="1">  1        2 0.31832123E+00 0.30598401E+04</pdfrwt>
<pdfrwt beam="2">  1       -2 0.17403843E+00 0.30598401E+04</pdfrwt>
<totfact> 0.10394428E+00</totfact>
</mgrwt>
</event>
<event>
 6    1  0.1831439E-005  0.1897062E+04  0.7818608E-02  0.8656320E-01
          1   -1    0    0  501    0  0.00000000000E+00  0.00000000000E+00  0.12153701860E+04  0.12153701860E+04  0.00000000000E+00 0. -1.
         -1   -1    0    0    0  501 -0.00000000000E+00 -0.00000000000E+00 -0.74027716590E+03  0.74027716590E+03  0.00000000000E+00 0.  1.
         23    2    1    2    0    0  0.36734504021E+03 -0.35229131775E+03  0.10604618724E+04  0.11799487994E+04  0.92995888776E+02 0.  0.
         11    1    3    3    0    0  0.24185538536E+03 -0.28730033241E+03  0.79381925807E+03  0.87817112394E+03  0.00000000000E+00 0.  1.
        -11    1    3    3    0    0  0.12548965484E+03 -0.64990985346E+02  0.26664261429E+03  0.30177767546E+03  0.00000000000E+00 0. -1.
         22    1    1    2    0    0 -0.36734504021E+03  0.35229131775E+03 -0.58536885227E+03  0.77569855249E+03  0.00000000000E+00 0.  1.
<mgrwt>
<rscale>  0 0.18970617E+04</rscale>
<asrwt>0</asrwt>
<pdfrwt beam="1">  1        1 0.18698003E+00 0.18970617E+04</pdfrwt>
<pdfrwt beam="2">  1       -1 0.11388879E+00 0.18970617E+04</pdfrwt>
<totfact> 0.68471714E+00</totfact>
</mgrwt>
</event>
<event>
 6    1  0.1831439E-005  0.4970542E+04  0.7818608E-02  0.7833068E-01
          1   -1    0    0  501    0  0.00000000000E+00  0.00000000000E+00  0.23821151260E+04  0.23821151260E+04  0.00000000000E+00 0. -1.
         -1   -1    0    0    0  501 -0.00000000000E+00 -0.00000000000E+00 -0.25928938338E+04  0.25928938338E+04  0.00000000000E+00 0.  1.
         23    2    1    2    0    0 -0.24531532986E+04 -0.30316510266E+03  0.14491522314E+03  0.24777327720E+04  0.91044393517E+02 0.  0.
         11    1    3    3    0    0 -0.56674081601E+03 -0.82683175943E+02 -0.27535631991E+01  0.57274710146E+03  0.00000000000E+00 0. -1.
        -11    1    3    3    0    0 -0.18864124826E+04 -0.22048192672E+03  0.14766878634E+03  0.19049856705E+04  0.00000000000E+00 0.  1.
         22    1    1    2    0    0  0.24531532986E+04  0.30316510266E+03 -0.35569393093E+03  0.24972761879E+04  0.00000000000E+00 0.  1.
<mgrwt>
<rscale>  0 0.49705419E+04</rscale>
<asrwt>0</asrwt>
<pdfrwt beam="1">  1        1 0.36647925E+00 0.49705419E+04</pdfrwt>
<pdfrwt beam="2">  1       -1 0.39890675E+00 0.49705419E+04</pdfrwt>
<totfact> 0.86113791E-03</totfact>
</mgrwt>
</event>
<event>
 6    1  0.1831439E-005  0.3082376E+04  0.7818608E-02  0.8220591E-01
          2   -1    0    0  501    0  0.00000000000E+00  0.00000000000E+00  0.22786605169E+04  0.22786605169E+04  0.00000000000E+00 0.  1.
         -2   -1    0    0    0  501 -0.00000000000E+00 -0.00000000000E+00 -0.10423935067E+04  0.10423935067E+04  0.00000000000E+00 0. -1.
         23    2    1    2    0    0 -0.11397982041E+04  0.36373429468E+03  0.16630854352E+04  0.20507719483E+04  0.91486808173E+02 0.  0.
         11    1    3    3    0    0 -0.26810688438E+03  0.54119480039E+02  0.42157533426E+03  0.50252958323E+03  0.00000000000E+00 0. -1.
        -11    1    3    3    0    0 -0.87169131969E+03  0.30961481464E+03  0.12415101009E+04  0.15482423650E+04  0.00000000000E+00 0.  1.
         22    1    1    2    0    0  0.11397982041E+04 -0.36373429468E+03 -0.42681842495E+03  0.12702820754E+04  0.00000000000E+00 0. -1.
<mgrwt>
<rscale>  0 0.30823763E+04</rscale>
<asrwt>0</asrwt>
<pdfrwt beam="1">  1        2 0.35056316E+00 0.30823763E+04</pdfrwt>
<pdfrwt beam="2">  1       -2 0.16036823E+00 0.30823763E+04</pdfrwt>
<totfact> 0.99211217E-01</totfact>
</mgrwt>
</event>
<event>
 6    1  0.1875994E-005  0.4180778E+04  0.7818608E-02  0.7969039E-01
          2   -1    0    0  501    0  0.00000000000E+00  0.00000000000E+00  0.29489886084E+04  0.29489886084E+04  0.00000000000E+00 0. -1.
         -2   -1    0    0    0  501 -0.00000000000E+00 -0.00000000000E+00 -0.14817711014E+04  0.14817711014E+04  0.00000000000E+00 0.  1.
         23    2    1    2    0    0 -0.46798034984E+03  0.16679708183E+04  0.19717326363E+04  0.26264127991E+04  0.95824547118E+02 0.  0.
         11    1    3    3    0    0 -0.16729274471E+03  0.57615168441E+03  0.61520133747E+03  0.85930804227E+03  0.00000000000E+00 0. -1.
        -11    1    3    3    0    0 -0.30068760513E+03  0.10918191339E+04  0.13565312988E+04  0.17671047568E+04  0.00000000000E+00 0.  1.
         22    1    1    2    0    0  0.46798034984E+03 -0.16679708183E+04 -0.50451512932E+03  0.18043469107E+04  0.00000000000E+00 0.  1.
<mgrwt>
<rscale>  0 0.41807780E+04</rscale>
<asrwt>0</asrwt>
<pdfrwt beam="1">  1        2 0.45369055E+00 0.41807780E+04</pdfrwt>
<pdfrwt beam="2">  1       -2 0.22796479E+00 0.41807780E+04</pdfrwt>
<totfact> 0.12819702E-01</totfact>
</mgrwt>
</event>
<event>
 6    1  0.1831439E-005  0.1595904E+04  0.7818608E-02  0.8823068E-01
          1   -1    0    0  501    0  0.00000000000E+00  0.00000000000E+00  0.44753908951E+03  0.44753908951E+03  0.00000000000E+00 0. -1.
         -1   -1    0    0    0  501 -0.00000000000E+00 -0.00000000000E+00 -0.14227301153E+04  0.14227301153E+04  0.00000000000E+00 0.  1.
         23    2    1    2    0    0 -0.35957318017E+03  0.65594967672E+03 -0.17105025124E+03  0.77199545224E+03  0.84592786594E+02 0.  0.
         11    1    3    3    0    0 -0.12798643830E+03  0.25489924583E+03 -0.10623662670E+03  0.30436881372E+03  0.00000000000E+00 0.  1.
        -11    1    3    3    0    0 -0.23158674187E+03  0.40105043089E+03 -0.64813624543E+02  0.46762663852E+03  0.00000000000E+00 0. -1.
         22    1    1    2    0    0  0.35957318017E+03 -0.65594967672E+03 -0.80414077452E+03  0.10982737525E+04  0.00000000000E+00 0.  1.
<mgrwt>
<rscale>  0 0.15959039E+04</rscale>
<asrwt>0</asrwt>
<pdfrwt beam="1">  1        1 0.68852168E-01 0.15959039E+04</pdfrwt>
<pdfrwt beam="2">  1       -1 0.21888155E+00 0.15959039E+04</pdfrwt>
<totfact> 0.55436704E+00</totfact>
</mgrwt>
</event>
<event>
 6    1  0.1831439E-005  0.1630817E+04  0.7818608E-02  0.8801836E-01
          2   -1    0    0  501    0  0.00000000000E+00  0.00000000000E+00  0.89272418165E+03  0.89272418165E+03  0.00000000000E+00 0. -1.
         -2   -1    0    0    0  501 -0.00000000000E+00 -0.00000000000E+00 -0.74478929135E+03  0.74478929135E+03  0.00000000000E+00 0.  1.
         23    2    1    2    0    0  0.28494069796E+03  0.49374090669E+03 -0.50770423319E+03  0.76870167259E+03  0.90373606507E+02 0.  0.
         13    1    3    3    0    0  0.83572543779E+02  0.17434529995E+03 -0.22722999845E+03  0.29835235190E+03  0.00000000000E+00 0. -1.
        -13    1    3    3    0    0  0.20136815418E+03  0.31939560674E+03 -0.28047423474E+03  0.47034932069E+03  0.00000000000E+00 0.  1.
         22    1    1    2    0    0 -0.28494069796E+03 -0.49374090669E+03  0.65563912348E+03  0.86881180041E+03  0.00000000000E+00 0.  1.
<mgrwt>
<rscale>  0 0.16308175E+04</rscale>
<asrwt>0</asrwt>
<pdfrwt beam="1">  1        2 0.13734218E+00 0.16308175E+04</pdfrwt>
<pdfrwt beam="2">  1       -2 0.11458297E+00 0.16308175E+04</pdfrwt>
<totfact> 0.16879678E+01</totfact>
</mgrwt>
</event>
<event>
 6    1  0.1831439E-005  0.5685372E+04  0.7818608E-02  0.7730685E-01
          2   -1    0    0  501    0  0.00000000000E+00  0.00000000000E+00  0.38954052844E+04  0.38954052844E+04  0.00000000000E+00 0. -1.
         -2   -1    0    0    0  501 -0.00000000000E+00 -0.00000000000E+00 -0.20744603555E+04  0.20744603555E+04  0.00000000000E+00 0.  1.
         23    2    1    2    0    0 -0.19090248680E+04 -0.13790547848E+04 -0.75973671074E+03  0.24761447336E+04  0.89021491666E+02 0.  0.
         11    1    3    3    0    0 -0.97595439669E+03 -0.74276778662E+03 -0.42941669103E+03  0.12994574498E+04  0.00000000000E+00 0. -1.
        -11    1    3    3    0    0 -0.93307047130E+03 -0.63628699816E+03 -0.33032001971E+03  0.11766872838E+04  0.00000000000E+00 0.  1.
         22    1    1    2    0    0  0.19090248680E+04  0.13790547848E+04  0.25806816396E+04  0.34937209063E+04  0.00000000000E+00 0. -1.
<mgrwt>
<rscale>  0 0.56853720E+04</rscale>
<asrwt>0</asrwt>
<pdfrwt beam="1">  1        2 0.59929312E+00 0.56853720E+04</pdfrwt>
<pdfrwt beam="2">  1       -2 0.31914775E+00 0.56853720E+04</pdfrwt>
<totfact> 0.68975565E-03</totfact>
</mgrwt>
</event>
<event>
 6    1  0.1831439E-005  0.3904479E+04  0.7818608E-02  0.8024098E-01
         -2   -1    0    0    0  501 -0.00000000000E+00  0.00000000000E+00  0.12464525779E+04  0.12464525779E+04  0.00000000000E+00 0.  1.
          2   -1    0    0  501    0  0.00000000000E+00 -0.00000000000E+00 -0.30576691153E+04  0.30576691153E+04  0.00000000000E+00 0. -1.
         23    2    1    2    0    0  0.17166842789E+04  0.14696627802E+03 -0.19167082666E+04  0.25779315226E+04  0.57934064428E+02 0.  0.
         13    1    3    3    0    0  0.14912639792E+04  0.10795606962E+03 -0.16620226043E+04  0.22355853609E+04  0.00000000000E+00 0. -1.
        -13    1    3    3    0    0  0.22542029970E+03  0.39010208401E+02 -0.25468566225E+03  0.34234616170E+03  0.00000000000E+00 0.  1.
         22    1    1    2    0    0 -0.17166842789E+04 -0.14696627802E+03  0.10549172914E+03  0.17261901706E+04  0.00000000000E+00 0.  1.
<mgrwt>
<rscale>  0 0.39044792E+04</rscale>
<asrwt>0</asrwt>
<pdfrwt beam="1">  1        2 0.47041064E+00 0.39044792E+04</pdfrwt>
<pdfrwt beam="2">  1       -2 0.19176193E+00 0.39044792E+04</pdfrwt>
<totfact> 0.19187902E-01</totfact>
</mgrwt>
</event>
<event>
 6    1  0.1831439E-005  0.1910420E+04  0.7818608E-02  0.8649687E-01
          1   -1    0    0  501    0  0.00000000000E+00  0.00000000000E+00  0.10750157420E+04  0.10750157420E+04  0.00000000000E+00 0. -1.
         -1   -1    0    0    0  501 -0.00000000000E+00 -0.00000000000E+00 -0.84875563970E+03  0.84875563970E+03  0.00000000000E+00 0.  1.
         23    2    1    2    0    0 -0.37806563268E+03 -0.31467780477E+03  0.93555934828E+03  0.10606021261E+04  0.87463319768E+02 0.  0.
         13    1    3    3    0    0 -0.29186743928E+03 -0.19173584731E+03  0.66926023414E+03  0.75488972589E+03  0.00000000000E+00 0. -1.
        -13    1    3    3    0    0 -0.86198193399E+02 -0.12294195746E+03  0.26629911414E+03  0.30571240021E+03  0.00000000000E+00 0.  1.
         22    1    1    2    0    0  0.37806563268E+03  0.31467780477E+03 -0.70929924599E+03  0.86316925559E+03  0.00000000000E+00 0.  1.
<mgrwt>
<rscale>  0 0.19104195E+04</rscale>
<asrwt>0</asrwt>
<pdfrwt beam="1">  1        1 0.16538704E+00 0.19104195E+04</pdfrwt>
<pdfrwt beam="2">  1       -1 0.13057779E+00 0.19104195E+04</pdfrwt>
<totfact> 0.62089678E+00</totfact>
</mgrwt>
</event>
<event>
 6    1  0.1831439E-005  0.2857405E+04  0.7818608E-02  0.8285665E-01
         -2   -1    0    0    0  501 -0.00000000000E+00  0.00000000000E+00  0.15466464919E+04  0.15466464919E+04  0.00000000000E+00 0. -1.
          2   -1    0    0  501    0  0.00000000000E+00 -0.00000000000E+00 -0.13197531215E+04  0.13197531215E+04  0.00000000000E+00 0.  1.
         23    2    1    2    0    0 -0.63825934658E+03  0.36595064399E+03  0.13404409149E+04  0.15317524687E+04  0.90492605641E+02 0.  0.
         13    1    3    3    0    0 -0.55435348754E+03  0.34106403416E+03  0.11337392169E+04  0.13072861495E+04  0.00000000000E+00 0. -1.
        -13    1    3    3    0    0 -0.83905859046E+02  0.24886609825E+02  0.20670169794E+03  0.22446631922E+03  0.00000000000E+00 0.  1.
         22    1    1    2    0    0  0.63825934658E+03 -0.36595064399E+03 -0.11135475444E+04  0.13346471447E+04  0.00000000000E+00 0.  1.
<mgrwt>
<rscale>  0 0.28574055E+04</rscale>
<asrwt>0</asrwt>
<pdfrwt beam="1">  1        2 0.20303894E+00 0.28574055E+04</pdfrwt>
<pdfrwt beam="2">  1       -2 0.23794561E+00 0.28574055E+04</pdfrwt>
<totfact> 0.10636041E+00</totfact>
</mgrwt>
</event>
<event>
 6    1  0.1831439E-005  0.2509087E+04  0.7818608E-02  0.8399755E-01
         -2   -1    0    0    0  501 -0.00000000000E+00  0.00000000000E+00  0.62132581151E+03  0.62132581151E+03  0.00000000000E+00 0. -1.
          2   -1    0    0  501    0  0.00000000000E+00 -0.00000000000E+00 -0.25330986539E+04  0.25330986539E+04  0.00000000000E+00 0.  1.
         23    2    1    2    0    0  0.11019136122E+04 -0.15687267078E+03 -0.16803178764E+04  0.20175893653E+04  0.91520695395E+02 0.  0.
         11    1    3    3    0    0  0.50271132319E+03 -0.10237631788E+03 -0.83487224798E+03  0.97990369699E+03  0.00000000000E+00 0. -1.
        -11    1    3    3    0    0  0.59920228897E+03 -0.54496352903E+02 -0.84544562846E+03  0.10376856683E+04  0.00000000000E+00 0.  1.
         22    1    1    2    0    0 -0.11019136122E+04  0.15687267078E+03 -0.23145496594E+03  0.11368351001E+04  0.00000000000E+00 0. -1.
<mgrwt>
<rscale>  0 0.25090871E+04</rscale>
<asrwt>0</asrwt>
<pdfrwt beam="1">  1        2 0.38970749E+00 0.25090871E+04</pdfrwt>
<pdfrwt beam="2">  1       -2 0.95588584E-01 0.25090871E+04</pdfrwt>
<totfact> 0.27259873E+00</totfact>
</mgrwt>
</event>
<event>
 6    1  0.1831439E-005  0.1192500E+04  0.7818608E-02  0.9119447E-01
          1   -1    0    0  501    0  0.00000000000E+00  0.00000000000E+00  0.78732582342E+03  0.78732582342E+03  0.00000000000E+00 0. -1.
         -1   -1    0    0    0  501 -0.00000000000E+00 -0.00000000000E+00 -0.45154605834E+03  0.45154605834E+03  0.00000000000E+00 0.  1.
         23    2    1    2    0    0 -0.23949752569E+03  0.48338166496E+03  0.42340976245E+03  0.69234108183E+03  0.95097044228E+02 0.  0.
         11    1    3    3    0    0 -0.19202415932E+03  0.31444069185E+03  0.24737979158E+03  0.44378259062E+03  0.00000000000E+00 0. -1.
        -11    1    3    3    0    0 -0.47473366374E+02  0.16894097310E+03  0.17602997087E+03  0.24855849121E+03  0.00000000000E+00 0.  1.
         22    1    1    2    0    0  0.23949752569E+03 -0.48338166496E+03 -0.87629997371E+02  0.54653079992E+03  0.00000000000E+00 0.  1.
<mgrwt>
<rscale>  0 0.11924997E+04</rscale>
<asrwt>0</asrwt>
<pdfrwt beam="1">  1        1 0.12112705E+00 0.11924997E+04</pdfrwt>
<pdfrwt beam="2">  1       -1 0.69468624E-01 0.11924997E+04</pdfrwt>
<totfact> 0.47089447E+01</totfact>
</mgrwt>
</event>
<event>
 6    1  0.1831439E-005  0.9424871E+03  0.7818608E-02  0.9373975E-01
         -2   -1    0    0    0  501 -0.00000000000E+00  0.00000000000E+00  0.17874224239E+03  0.17874224239E+03  0.00000000000E+00 0.  1.
          2   -1    0    0  501    0  0.00000000000E+00 -0.00000000000E+00 -0.12424063769E+04  0.12424063769E+04  0.00000000000E+00 0. -1.
         23    2    1    2    0    0 -0.33212045573E+03 -0.27271440391E+03 -0.26229626451E+03  0.51182601081E+03  0.92137895320E+02 0.  0.
         11    1    3    3    0    0 -0.10896441729E+03 -0.94202948409E+02 -0.39185244753E+02  0.14927465669E+03  0.00000000000E+00 0.  1.
        -11    1    3    3    0    0 -0.22315603845E+03 -0.17851145550E+03 -0.22311101976E+03  0.36255135412E+03  0.00000000000E+00 0. -1.
         22    1    1    2    0    0  0.33212045573E+03  0.27271440391E+03 -0.80136786995E+03  0.90932260843E+03  0.00000000000E+00 0.  1.
<mgrwt>
<rscale>  0 0.94248714E+03</rscale>
<asrwt>0</asrwt>
<pdfrwt beam="1">  1        2 0.19113944E+00 0.94248714E+03</pdfrwt>
<pdfrwt beam="2">  1       -2 0.27498808E-01 0.94248714E+03</pdfrwt>
<totfact> 0.21527855E+02</totfact>
</mgrwt>
</event>
<event>
 6    1  0.1831439E-005  0.1926803E+04  0.7818608E-02  0.8641629E-01
          1   -1    0    0  501    0  0.00000000000E+00  0.00000000000E+00  0.13871319523E+04  0.13871319523E+04  0.00000000000E+00 0. -1.
         -1   -1    0    0    0  501 -0.00000000000E+00 -0.00000000000E+00 -0.66910892050E+03  0.66910892050E+03  0.00000000000E+00 0.  1.
         23    2    1    2    0    0 -0.30957092028E+03 -0.73948521203E+02  0.13279002252E+04  0.13683072064E+04  0.87424622443E+02 0.  0.
         13    1    3    3    0    0 -0.16695852501E+03 -0.75024889577E+02  0.63353017613E+03  0.65944246693E+03  0.00000000000E+00 0. -1.
        -13    1    3    3    0    0 -0.14261239527E+03  0.10763683738E+01  0.69437004905E+03  0.70886473947E+03  0.00000000000E+00 0.  1.
         22    1    1    2    0    0  0.30957092028E+03  0.73948521203E+02 -0.60987719333E+03  0.68793366644E+03  0.00000000000E+00 0.  1.
<mgrwt>
<rscale>  0 0.19268029E+04</rscale>
<asrwt>0</asrwt>
<pdfrwt beam="1">  1        1 0.21340492E+00 0.19268029E+04</pdfrwt>
<pdfrwt beam="2">  1       -1 0.10293983E+00 0.19268029E+04</pdfrwt>
<totfact> 0.65285652E+00</totfact>
</mgrwt>
</event>
<event>
 6    1  0.1831439E-005  0.5227657E+03  0.7818608E-02  0.1008002E+00
          1   -1    0    0  501    0  0.00000000000E+00  0.00000000000E+00  0.25694977453E+03  0.25694977453E+03  0.00000000000E+00 0. -1.
         -1   -1    0    0    0  501 -0.00000000000E+00 -0.00000000000E+00 -0.26589243130E+03  0.26589243130E+03  0.00000000000E+00 0.  1.
         23    2    1    2    0    0  0.60625323545E+02 -0.12448241078E+03 -0.21694646267E+03  0.27296847028E+03  0.90965475075E+02 0.  0.
         11    1    3    3    0    0  0.38549371761E+02 -0.11157891752E+03 -0.10452268474E+03  0.15767339828E+03  0.00000000000E+00 0. -1.
        -11    1    3    3    0    0  0.22075951785E+02 -0.12903493256E+02 -0.11242377793E+03  0.11529507200E+03  0.00000000000E+00 0.  1.
         22    1    1    2    0    0 -0.60625323545E+02  0.12448241078E+03  0.20800380590E+03  0.24987373555E+03  0.00000000000E+00 0. -1.
<mgrwt>
<rscale>  0 0.52276572E+03</rscale>
<asrwt>0</asrwt>
<pdfrwt beam="1">  1        1 0.39530735E-01 0.52276572E+03</pdfrwt>
<pdfrwt beam="2">  1       -1 0.40906528E-01 0.52276572E+03</pdfrwt>
<totfact> 0.63263711E+02</totfact>
</mgrwt>
</event>
<event>
 6    1  0.1831439E-005  0.2623005E+04  0.7818608E-02  0.8360429E-01
          2   -1    0    0  501    0  0.00000000000E+00  0.00000000000E+00  0.32010949849E+04  0.32010949849E+04  0.00000000000E+00 0. -1.
         -2   -1    0    0    0  501 -0.00000000000E+00 -0.00000000000E+00 -0.53732824758E+03  0.53732824758E+03  0.00000000000E+00 0.  1.
         23    2    1    2    0    0  0.61766962768E+03  0.11441021368E+04  0.15586667114E+04  0.20320435749E+04  0.96300076365E+02 0.  0.
         11    1    3    3    0    0  0.50877193901E+03  0.99313329499E+03  0.12976284886E+04  0.17114328272E+04  0.00000000000E+00 0. -1.
        -11    1    3    3    0    0  0.10889768867E+03  0.15096884183E+03  0.26103822276E+03  0.32061074771E+03  0.00000000000E+00 0.  1.
         22    1    1    2    0    0 -0.61766962768E+03 -0.11441021368E+04  0.11051000259E+04  0.17063796575E+04  0.00000000000E+00 0.  1.
<mgrwt>
<rscale>  0 0.26230050E+04</rscale>
<asrwt>0</asrwt>
<pdfrwt beam="1">  1        2 0.49247614E+00 0.26230050E+04</pdfrwt>
<pdfrwt beam="2">  1       -2 0.82665886E-01 0.26230050E+04</pdfrwt>
<totfact> 0.14672905E+00</totfact>
</mgrwt>
</event>
<event>
 6    1  0.1831439E-005  0.1779418E+04  0.7818608E-02  0.8717322E-01
          2   -1    0    0  501    0  0.00000000000E+00  0.00000000000E+00  0.16447806494E+04  0.16447806494E+04  0.00000000000E+00 0. -1.
         -2   -1    0    0    0  501 -0.00000000000E+00 -0.00000000000E+00 -0.48126904006E+03  0.48126904006E+03  0.00000000000E+00 0.  1.
         23    2    1    2    0    0  0.37797748099E+03 -0.42930390299E+03 -0.22751932184E+03  0.62200984000E+03  0.89232180209E+02 0.  0.
         11    1    3    3    0    0  0.10579857182E+03 -0.71891162292E+02 -0.70862547987E+02  0.14622987972E+03  0.00000000000E+00 0. -1.
        -11    1    3    3    0    0  0.27217890917E+03 -0.35741274070E+03 -0.15665677385E+03  0.47577996028E+03  0.00000000000E+00 0.  1.
         22    1    1    2    0    0 -0.37797748099E+03  0.42930390299E+03  0.13910309312E+04  0.15040398494E+04  0.00000000000E+00 0. -1.
<mgrwt>
<rscale>  0 0.17794179E+04</rscale>
<asrwt>0</asrwt>
<pdfrwt beam="1">  1        2 0.25304317E+00 0.17794179E+04</pdfrwt>
<pdfrwt beam="2">  1       -2 0.74041392E-01 0.17794179E+04</pdfrwt>
<totfact> 0.16354102E+01</totfact>
</mgrwt>
</event>
<event>
 6    1  0.1831439E-005  0.1766442E+04  0.7818608E-02  0.8724352E-01
         -1   -1    0    0    0  501 -0.00000000000E+00  0.00000000000E+00  0.73200730604E+03  0.73200730604E+03  0.00000000000E+00 0.  1.
          1   -1    0    0  501    0  0.00000000000E+00 -0.00000000000E+00 -0.10656713764E+04  0.10656713764E+04  0.00000000000E+00 0. -1.
         23    2    1    2    0    0 -0.40627771357E+03  0.25165488846E+03 -0.92035880916E+03  0.10409736673E+04  0.90410591278E+02 0.  0.
         13    1    3    3    0    0 -0.23250818624E+03  0.11346917844E+03 -0.57334968023E+03  0.62901921031E+03  0.00000000000E+00 0. -1.
        -13    1    3    3    0    0 -0.17376952733E+03  0.13818571002E+03 -0.34700912894E+03  0.41195445701E+03  0.00000000000E+00 0.  1.
         22    1    1    2    0    0  0.40627771357E+03 -0.25165488846E+03  0.58669473878E+03  0.75670501514E+03  0.00000000000E+00 0.  1.
<mgrwt>
<rscale>  0 0.17664419E+04</rscale>
<asrwt>0</asrwt>
<pdfrwt beam="1">  1        1 0.16394944E+00 0.17664419E+04</pdfrwt>
<pdfrwt beam="2">  1       -1 0.11261651E+00 0.17664419E+04</pdfrwt>
<totfact> 0.91955762E+00</totfact>
</mgrwt>
</event>
<event>
 6    1  0.1831439E-005  0.1472138E+04  0.7818608E-02  0.8903195E-01
          1   -1    0    0  501    0  0.00000000000E+00  0.00000000000E+00  0.31258096287E+03  0.31258096287E+03  0.00000000000E+00 0. -1.
         -1   -1    0    0    0  501 -0.00000000000E+00 -0.00000000000E+00 -0.17333034271E+04  0.17333034271E+04  0.00000000000E+00 0.  1.
         23    2    1    2    0    0 -0.47075942654E+03  0.19863169366E+02  0.67867485110E+02  0.48450390449E+03  0.90161270848E+02 0.  0.
         11    1    3    3    0    0 -0.42486674372E+03 -0.51466090458E+01  0.44397757477E+02  0.42721118709E+03  0.00000000000E+00 0. -1.
        -11    1    3    3    0    0 -0.45892682820E+02  0.25009778411E+02  0.23469727632E+02  0.57292717406E+02  0.00000000000E+00 0.  1.
         22    1    1    2    0    0  0.47075942654E+03 -0.19863169366E+02 -0.14885899494E+04  0.15613804855E+04  0.00000000000E+00 0.  1.
<mgrwt>
<rscale>  0 0.14721381E+04</rscale>
<asrwt>0</asrwt>
<pdfrwt beam="1">  1        1 0.48089379E-01 0.14721381E+04</pdfrwt>
<pdfrwt beam="2">  1       -1 0.26666206E+00 0.14721381E+04</pdfrwt>
<totfact> 0.43807818E+00</totfact>
</mgrwt>
</event>
<event>
 6    1  0.1831439E-005  0.2108217E+04  0.7818608E-02  0.8557632E-01
         -2   -1    0    0    0  501 -0.00000000000E+00  0.00000000000E+00  0.67438165799E+03  0.67438165799E+03  0.00000000000E+00 0.  1.
          2   -1    0    0  501    0  0.00000000000E+00 -0.00000000000E+00 -0.16476501057E+04  0.16476501057E+04  0.00000000000E+00 0. -1.
         23    2    1    2    0    0  0.12924450851E+03 -0.98942129942E+03 -0.85490276202E+03  0.13172088508E+04  0.92313452134E+02 0.  0.
         13    1    3    3    0    0  0.55474206325E+02 -0.73599462186E+03 -0.62331662288E+03  0.96606888125E+03  0.00000000000E+00 0.  1.
        -13    1    3    3    0    0  0.73770302186E+02 -0.25342667756E+03 -0.23158613914E+03  0.35113996957E+03  0.00000000000E+00 0. -1.
         22    1    1    2    0    0 -0.12924450851E+03  0.98942129942E+03 -0.11836568572E+03  0.10048229129E+04  0.00000000000E+00 0. -1.
<mgrwt>
<rscale>  0 0.21082173E+04</rscale>
<asrwt>0</asrwt>
<pdfrwt beam="1">  1        2 0.25348463E+00 0.21082173E+04</pdfrwt>
<pdfrwt beam="2">  1       -2 0.10375103E+00 0.21082173E+04</pdfrwt>
<totfact> 0.73077031E+00</totfact>
</mgrwt>
</event>
<event>
 6    1  0.1831439E-005  0.1754541E+04  0.7818608E-02  0.8730855E-01
         -2   -1    0    0    0  501 -0.00000000000E+00  0.00000000000E+00  0.27434166050E+03  0.27434166050E+03  0.00000000000E+00 0.  1.
          2   -1    0    0  501    0  0.00000000000E+00 -0.00000000000E+00 -0.28052746428E+04  0.28052746428E+04  0.00000000000E+00 0. -1.
         23    2    1    2    0    0 -0.48041675248E+03 -0.13429210645E+03 -0.25304744178E+04  0.25807828278E+04  0.91129573970E+02 0.  0.
         13    1    3    3    0    0 -0.27339853870E+02  0.11102004071E+02 -0.10465043314E+03  0.10873102253E+03  0.00000000000E+00 0. -1.
        -13    1    3    3    0    0 -0.45307689861E+03 -0.14539411052E+03 -0.24258239847E+04  0.24720518053E+04  0.00000000000E+00 0.  1.
         22    1    1    2    0    0  0.48041675248E+03  0.13429210645E+03 -0.45856443701E+00  0.49883347542E+03  0.00000000000E+00 0.  1.
<mgrwt>
<rscale>  0 0.17545412E+04</rscale>
<asrwt>0</asrwt>
<pdfrwt beam="1">  1        2 0.43158071E+00 0.17545412E+04</pdfrwt>
<pdfrwt beam="2">  1       -2 0.42206409E-01 0.17545412E+04</pdfrwt>
<totfact> 0.11606174E+01</totfact>
</mgrwt>
</event>
<event>
 6    1  0.1831439E-005  0.1649861E+04  0.7818608E-02  0.8790489E-01
          2   -1    0    0  501    0  0.00000000000E+00  0.00000000000E+00  0.11734655118E+04  0.11734655118E+04  0.00000000000E+00 0. -1.
         -2   -1    0    0    0  501 -0.00000000000E+00 -0.00000000000E+00 -0.57991502393E+03  0.57991502393E+03  0.00000000000E+00 0.  1.
         23    2    1    2    0    0 -0.79658335930E+02  0.19211331748E+03  0.11433155193E+04  0.11655926768E+04  0.90459573519E+02 0.  0.
         11    1    3    3    0    0 -0.23891706197E+02  0.57278584968E+02  0.59382730506E+03  0.59706156982E+03  0.00000000000E+00 0. -1.
        -11    1    3    3    0    0 -0.55766629733E+02  0.13483473251E+03  0.54948821420E+03  0.56853110700E+03  0.00000000000E+00 0.  1.
         22    1    1    2    0    0  0.79658335930E+02 -0.19211331748E+03 -0.54976503144E+03  0.58778785887E+03  0.00000000000E+00 0.  1.
<mgrwt>
<rscale>  0 0.16498609E+04</rscale>
<asrwt>0</asrwt>
<pdfrwt beam="1">  1        2 0.18053315E+00 0.16498609E+04</pdfrwt>
<pdfrwt beam="2">  1       -2 0.89217697E-01 0.16498609E+04</pdfrwt>
<totfact> 0.20243442E+01</totfact>
</mgrwt>
</event>
<event>
 6    1  0.1831439E-005  0.2323419E+04  0.7818608E-02  0.8468744E-01
          2   -1    0    0  501    0  0.00000000000E+00  0.00000000000E+00  0.21128104939E+04  0.21128104939E+04  0.00000000000E+00 0. -1.
         -2   -1    0    0    0  501 -0.00000000000E+00 -0.00000000000E+00 -0.63875521827E+03  0.63875521827E+03  0.00000000000E+00 0.  1.
         23    2    1    2    0    0  0.44061163804E+03  0.54781617036E+03 -0.35445479217E+03  0.79256335379E+03  0.90979656981E+02 0.  0.
         11    1    3    3    0    0  0.19283568811E+03  0.18694916703E+03 -0.16778248101E+03  0.31668052450E+03  0.00000000000E+00 0.  1.
        -11    1    3    3    0    0  0.24777594993E+03  0.36086700333E+03 -0.18667231116E+03  0.47588282929E+03  0.00000000000E+00 0. -1.
         22    1    1    2    0    0 -0.44061163804E+03 -0.54781617036E+03  0.18285100678E+04  0.19590023584E+04  0.00000000000E+00 0. -1.
<mgrwt>
<rscale>  0 0.23234188E+04</rscale>
<asrwt>0</asrwt>
<pdfrwt beam="1">  1        2 0.32504777E+00 0.23234188E+04</pdfrwt>
<pdfrwt beam="2">  1       -2 0.98270035E-01 0.23234188E+04</pdfrwt>
<totfact> 0.45014469E+00</totfact>
</mgrwt>
</event>
<event>
 6    1  0.1831439E-005  0.2006973E+04  0.7818608E-02  0.8603367E-01
         -2   -1    0    0    0  501 -0.00000000000E+00  0.00000000000E+00  0.56696467233E+03  0.56696467233E+03  0.00000000000E+00 0.  1.
          2   -1    0    0  501    0  0.00000000000E+00 -0.00000000000E+00 -0.17760989543E+04  0.17760989543E+04  0.00000000000E+00 0. -1.
         23    2    1    2    0    0  0.68033488196E+03 -0.69249737016E+03 -0.89283807439E+03  0.13220585090E+04  0.90943471088E+02 0.  0.
         11    1    3    3    0    0  0.48711531422E+03 -0.55078141527E+03 -0.68246258983E+03  0.10031932432E+04  0.00000000000E+00 0. -1.
        -11    1    3    3    0    0  0.19321956774E+03 -0.14171595489E+03 -0.21037548455E+03  0.31886526580E+03  0.00000000000E+00 0.  1.
         22    1    1    2    0    0 -0.68033488196E+03  0.69249737016E+03 -0.31629620761E+03  0.10210051176E+04  0.00000000000E+00 0.  1.
<mgrwt>
<rscale>  0 0.20069732E+04</rscale>
<asrwt>0</asrwt>
<pdfrwt beam="1">  1        2 0.27324599E+00 0.20069732E+04</pdfrwt>
<pdfrwt beam="2">  1       -2 0.87225334E-01 0.20069732E+04</pdfrwt>
<totfact> 0.93820537E+00</totfact>
</mgrwt>
</event>
<event>
 6    1  0.1831439E-005  0.2522196E+04  0.7818608E-02  0.8395121E-01
         -1   -1    0    0    0  501 -0.00000000000E+00  0.00000000000E+00  0.11520937387E+04  0.11520937387E+04  0.00000000000E+00 0.  1.
          1   -1    0    0  501    0  0.00000000000E+00 -0.00000000000E+00 -0.13804156112E+04  0.13804156112E+04  0.00000000000E+00 0. -1.
         23    2    1    2    0    0 -0.14037368194E+03 -0.10864570820E+04  0.50970414225E+03  0.12116095960E+04  0.90031876817E+02 0.  0.
         11    1    3    3    0    0 -0.40326973750E+02 -0.56640214105E+03  0.29789939242E+03  0.64123451108E+03  0.00000000000E+00 0.  1.
        -11    1    3    3    0    0 -0.10004670819E+03 -0.52005494094E+03  0.21180474983E+03  0.57037508490E+03  0.00000000000E+00 0. -1.
         22    1    1    2    0    0  0.14037368194E+03  0.10864570820E+04 -0.73802601478E+03  0.13208997540E+04  0.00000000000E+00 0. -1.
<mgrwt>
<rscale>  0 0.25221960E+04</rscale>
<asrwt>0</asrwt>
<pdfrwt beam="1">  1        1 0.21237163E+00 0.25221960E+04</pdfrwt>
<pdfrwt beam="2">  1       -1 0.17724519E+00 0.25221960E+04</pdfrwt>
<totfact> 0.15321010E+00</totfact>
</mgrwt>
</event>
<event>
 6    1  0.1831439E-005  0.1094163E+04  0.7818608E-02  0.9210900E-01
          3   -1    0    0  501    0  0.00000000000E+00  0.00000000000E+00  0.11661229371E+04  0.11661229371E+04  0.00000000000E+00 0. -1.
         -3   -1    0    0    0  501 -0.00000000000E+00 -0.00000000000E+00 -0.25666098623E+03  0.25666098623E+03  0.00000000000E+00 0.  1.
         23    2    1    2    0    0 -0.50418874561E+03 -0.14357153799E+03  0.64373454863E+03  0.83505088015E+03  0.89981807100E+02 0.  0.
         13    1    3    3    0    0 -0.21122554551E+03 -0.14755037994E+02  0.24748904287E+03  0.32570656819E+03  0.00000000000E+00 0.  1.
        -13    1    3    3    0    0 -0.29296320011E+03 -0.12881650000E+03  0.39624550576E+03  0.50934431196E+03  0.00000000000E+00 0. -1.
         22    1    1    2    0    0  0.50418874561E+03  0.14357153799E+03  0.26572740222E+03  0.58773304315E+03  0.00000000000E+00 0.  1.
<mgrwt>
<rscale>  0 0.10941632E+04</rscale>
<asrwt>0</asrwt>
<pdfrwt beam="1">  1        3 0.17940353E+00 0.10941632E+04</pdfrwt>
<pdfrwt beam="2">  1       -3 0.39486306E-01 0.10941632E+04</pdfrwt>
<totfact> 0.33312345E+00</totfact>
</mgrwt>
</event>
<event>
 6    1  0.1831439E-005  0.2697902E+04  0.7818608E-02  0.8335686E-01
         -1   -1    0    0    0  501 -0.00000000000E+00  0.00000000000E+00  0.59428438090E+03  0.59428438090E+03  0.00000000000E+00 0.  1.
          1   -1    0    0  501    0  0.00000000000E+00 -0.00000000000E+00 -0.30619493116E+04  0.30619493116E+04  0.00000000000E+00 0. -1.
         23    2    1    2    0    0  0.37258752834E+03 -0.43442342923E+03  0.41787126766E+03  0.71448857537E+03  0.91281684141E+02 0.  0.
         11    1    3    3    0    0  0.33049313701E+03 -0.41761449046E+03  0.39870366356E+03  0.66527602361E+03  0.00000000000E+00 0. -1.
        -11    1    3    3    0    0  0.42094391327E+02 -0.16808938773E+02  0.19167604099E+02  0.49212551761E+02  0.00000000000E+00 0.  1.
         22    1    1    2    0    0 -0.37258752834E+03  0.43442342923E+03 -0.28855361983E+04  0.29417451171E+04  0.00000000000E+00 0. -1.
<mgrwt>
<rscale>  0 0.26979019E+04</rscale>
<asrwt>0</asrwt>
<pdfrwt beam="1">  1        1 0.47106913E+00 0.26979019E+04</pdfrwt>
<pdfrwt beam="2">  1       -1 0.91428366E-01 0.26979019E+04</pdfrwt>
<totfact> 0.54822933E-01</totfact>
</mgrwt>
</event>
<event>
 6    1  0.1831439E-005  0.3979144E+04  0.7818608E-02  0.8008767E-01
          1   -1    0    0  501    0  0.00000000000E+00  0.00000000000E+00  0.26832650235E+04  0.26832650235E+04  0.00000000000E+00 0. -1.
         -1   -1    0    0    0  501 -0.00000000000E+00 -0.00000000000E+00 -0.14752167908E+04  0.14752167908E+04  0.00000000000E+00 0.  1.
         23    2    1    2    0    0  0.17235775574E+04  0.45397786166E+03 -0.31711366371E+03  0.18126484217E+04  0.91201588718E+02 0.  0.
         11    1    3    3    0    0  0.13616969483E+04  0.39341741653E+03 -0.23653396789E+03  0.14369913571E+04  0.00000000000E+00 0. -1.
        -11    1    3    3    0    0  0.36188060915E+03  0.60560445121E+02 -0.80579695821E+02  0.37565706459E+03  0.00000000000E+00 0.  1.
         22    1    1    2    0    0 -0.17235775574E+04 -0.45397786166E+03  0.15251618964E+04  0.23458333925E+04  0.00000000000E+00 0. -1.
<mgrwt>
<rscale>  0 0.39791444E+04</rscale>
<asrwt>0</asrwt>
<pdfrwt beam="1">  1        1 0.41281000E+00 0.39791444E+04</pdfrwt>
<pdfrwt beam="2">  1       -1 0.22695643E+00 0.39791444E+04</pdfrwt>
<totfact> 0.78172575E-02</totfact>
</mgrwt>
</event>
<event>
 6    1  0.1831439E-005  0.3950288E+04  0.7818608E-02  0.8014651E-01
         -2   -1    0    0    0  501 -0.00000000000E+00  0.00000000000E+00  0.83144356529E+03  0.83144356529E+03  0.00000000000E+00 0. -1.
          2   -1    0    0  501    0  0.00000000000E+00 -0.00000000000E+00 -0.46920739718E+04  0.46920739718E+04  0.00000000000E+00 0.  1.
         23    2    1    2    0    0  0.80539510918E+03  0.14872323041E+04 -0.50761560484E+03  0.17680908678E+04  0.89165611002E+02 0.  0.
         13    1    3    3    0    0  0.28988633335E+03  0.49460364141E+03 -0.21133665246E+03  0.61100738869E+03  0.00000000000E+00 0. -1.
        -13    1    3    3    0    0  0.51550877583E+03  0.99262866272E+03 -0.29627895238E+03  0.11570834791E+04  0.00000000000E+00 0.  1.
         22    1    1    2    0    0 -0.80539510918E+03 -0.14872323041E+04 -0.33530148017E+04  0.37554266693E+04  0.00000000000E+00 0.  1.
<mgrwt>
<rscale>  0 0.39502885E+04</rscale>
<asrwt>0</asrwt>
<pdfrwt beam="1">  1        2 0.72185754E+00 0.39502885E+04</pdfrwt>
<pdfrwt beam="2">  1       -2 0.12791439E+00 0.39502885E+04</pdfrwt>
<totfact> 0.27804006E-02</totfact>
</mgrwt>
</event>
<event>
 6    1  0.1831439E-005  0.6066923E+03  0.7818608E-02  0.9891618E-01
          1   -1    0    0  501    0  0.00000000000E+00  0.00000000000E+00  0.22605954446E+04  0.22605954446E+04  0.00000000000E+00 0. -1.
         -1   -1    0    0    0  501 -0.00000000000E+00 -0.00000000000E+00 -0.40705593387E+02  0.40705593387E+02  0.00000000000E+00 0.  1.
         23    2    1    2    0    0 -0.41333727475E+02 -0.28759333573E+03  0.91224463617E+03  0.96176589018E+03  0.91569359024E+02 0.  0.
         13    1    3    3    0    0  0.27752930225E+02 -0.50282524674E+02  0.17823266118E+03  0.18725768058E+03  0.00000000000E+00 0. -1.
        -13    1    3    3    0    0 -0.69086657700E+02 -0.23731081106E+03  0.73401197498E+03  0.77450820960E+03  0.00000000000E+00 0.  1.
         22    1    1    2    0    0  0.41333727475E+02  0.28759333573E+03  0.13076452151E+04  0.13395351478E+04  0.00000000000E+00 0.  1.
<mgrwt>
<rscale>  0 0.60669227E+03</rscale>
<asrwt>0</asrwt>
<pdfrwt beam="1">  1        1 0.34778382E+00 0.60669227E+03</pdfrwt>
<pdfrwt beam="2">  1       -1 0.62624007E-02 0.60669227E+03</pdfrwt>
<totfact> 0.27279128E+02</totfact>
</mgrwt>
</event>
<event>
 6    1  0.1831439E-005  0.2435247E+04  0.7818608E-02  0.8426424E-01
          2   -1    0    0  501    0  0.00000000000E+00  0.00000000000E+00  0.15469027557E+04  0.15469027557E+04  0.00000000000E+00 0. -1.
         -2   -1    0    0    0  501 -0.00000000000E+00 -0.00000000000E+00 -0.95843614061E+03  0.95843614061E+03  0.00000000000E+00 0.  1.
         23    2    1    2    0    0 -0.10348983286E+04  0.56173094906E+03  0.60652468681E+03  0.13276792240E+04  0.91124729734E+02 0.  0.
         13    1    3    3    0    0 -0.90351036578E+03  0.47083356563E+03  0.49409017694E+03  0.11323163562E+04  0.00000000000E+00 0.  1.
        -13    1    3    3    0    0 -0.13138796285E+03  0.90897383427E+02  0.11243450987E+03  0.19536286778E+03  0.00000000000E+00 0. -1.
         22    1    1    2    0    0  0.10348983286E+04 -0.56173094906E+03 -0.18058071764E+02  0.11776596723E+04  0.00000000000E+00 0.  1.
<mgrwt>
<rscale>  0 0.24352474E+04</rscale>
<asrwt>0</asrwt>
<pdfrwt beam="1">  1        2 0.23798504E+00 0.24352474E+04</pdfrwt>
<pdfrwt beam="2">  1       -2 0.14745171E+00 0.24352474E+04</pdfrwt>
<totfact> 0.33581751E+00</totfact>
</mgrwt>
</event>
<event>
 6    1  0.1831439E-005  0.1888772E+04  0.7818608E-02  0.8660466E-01
          1   -1    0    0  501    0  0.00000000000E+00  0.00000000000E+00  0.56411582694E+03  0.56411582694E+03  0.00000000000E+00 0. -1.
         -1   -1    0    0    0  501 -0.00000000000E+00 -0.00000000000E+00 -0.15809954474E+04  0.15809954474E+04  0.00000000000E+00 0.  1.
         23    2    1    2    0    0  0.33650310071E+03  0.63957428233E+03 -0.11962495974E+04  0.14004884248E+04  0.89806065128E+02 0.  0.
         11    1    3    3    0    0  0.11806825328E+03  0.29676279433E+03 -0.58295707632E+03  0.66471589523E+03  0.00000000000E+00 0.  1.
        -11    1    3    3    0    0  0.21843484743E+03  0.34281148801E+03 -0.61329252104E+03  0.73577252955E+03  0.00000000000E+00 0. -1.
         22    1    1    2    0    0 -0.33650310071E+03 -0.63957428233E+03  0.17936997694E+03  0.74462284953E+03  0.00000000000E+00 0. -1.
<mgrwt>
<rscale>  0 0.18887716E+04</rscale>
<asrwt>0</asrwt>
<pdfrwt beam="1">  1        1 0.86787050E-01 0.18887716E+04</pdfrwt>
<pdfrwt beam="2">  1       -1 0.24323007E+00 0.18887716E+04</pdfrwt>
<totfact> 0.27056978E+00</totfact>
</mgrwt>
</event>
<event>
 6    1  0.2547107E-005  0.3633129E+04  0.7818608E-02  0.8082945E-01
          2   -1    0    0  501    0  0.00000000000E+00  0.00000000000E+00  0.26154816693E+04  0.26154816693E+04  0.00000000000E+00 0. -1.
         -2   -1    0    0    0  501 -0.00000000000E+00 -0.00000000000E+00 -0.12616820176E+04  0.12616820176E+04  0.00000000000E+00 0.  1.
         23    2    1    2    0    0  0.14163489012E+03 -0.13893180388E+04 -0.56057679303E+03  0.15075429942E+04  0.90412850837E+02 0.  0.
         13    1    3    3    0    0  0.44247066320E+02 -0.77160184240E+03 -0.27842671031E+03  0.82149171578E+03  0.00000000000E+00 0.  1.
        -13    1    3    3    0    0  0.97387823797E+02 -0.61771619639E+03 -0.28215008272E+03  0.68605127846E+03  0.00000000000E+00 0. -1.
         22    1    1    2    0    0 -0.14163489012E+03  0.13893180388E+04  0.19143764447E+04  0.23696206926E+04  0.00000000000E+00 0. -1.
<mgrwt>
<rscale>  0 0.36331288E+04</rscale>
<asrwt>0</asrwt>
<pdfrwt beam="1">  1        2 0.40238179E+00 0.36331288E+04</pdfrwt>
<pdfrwt beam="2">  1       -2 0.19410493E+00 0.36331288E+04</pdfrwt>
<totfact> 0.35238483E-01</totfact>
</mgrwt>
</event>
<event>
 6    1  0.1831439E-005  0.1100234E+04  0.7818608E-02  0.9204964E-01
          2   -1    0    0  501    0  0.00000000000E+00  0.00000000000E+00  0.10362117280E+04  0.10362117280E+04  0.00000000000E+00 0. -1.
         -2   -1    0    0    0  501 -0.00000000000E+00 -0.00000000000E+00 -0.29205304284E+03  0.29205304284E+03  0.00000000000E+00 0.  1.
         23    2    1    2    0    0  0.30756885324E+03 -0.18084997911E+02  0.91932202510E+03  0.97385277568E+03  0.91162361907E+02 0.  0.
         11    1    3    3    0    0  0.22602758270E+03  0.27778821359E+02  0.64652243902E+03  0.68545707029E+03  0.00000000000E+00 0.  1.
        -11    1    3    3    0    0  0.81541270541E+02 -0.45863819271E+02  0.27279958609E+03  0.28839570539E+03  0.00000000000E+00 0. -1.
         22    1    1    2    0    0 -0.30756885324E+03  0.18084997911E+02 -0.17516333996E+03  0.35441199514E+03  0.00000000000E+00 0.  1.
<mgrwt>
<rscale>  0 0.11002341E+04</rscale>
<asrwt>0</asrwt>
<pdfrwt beam="1">  1        2 0.15941719E+00 0.11002341E+04</pdfrwt>
<pdfrwt beam="2">  1       -2 0.44931238E-01 0.11002341E+04</pdfrwt>
<totfact> 0.11133381E+02</totfact>
</mgrwt>
</event>
<event>
 6    1  0.1831439E-005  0.4218061E+04  0.7818608E-02  0.7961946E-01
          1   -1    0    0  501    0  0.00000000000E+00  0.00000000000E+00  0.24376210979E+04  0.24376210979E+04  0.00000000000E+00 0. -1.
         -1   -1    0    0    0  501 -0.00000000000E+00 -0.00000000000E+00 -0.18247336880E+04  0.18247336880E+04  0.00000000000E+00 0.  1.
         23    2    1    2    0    0 -0.24579761792E+03  0.15684836434E+04  0.17080333098E+04  0.23336500520E+04  0.89372081404E+02 0.  0.
         13    1    3    3    0    0 -0.19082829759E+03  0.94628931709E+03  0.10196818953E+04  0.14041474561E+04  0.00000000000E+00 0. -1.
        -13    1    3    3    0    0 -0.54969320327E+02  0.62219432633E+03  0.68835141456E+03  0.92950259592E+03  0.00000000000E+00 0.  1.
         22    1    1    2    0    0  0.24579761792E+03 -0.15684836434E+04 -0.10951458999E+04  0.19287047340E+04  0.00000000000E+00 0.  1.
<mgrwt>
<rscale>  0 0.42180609E+04</rscale>
<asrwt>0</asrwt>
<pdfrwt beam="1">  1        1 0.37501863E+00 0.42180609E+04</pdfrwt>
<pdfrwt beam="2">  1       -1 0.28072826E+00 0.42180609E+04</pdfrwt>
<totfact> 0.50658334E-02</totfact>
</mgrwt>
</event>
<event>
 6    1  0.1831439E-005  0.2812268E+04  0.7818608E-02  0.8299470E-01
         -1   -1    0    0    0  501 -0.00000000000E+00  0.00000000000E+00  0.13674117219E+04  0.13674117219E+04  0.00000000000E+00 0.  1.
          1   -1    0    0  501    0  0.00000000000E+00 -0.00000000000E+00 -0.14459524464E+04  0.14459524464E+04  0.00000000000E+00 0. -1.
         23    2    1    2    0    0 -0.97893395818E+02 -0.75930151507E+03 -0.12174720056E+04  0.14410353553E+04  0.90680223521E+02 0.  0.
         11    1    3    3    0    0  0.17064662543E+00 -0.30988820429E+03 -0.45330663311E+03  0.54910621185E+03  0.00000000000E+00 0.  1.
        -11    1    3    3    0    0 -0.98064042444E+02 -0.44941331078E+03 -0.76416537252E+03  0.89192914342E+03  0.00000000000E+00 0. -1.
         22    1    1    2    0    0  0.97893395818E+02  0.75930151507E+03  0.11389312812E+04  0.13723288130E+04  0.00000000000E+00 0.  1.
<mgrwt>
<rscale>  0 0.28122676E+04</rscale>
<asrwt>0</asrwt>
<pdfrwt beam="1">  1        1 0.22245422E+00 0.28122676E+04</pdfrwt>
<pdfrwt beam="2">  1       -1 0.21037103E+00 0.28122676E+04</pdfrwt>
<totfact> 0.78857928E-01</totfact>
</mgrwt>
</event>
<event>
 6    1  0.1831439E-005  0.4423794E+04  0.7818608E-02  0.7924116E-01
          2   -1    0    0  501    0  0.00000000000E+00  0.00000000000E+00  0.29926391916E+04  0.29926391916E+04  0.00000000000E+00 0. -1.
         -2   -1    0    0    0  501 -0.00000000000E+00 -0.00000000000E+00 -0.16348405128E+04  0.16348405128E+04  0.00000000000E+00 0.  1.
         23    2    1    2    0    0 -0.61954842662E+03 -0.81906935236E+03  0.27272804921E+04  0.29156983826E+04  0.92321820470E+02 0.  0.
         13    1    3    3    0    0 -0.21960652389E+03 -0.22198955177E+03  0.85426485935E+03  0.90954650038E+03  0.00000000000E+00 0. -1.
        -13    1    3    3    0    0 -0.39994190274E+03 -0.59707980059E+03  0.18730156328E+04  0.20061518822E+04  0.00000000000E+00 0.  1.
         22    1    1    2    0    0  0.61954842662E+03  0.81906935236E+03 -0.13694818133E+04  0.17117813219E+04  0.00000000000E+00 0.  1.
<mgrwt>
<rscale>  0 0.44237938E+04</rscale>
<asrwt>0</asrwt>
<pdfrwt beam="1">  1        2 0.46040603E+00 0.44237938E+04</pdfrwt>
<pdfrwt beam="2">  1       -2 0.25151392E+00 0.44237938E+04</pdfrwt>
<totfact> 0.84339551E-02</totfact>
</mgrwt>
</event>
<event>
 6    1  0.1831439E-005  0.1345585E+04  0.7818608E-02  0.8994177E-01
         -2   -1    0    0    0  501 -0.00000000000E+00  0.00000000000E+00  0.14866406220E+03  0.14866406220E+03  0.00000000000E+00 0.  1.
          2   -1    0    0  501    0  0.00000000000E+00 -0.00000000000E+00 -0.30447841772E+04  0.30447841772E+04  0.00000000000E+00 0. -1.
         23    2    1    2    0    0  0.37909993417E+03  0.51971202384E+03 -0.10219477655E+04  0.12119489729E+04  0.10308117924E+03 0.  0.
         13    1    3    3    0    0  0.21172767682E+03  0.27341471504E+03 -0.45436573464E+03  0.57099250113E+03  0.00000000000E+00 0. -1.
        -13    1    3    3    0    0  0.16737225735E+03  0.24629730880E+03 -0.56758203090E+03  0.64095647173E+03  0.00000000000E+00 0.  1.
         22    1    1    2    0    0 -0.37909993417E+03 -0.51971202384E+03 -0.18741723495E+04  0.19814992666E+04  0.00000000000E+00 0. -1.
<mgrwt>
<rscale>  0 0.13455854E+04</rscale>
<asrwt>0</asrwt>
<pdfrwt beam="1">  1        2 0.46842829E+00 0.13455854E+04</pdfrwt>
<pdfrwt beam="2">  1       -2 0.22871397E-01 0.13455854E+04</pdfrwt>
<totfact> 0.27150720E+01</totfact>
</mgrwt>
</event>
<event>
 6    1  0.1831439E-005  0.1608313E+04  0.7818608E-02  0.8815457E-01
          2   -1    0    0  501    0  0.00000000000E+00  0.00000000000E+00  0.25821428574E+04  0.25821428574E+04  0.00000000000E+00 0. -1.
         -2   -1    0    0    0  501 -0.00000000000E+00 -0.00000000000E+00 -0.25043851714E+03  0.25043851714E+03  0.00000000000E+00 0.  1.
         23    2    1    2    0    0 -0.40581457807E+03 -0.18923152508E+03 -0.97616707031E+00  0.45731457034E+03  0.92960322097E+02 0.  0.
         11    1    3    3    0    0 -0.28626659147E+03 -0.97899986756E+02  0.28941891701E+02  0.30392532289E+03  0.00000000000E+00 0.  1.
        -11    1    3    3    0    0 -0.11954798660E+03 -0.91331538322E+02 -0.29918058771E+02  0.15338924745E+03  0.00000000000E+00 0. -1.
         22    1    1    2    0    0  0.40581457807E+03  0.18923152508E+03  0.23326805073E+04  0.23752668042E+04  0.00000000000E+00 0. -1.
<mgrwt>
<rscale>  0 0.16083134E+04</rscale>
<asrwt>0</asrwt>
<pdfrwt beam="1">  1        2 0.39725273E+00 0.16083134E+04</pdfrwt>
<pdfrwt beam="2">  1       -2 0.38529004E-01 0.16083134E+04</pdfrwt>
<totfact> 0.19061253E+01</totfact>
</mgrwt>
</event>
<event>
 6    1  0.1831439E-005  0.1472443E+04  0.7818608E-02  0.8902987E-01
          1   -1    0    0  501    0  0.00000000000E+00  0.00000000000E+00  0.11187468125E+04  0.11187468125E+04  0.00000000000E+00 0. -1.
         -1   -1    0    0    0  501 -0.00000000000E+00 -0.00000000000E+00 -0.48449067747E+03  0.48449067747E+03  0.00000000000E+00 0.  1.
         23    2    1    2    0    0 -0.46783868612E+03 -0.40891598563E+03 -0.10597436458E+03  0.63678701940E+03  0.90453427748E+02 0.  0.
         13    1    3    3    0    0 -0.37444743210E+03 -0.27496440067E+03 -0.82022154408E+02  0.47174562516E+03  0.00000000000E+00 0. -1.
        -13    1    3    3    0    0 -0.93391254020E+02 -0.13395158496E+03 -0.23952210169E+02  0.16504139424E+03  0.00000000000E+00 0.  1.
         22    1    1    2    0    0  0.46783868612E+03  0.40891598563E+03  0.74023049961E+03  0.96645047058E+03  0.00000000000E+00 0. -1.
<mgrwt>
<rscale>  0 0.14724434E+04</rscale>
<asrwt>0</asrwt>
<pdfrwt beam="1">  1        1 0.17211489E+00 0.14724434E+04</pdfrwt>
<pdfrwt beam="2">  1       -1 0.74537027E-01 0.14724434E+04</pdfrwt>
<totfact> 0.21555319E+01</totfact>
</mgrwt>
</event>
<event>
 6    1  0.1831439E-005  0.4352880E+04  0.7818608E-02  0.7936912E-01
         -2   -1    0    0    0  501 -0.00000000000E+00  0.00000000000E+00  0.20925329885E+04  0.20925329885E+04  0.00000000000E+00 0.  1.
          2   -1    0    0  501    0  0.00000000000E+00 -0.00000000000E+00 -0.22637113774E+04  0.22637113774E+04  0.00000000000E+00 0. -1.
         23    2    1    2    0    0  0.15162983730E+04 -0.54113064293E+03 -0.15499423181E+04  0.22365809254E+04  0.89386340591E+02 0.  0.
         11    1    3    3    0    0  0.24194186835E+03 -0.53506722252E+02 -0.22590766588E+03  0.33531046880E+03  0.00000000000E+00 0. -1.
        -11    1    3    3    0    0  0.12743565047E+04 -0.48762392068E+03 -0.13240346522E+04  0.19012704566E+04  0.00000000000E+00 0.  1.
         22    1    1    2    0    0 -0.15162983730E+04  0.54113064293E+03  0.13787639291E+04  0.21196634405E+04  0.00000000000E+00 0.  1.
<mgrwt>
<rscale>  0 0.43528798E+04</rscale>
<asrwt>0</asrwt>
<pdfrwt beam="1">  1        2 0.34826329E+00 0.43528798E+04</pdfrwt>
<pdfrwt beam="2">  1       -2 0.32192815E+00 0.43528798E+04</pdfrwt>
<totfact> 0.84907158E-02</totfact>
</mgrwt>
</event>
<event>
 6    1  0.1831439E-005  0.7256257E+03  0.7818608E-02  0.9674385E-01
          1   -1    0    0  501    0  0.00000000000E+00  0.00000000000E+00  0.94692157773E+03  0.94692157773E+03  0.00000000000E+00 0. -1.
         -1   -1    0    0    0  501 -0.00000000000E+00 -0.00000000000E+00 -0.13901170035E+03  0.13901170035E+03  0.00000000000E+00 0.  1.
         23    2    1    2    0    0  0.11498724774E+03  0.29125851621E+03  0.66794835568E+03  0.74294228991E+03  0.88060489818E+02 0.  0.
         13    1    3    3    0    0  0.87713250394E+01  0.16267296862E+02  0.11352325926E+03  0.11501778768E+03  0.00000000000E+00 0. -1.
        -13    1    3    3    0    0  0.10621592270E+03  0.27499121935E+03  0.55442509643E+03  0.62792450223E+03  0.00000000000E+00 0.  1.
         22    1    1    2    0    0 -0.11498724774E+03 -0.29125851621E+03  0.13996152169E+03  0.34299098817E+03  0.00000000000E+00 0.  1.
<mgrwt>
<rscale>  0 0.72562574E+03</rscale>
<asrwt>0</asrwt>
<pdfrwt beam="1">  1        1 0.14568024E+00 0.72562574E+03</pdfrwt>
<pdfrwt beam="2">  1       -1 0.21386416E-01 0.72562574E+03</pdfrwt>
<totfact> 0.30808246E+02</totfact>
</mgrwt>
</event>
<event>
 6    1  0.1831439E-005  0.1083090E+04  0.7818608E-02  0.9221832E-01
         -1   -1    0    0    0  501 -0.00000000000E+00  0.00000000000E+00  0.65607332741E+02  0.65607332741E+02  0.00000000000E+00 0.  1.
          1   -1    0    0  501    0  0.00000000000E+00 -0.00000000000E+00 -0.44700931295E+04  0.44700931295E+04  0.00000000000E+00 0. -1.
         23    2    1    2    0    0  0.53474055969E+02  0.29816656593E+03 -0.40781363948E+04  0.40904289632E+04  0.93004691480E+02 0.  0.
         13    1    3    3    0    0 -0.14196868422E+02  0.12665242972E+03 -0.20363893720E+04  0.20403735108E+04  0.00000000000E+00 0. -1.
        -13    1    3    3    0    0  0.67670924391E+02  0.17151413621E+03 -0.20417470228E+04  0.20500554524E+04  0.00000000000E+00 0.  1.
         22    1    1    2    0    0 -0.53474055969E+02 -0.29816656593E+03 -0.32634940192E+03  0.44527149901E+03  0.00000000000E+00 0.  1.
<mgrwt>
<rscale>  0 0.10830898E+04</rscale>
<asrwt>0</asrwt>
<pdfrwt beam="1">  1        1 0.68770672E+00 0.10830898E+04</pdfrwt>
<pdfrwt beam="2">  1       -1 0.10093435E-01 0.10830898E+04</pdfrwt>
<totfact> 0.22748136E+00</totfact>
</mgrwt>
</event>
<event>
 6    1  0.1831439E-005  0.2935955E+04  0.7818608E-02  0.8262260E-01
          2   -1    0    0  501    0  0.00000000000E+00  0.00000000000E+00  0.20743064332E+04  0.20743064332E+04  0.00000000000E+00 0. -1.
         -2   -1    0    0    0  501 -0.00000000000E+00 -0.00000000000E+00 -0.10388809021E+04  0.10388809021E+04  0.00000000000E+00 0.  1.
         23    2    1    2    0    0 -0.61807453339E+03  0.29344976771E+03 -0.85726947247E+03  0.11006209956E+04  0.91250931502E+02 0.  0.
         11    1    3    3    0    0 -0.15826744809E+03  0.10371129938E+03 -0.18789175817E+03  0.26666070489E+03  0.00000000000E+00 0. -1.
        -11    1    3    3    0    0 -0.45980708530E+03  0.18973846834E+03 -0.66937771430E+03  0.83396029070E+03  0.00000000000E+00 0.  1.
         22    1    1    2    0    0  0.61807453339E+03 -0.29344976771E+03  0.18926950036E+04  0.20125663397E+04  0.00000000000E+00 0. -1.
<mgrwt>
<rscale>  0 0.29359546E+04</rscale>
<asrwt>0</asrwt>
<pdfrwt beam="1">  1        2 0.31912407E+00 0.29359546E+04</pdfrwt>
<pdfrwt beam="2">  1       -2 0.15982783E+00 0.29359546E+04</pdfrwt>
<totfact> 0.13203897E+00</totfact>
</mgrwt>
</event>
<event>
 6    1  0.1831439E-005  0.3991556E+04  0.7818608E-02  0.8006252E-01
         -2   -1    0    0    0  501 -0.00000000000E+00  0.00000000000E+00  0.17449071247E+04  0.17449071247E+04  0.00000000000E+00 0.  1.
          2   -1    0    0  501    0  0.00000000000E+00 -0.00000000000E+00 -0.22827173058E+04  0.22827173058E+04  0.00000000000E+00 0. -1.
         23    2    1    2    0    0  0.43178498171E+03 -0.14793914739E+04 -0.15469753891E+04  0.21854920192E+04  0.90582049376E+02 0.  0.
         13    1    3    3    0    0  0.33354621008E+03 -0.12321605499E+04 -0.13123873730E+04  0.18308012759E+04  0.00000000000E+00 0.  1.
        -13    1    3    3    0    0  0.98238771629E+02 -0.24723092406E+03 -0.23458801609E+03  0.35469074326E+03  0.00000000000E+00 0. -1.
         22    1    1    2    0    0 -0.43178498171E+03  0.14793914739E+04  0.10091652080E+04  0.18421324113E+04  0.00000000000E+00 0.  1.
<mgrwt>
<rscale>  0 0.39915559E+04</rscale>
<asrwt>0</asrwt>
<pdfrwt beam="1">  1        2 0.35118728E+00 0.39915559E+04</pdfrwt>
<pdfrwt beam="2">  1       -2 0.26844725E+00 0.39915559E+04</pdfrwt>
<totfact> 0.18135004E-01</totfact>
</mgrwt>
</event>
<event>
 6    1  0.1831439E-005  0.3026298E+04  0.7818608E-02  0.8236261E-01
         -2   -1    0    0    0  501 -0.00000000000E+00  0.00000000000E+00  0.18528158978E+04  0.18528158978E+04  0.00000000000E+00 0.  1.
          2   -1    0    0  501    0  0.00000000000E+00 -0.00000000000E+00 -0.12357515142E+04  0.12357515142E+04  0.00000000000E+00 0. -1.
         23    2    1    2    0    0 -0.31425217886E+03  0.13271696922E+04  0.97452886479E+03  0.16786331302E+04  0.89268434983E+02 0.  0.
         11    1    3    3    0    0 -0.81581507245E+02  0.24320548016E+03  0.15201549753E+03  0.29818309710E+03  0.00000000000E+00 0. -1.
        -11    1    3    3    0    0 -0.23267067162E+03  0.10839642121E+04  0.82251336726E+03  0.13804500331E+04  0.00000000000E+00 0.  1.
         22    1    1    2    0    0  0.31425217886E+03 -0.13271696922E+04 -0.35746448112E+03  0.14099342818E+04  0.00000000000E+00 0. -1.
<mgrwt>
<rscale>  0 0.30262981E+04</rscale>
<asrwt>0</asrwt>
<pdfrwt beam="1">  1        2 0.19011562E+00 0.30262981E+04</pdfrwt>
<pdfrwt beam="2">  1       -2 0.28504860E+00 0.30262981E+04</pdfrwt>
<totfact> 0.60427357E-01</totfact>
</mgrwt>
</event>
<event>
 6    1  0.2647037E-005  0.4094182E+04  0.7818608E-02  0.7985812E-01
         -2   -1    0    0    0  501 -0.00000000000E+00  0.00000000000E+00  0.13871118948E+04  0.13871118948E+04  0.00000000000E+00 0.  1.
          2   -1    0    0  501    0  0.00000000000E+00 -0.00000000000E+00 -0.30210837665E+04  0.30210837665E+04  0.00000000000E+00 0. -1.
         23    2    1    2    0    0 -0.18983677632E+04  0.72574487965E+03 -0.56285275841E+03  0.21108489418E+04  0.91510834409E+02 0.  0.
         13    1    3    3    0    0 -0.51637057878E+03  0.18903774701E+03 -0.11112996562E+03  0.56100241861E+03  0.00000000000E+00 0. -1.
        -13    1    3    3    0    0 -0.13819971844E+04  0.53670713265E+03 -0.45172279279E+03  0.15498465232E+04  0.00000000000E+00 0.  1.
         22    1    1    2    0    0  0.18983677632E+04 -0.72574487965E+03 -0.10711191134E+04  0.22973467195E+04  0.00000000000E+00 0. -1.
<mgrwt>
<rscale>  0 0.40941818E+04</rscale>
<asrwt>0</asrwt>
<pdfrwt beam="1">  1        2 0.46478211E+00 0.40941818E+04</pdfrwt>
<pdfrwt beam="2">  1       -2 0.21340183E+00 0.40941818E+04</pdfrwt>
<totfact> 0.14387994E-01</totfact>
</mgrwt>
</event>
<event>
 6    1  0.1831439E-005  0.2542252E+04  0.7818608E-02  0.8388086E-01
          2   -1    0    0  501    0  0.00000000000E+00  0.00000000000E+00  0.15955707358E+04  0.15955707358E+04  0.00000000000E+00 0. -1.
         -2   -1    0    0    0  501 -0.00000000000E+00 -0.00000000000E+00 -0.10126543721E+04  0.10126543721E+04  0.00000000000E+00 0.  1.
         23    2    1    2    0    0  0.22248329295E+03 -0.26067428536E+03  0.15454894607E+04  0.15864634596E+04  0.10430118297E+03 0.  0.
         11    1    3    3    0    0  0.16363241283E+03 -0.24811034370E+03  0.13236056005E+04  0.13565640770E+04  0.00000000000E+00 0.  1.
        -11    1    3    3    0    0  0.58850880117E+02 -0.12563941658E+02  0.22188386020E+03  0.22989938264E+03  0.00000000000E+00 0. -1.
         22    1    1    2    0    0 -0.22248329295E+03  0.26067428536E+03 -0.96257309702E+03  0.10217616482E+04  0.00000000000E+00 0.  1.
<mgrwt>
<rscale>  0 0.25422523E+04</rscale>
<asrwt>0</asrwt>
<pdfrwt beam="1">  1        2 0.24547242E+00 0.25422523E+04</pdfrwt>
<pdfrwt beam="2">  1       -2 0.15579298E+00 0.25422523E+04</pdfrwt>
<totfact> 0.26996375E+00</totfact>
</mgrwt>
</event>
<event>
 6    1  0.1831439E-005  0.5522419E+04  0.7818608E-02  0.7752612E-01
          2   -1    0    0  501    0  0.00000000000E+00  0.00000000000E+00  0.40840629700E+04  0.40840629700E+04  0.00000000000E+00 0. -1.
         -2   -1    0    0    0  501 -0.00000000000E+00 -0.00000000000E+00 -0.18668365527E+04  0.18668365527E+04  0.00000000000E+00 0.  1.
         23    2    1    2    0    0  0.12502838382E+04 -0.20827088497E+04  0.25221238700E+04  0.35026658154E+04  0.81689473302E+02 0.  0.
         11    1    3    3    0    0  0.48840072783E+03 -0.87164483794E+03  0.10758995100E+04  0.14682846284E+04  0.00000000000E+00 0.  1.
        -11    1    3    3    0    0  0.76188311037E+03 -0.12110640118E+04  0.14462243600E+04  0.20343811870E+04  0.00000000000E+00 0. -1.
         22    1    1    2    0    0 -0.12502838382E+04  0.20827088497E+04 -0.30489745272E+03  0.24482337073E+04  0.00000000000E+00 0. -1.
<mgrwt>
<rscale>  0 0.55224190E+04</rscale>
<asrwt>0</asrwt>
<pdfrwt beam="1">  1        2 0.62831738E+00 0.55224190E+04</pdfrwt>
<pdfrwt beam="2">  1       -2 0.28720562E+00 0.55224190E+04</pdfrwt>
<totfact> 0.77126346E-03</totfact>
</mgrwt>
</event>
<event>
 6    1  0.1831439E-005  0.1746914E+04  0.7818608E-02  0.8735051E-01
         -1   -1    0    0    0  501 -0.00000000000E+00  0.00000000000E+00  0.83742956656E+03  0.83742956656E+03  0.00000000000E+00 0.  1.
          1   -1    0    0  501    0  0.00000000000E+00 -0.00000000000E+00 -0.91103394948E+03  0.91103394948E+03  0.00000000000E+00 0. -1.
         23    2    1    2    0    0  0.38960181941E+03 -0.77771474694E+03  0.12142650452E+02  0.87440267203E+03  0.88333366318E+02 0.  0.
         13    1    3    3    0    0  0.21206552094E+03 -0.43869822832E+03 -0.36515516492E+02  0.48863207390E+03  0.00000000000E+00 0. -1.
        -13    1    3    3    0    0  0.17753629847E+03 -0.33901651862E+03  0.48658166944E+02  0.38577059813E+03  0.00000000000E+00 0.  1.
         22    1    1    2    0    0 -0.38960181941E+03  0.77771474694E+03 -0.85747033381E+02  0.87406084401E+03  0.00000000000E+00 0. -1.
<mgrwt>
<rscale>  0 0.17469136E+04</rscale>
<asrwt>0</asrwt>
<pdfrwt beam="1">  1        1 0.14015907E+00 0.17469136E+04</pdfrwt>
<pdfrwt beam="2">  1       -1 0.12883532E+00 0.17469136E+04</pdfrwt>
<totfact> 0.87655392E+00</totfact>
</mgrwt>
</event>
<event>
 6    1  0.1831439E-005  0.2109171E+04  0.7818608E-02  0.8557214E-01
          2   -1    0    0  501    0  0.00000000000E+00  0.00000000000E+00  0.20687586832E+04  0.20687586832E+04  0.00000000000E+00 0. -1.
         -2   -1    0    0    0  501 -0.00000000000E+00 -0.00000000000E+00 -0.53759322555E+03  0.53759322555E+03  0.00000000000E+00 0.  1.
         23    2    1    2    0    0 -0.54994894625E+03  0.10530130372E+03 -0.33430142186E+03  0.65866125400E+03  0.92439162745E+02 0.  0.
         13    1    3    3    0    0 -0.35112972400E+03  0.78459463078E+02 -0.16357272109E+03  0.39522652430E+03  0.00000000000E+00 0.  1.
        -13    1    3    3    0    0 -0.19881922226E+03  0.26841840637E+02 -0.17072870076E+03  0.26343472970E+03  0.00000000000E+00 0. -1.
         22    1    1    2    0    0  0.54994894625E+03 -0.10530130372E+03  0.18654668795E+04  0.19476906547E+04  0.00000000000E+00 0. -1.
<mgrwt>
<rscale>  0 0.21091711E+04</rscale>
<asrwt>0</asrwt>
<pdfrwt beam="1">  1        2 0.31827056E+00 0.21091711E+04</pdfrwt>
<pdfrwt beam="2">  1       -2 0.82706651E-01 0.21091711E+04</pdfrwt>
<totfact> 0.72215816E+00</totfact>
</mgrwt>
</event>
<event>
 6    1  0.1831439E-005  0.3282596E+04  0.7818608E-02  0.8167338E-01
         -3   -1    0    0    0  501 -0.00000000000E+00  0.00000000000E+00  0.28684996187E+04  0.28684996187E+04  0.00000000000E+00 0.  1.
          3   -1    0    0  501    0  0.00000000000E+00 -0.00000000000E+00 -0.93911789551E+03  0.93911789551E+03  0.00000000000E+00 0. -1.
         23    2    1    2    0    0 -0.12267017464E+04 -0.28445057946E+02 -0.29682955552E+03  0.12656452576E+04  0.90243211360E+02 0.  0.
         13    1    3    3    0    0 -0.32270967411E+03 -0.28131201480E+02 -0.11356597289E+03  0.34326393411E+03  0.00000000000E+00 0. -1.
        -13    1    3    3    0    0 -0.90399207226E+03 -0.31385646624E+00 -0.18326358263E+03  0.92238132350E+03  0.00000000000E+00 0.  1.
         22    1    1    2    0    0  0.12267017464E+04  0.28445057946E+02  0.22262112788E+04  0.25419722566E+04  0.00000000000E+00 0.  1.
<mgrwt>
<rscale>  0 0.32825961E+04</rscale>
<asrwt>0</asrwt>
<pdfrwt beam="1">  1        3 0.14447968E+00 0.32825961E+04</pdfrwt>
<pdfrwt beam="2">  1       -3 0.44130763E+00 0.32825961E+04</pdfrwt>
<totfact> 0.48434665E-03</totfact>
</mgrwt>
</event>
<event>
 6    1  0.1831439E-005  0.9368448E+03  0.7818608E-02  0.9380661E-01
          2   -1    0    0  501    0  0.00000000000E+00  0.00000000000E+00  0.17865558233E+04  0.17865558233E+04  0.00000000000E+00 0. -1.
         -2   -1    0    0    0  501 -0.00000000000E+00 -0.00000000000E+00 -0.12281706246E+03  0.12281706246E+03  0.00000000000E+00 0.  1.
         23    2    1    2    0    0  0.33127063246E+01  0.36011073885E+03  0.14356936570E+04  0.14831155836E+04  0.93406847857E+02 0.  0.
         13    1    3    3    0    0 -0.20373483010E+02  0.33623221324E+03  0.13397482809E+04  0.13814458499E+04  0.00000000000E+00 0. -1.
        -13    1    3    3    0    0  0.23686189334E+02  0.23878525611E+02  0.95945376175E+02  0.10166973375E+03  0.00000000000E+00 0.  1.
         22    1    1    2    0    0 -0.33127063246E+01 -0.36011073885E+03  0.22804510378E+03  0.42625730212E+03  0.00000000000E+00 0.  1.
<mgrwt>
<rscale>  0 0.93684479E+03</rscale>
<asrwt>0</asrwt>
<pdfrwt beam="1">  1        2 0.27485472E+00 0.93684479E+03</pdfrwt>
<pdfrwt beam="2">  1       -2 0.18894934E-01 0.93684479E+03</pdfrwt>
<totfact> 0.20803467E+02</totfact>
</mgrwt>
</event>
<event>
 6    1  0.1831439E-005  0.4441298E+04  0.7818608E-02  0.7920995E-01
         -1   -1    0    0    0  501 -0.00000000000E+00  0.00000000000E+00  0.24802006280E+04  0.24802006280E+04  0.00000000000E+00 0.  1.
          1   -1    0    0  501    0  0.00000000000E+00 -0.00000000000E+00 -0.19882594264E+04  0.19882594264E+04  0.00000000000E+00 0. -1.
         23    2    1    2    0    0  0.16926411257E+04  0.12768134111E+04  0.90697207913E+03  0.23080116990E+04  0.95043059562E+02 0.  0.
         11    1    3    3    0    0  0.78391274320E+03  0.64304081664E+03  0.40791207069E+03  0.10928920067E+04  0.00000000000E+00 0.  1.
        -11    1    3    3    0    0  0.90872838250E+03  0.63377259446E+03  0.49906000845E+03  0.12151196923E+04  0.00000000000E+00 0. -1.
         22    1    1    2    0    0 -0.16926411257E+04 -0.12768134111E+04 -0.41503087746E+03  0.21604483554E+04  0.00000000000E+00 0.  1.
<mgrwt>
<rscale>  0 0.44412981E+04</rscale>
<asrwt>0</asrwt>
<pdfrwt beam="1">  1        1 0.30588607E+00 0.44412981E+04</pdfrwt>
<pdfrwt beam="2">  1       -1 0.38156933E+00 0.44412981E+04</pdfrwt>
<totfact> 0.21874858E-02</totfact>
</mgrwt>
</event>
<event>
 6    1  0.1831439E-005  0.2556403E+04  0.7818608E-02  0.8383163E-01
         -2   -1    0    0    0  501 -0.00000000000E+00  0.00000000000E+00  0.13304104861E+04  0.13304104861E+04  0.00000000000E+00 0.  1.
          2   -1    0    0  501    0  0.00000000000E+00 -0.00000000000E+00 -0.12280410217E+04  0.12280410217E+04  0.00000000000E+00 0. -1.
         23    2    1    2    0    0  0.10726503856E+04 -0.66009436348E+03 -0.15698302624E+03  0.12725404950E+04  0.91718167931E+02 0.  0.
         11    1    3    3    0    0  0.95233148150E+03 -0.61436436009E+03 -0.12717269399E+03  0.11404173410E+04  0.00000000000E+00 0.  1.
        -11    1    3    3    0    0  0.12031890413E+03 -0.45730003384E+02 -0.29810332251E+02  0.13212315395E+03  0.00000000000E+00 0. -1.
         22    1    1    2    0    0 -0.10726503856E+04  0.66009436348E+03  0.25935249057E+03  0.12859110128E+04  0.00000000000E+00 0.  1.
<mgrwt>
<rscale>  0 0.25564027E+04</rscale>
<asrwt>0</asrwt>
<pdfrwt beam="1">  1        2 0.18892939E+00 0.25564027E+04</pdfrwt>
<pdfrwt beam="2">  1       -2 0.20467854E+00 0.25564027E+04</pdfrwt>
<totfact> 0.20055232E+00</totfact>
</mgrwt>
</event>
<event>
 6    1  0.1831439E-005  0.2575468E+04  0.7818608E-02  0.8376582E-01
         -2   -1    0    0    0  501 -0.00000000000E+00  0.00000000000E+00  0.86332122751E+03  0.86332122751E+03  0.00000000000E+00 0.  1.
          2   -1    0    0  501    0  0.00000000000E+00 -0.00000000000E+00 -0.19207900043E+04  0.19207900043E+04  0.00000000000E+00 0. -1.
         23    2    1    2    0    0 -0.45895810522E+03 -0.53581048671E+03 -0.16918653605E+04  0.18353254577E+04  0.90970971300E+02 0.  0.
         13    1    3    3    0    0 -0.22698738684E+03 -0.26271133829E+03 -0.95008332767E+03  0.10115329211E+04  0.00000000000E+00 0. -1.
        -13    1    3    3    0    0 -0.23197071838E+03 -0.27309914841E+03 -0.74178203279E+03  0.82379253652E+03  0.00000000000E+00 0.  1.
         22    1    1    2    0    0  0.45895810522E+03  0.53581048671E+03  0.63439658361E+03  0.94878577419E+03  0.00000000000E+00 0.  1.
<mgrwt>
<rscale>  0 0.25754679E+04</rscale>
<asrwt>0</asrwt>
<pdfrwt beam="1">  1        2 0.29550615E+00 0.25754679E+04</pdfrwt>
<pdfrwt beam="2">  1       -2 0.13281865E+00 0.25754679E+04</pdfrwt>
<totfact> 0.26955782E+00</totfact>
</mgrwt>
</event>
<event>
 6    1  0.1831439E-005  0.2339861E+04  0.7818608E-02  0.8462368E-01
          2   -1    0    0  501    0  0.00000000000E+00  0.00000000000E+00  0.10345560869E+04  0.10345560869E+04  0.00000000000E+00 0. -1.
         -2   -1    0    0    0  501 -0.00000000000E+00 -0.00000000000E+00 -0.13230189595E+04  0.13230189595E+04  0.00000000000E+00 0.  1.
         23    2    1    2    0    0  0.82728996250E+02  0.94126292977E+03  0.54754424429E+03  0.10959380585E+04  0.91954004468E+02 0.  0.
         13    1    3    3    0    0  0.18152227164E+02  0.61738403526E+03  0.32766533744E+03  0.69918318323E+03  0.00000000000E+00 0. -1.
        -13    1    3    3    0    0  0.64576769086E+02  0.32387889451E+03  0.21987890685E+03  0.39675487532E+03  0.00000000000E+00 0.  1.
         22    1    1    2    0    0 -0.82728996250E+02 -0.94126292977E+03 -0.83600711688E+03  0.12616369879E+04  0.00000000000E+00 0.  1.
<mgrwt>
<rscale>  0 0.23398610E+04</rscale>
<asrwt>0</asrwt>
<pdfrwt beam="1">  1        2 0.15916248E+00 0.23398610E+04</pdfrwt>
<pdfrwt beam="2">  1       -2 0.20354138E+00 0.23398610E+04</pdfrwt>
<totfact> 0.27272639E+00</totfact>
</mgrwt>
</event>
<event>
 6    1  0.1831439E-005  0.7239896E+03  0.7818608E-02  0.9677064E-01
          2   -1    0    0  501    0  0.00000000000E+00  0.00000000000E+00  0.10785810391E+04  0.10785810391E+04  0.00000000000E+00 0.  1.
         -2   -1    0    0    0  501 -0.00000000000E+00 -0.00000000000E+00 -0.12149317555E+03  0.12149317555E+03  0.00000000000E+00 0. -1.
         23    2    1    2    0    0 -0.30279414497E+03 -0.72990507180E+02  0.77212814584E+03  0.83782843406E+03  0.93609310173E+02 0.  0.
         11    1    3    3    0    0 -0.15175103201E+03 -0.82282993109E+02  0.37422272718E+03  0.41211832792E+03  0.00000000000E+00 0. -1.
        -11    1    3    3    0    0 -0.15104311296E+03  0.92924859296E+01  0.39790541866E+03  0.42571010614E+03  0.00000000000E+00 0.  1.
         22    1    1    2    0    0  0.30279414497E+03  0.72990507180E+02  0.18495971766E+03  0.36224578055E+03  0.00000000000E+00 0. -1.
<mgrwt>
<rscale>  0 0.72398960E+03</rscale>
<asrwt>0</asrwt>
<pdfrwt beam="1">  1        2 0.16593554E+00 0.72398960E+03</pdfrwt>
<pdfrwt beam="2">  1       -2 0.18691259E-01 0.72398960E+03</pdfrwt>
<totfact> 0.54347428E+02</totfact>
</mgrwt>
</event>
<event>
 6    1  0.1831439E-005  0.7812603E+03  0.7818608E-02  0.9587545E-01
          1   -1    0    0  501    0  0.00000000000E+00  0.00000000000E+00  0.77072945527E+03  0.77072945527E+03  0.00000000000E+00 0. -1.
         -1   -1    0    0    0  501 -0.00000000000E+00 -0.00000000000E+00 -0.19798376020E+03  0.19798376020E+03  0.00000000000E+00 0.  1.
         23    2    1    2    0    0  0.38052647137E+03  0.33599474495E+02  0.22675498781E+03  0.45331153754E+03  0.90245251791E+02 0.  0.
         11    1    3    3    0    0  0.25802993535E+03 -0.10945781915E+02  0.11976594234E+03  0.28468076616E+03  0.00000000000E+00 0.  1.
        -11    1    3    3    0    0  0.12249653603E+03  0.44545256410E+02  0.10698904546E+03  0.16863077138E+03  0.00000000000E+00 0. -1.
         22    1    1    2    0    0 -0.38052647137E+03 -0.33599474495E+02  0.34599070726E+03  0.51540167793E+03  0.00000000000E+00 0.  1.
<mgrwt>
<rscale>  0 0.78126030E+03</rscale>
<asrwt>0</asrwt>
<pdfrwt beam="1">  1        1 0.11857376E+00 0.78126030E+03</pdfrwt>
<pdfrwt beam="2">  1       -1 0.30459040E-01 0.78126030E+03</pdfrwt>
<totfact> 0.23548855E+02</totfact>
</mgrwt>
</event>
<event>
 6    1  0.1831439E-005  0.2280085E+04  0.7818608E-02  0.8485815E-01
          1   -1    0    0  501    0  0.00000000000E+00  0.00000000000E+00  0.20580379408E+04  0.20580379408E+04  0.00000000000E+00 0.  1.
         -1   -1    0    0    0  501 -0.00000000000E+00 -0.00000000000E+00 -0.63152240909E+03  0.63152240909E+03  0.00000000000E+00 0. -1.
         23    2    1    2    0    0 -0.45684276505E+03 -0.10419892819E+04  0.75365540714E+03  0.13677480626E+04  0.91056655086E+02 0.  0.
         13    1    3    3    0    0 -0.20103412419E+03 -0.37619980330E+03  0.31721740541E+03  0.53157115553E+03  0.00000000000E+00 0. -1.
        -13    1    3    3    0    0 -0.25580864086E+03 -0.66578947861E+03  0.43643800173E+03  0.83617690707E+03  0.00000000000E+00 0.  1.
         22    1    1    2    0    0  0.45684276505E+03  0.10419892819E+04  0.67286012458E+03  0.13218122873E+04  0.00000000000E+00 0. -1.
<mgrwt>
<rscale>  0 0.22800852E+04</rscale>
<asrwt>0</asrwt>
<pdfrwt beam="1">  1        1 0.31662122E+00 0.22800852E+04</pdfrwt>
<pdfrwt beam="2">  1       -1 0.97157295E-01 0.22800852E+04</pdfrwt>
<totfact> 0.25075494E+00</totfact>
</mgrwt>
</event>
<event>
 6    1  0.1831439E-005  0.3755765E+04  0.7818608E-02  0.8055715E-01
         -2   -1    0    0    0  501 -0.00000000000E+00  0.00000000000E+00  0.13805337692E+04  0.13805337692E+04  0.00000000000E+00 0.  1.
          2   -1    0    0  501    0  0.00000000000E+00 -0.00000000000E+00 -0.25544051020E+04  0.25544051020E+04  0.00000000000E+00 0. -1.
         23    2    1    2    0    0 -0.14395520210E+03 -0.15008785983E+04 -0.17581176193E+04  0.23179344216E+04  0.92101859141E+02 0.  0.
         13    1    3    3    0    0 -0.48107399294E+02 -0.55646338165E+03 -0.71988099272E+03  0.91115007582E+03  0.00000000000E+00 0. -1.
        -13    1    3    3    0    0 -0.95847802807E+02 -0.94441521662E+03 -0.10382366266E+04  0.14067843458E+04  0.00000000000E+00 0.  1.
         22    1    1    2    0    0  0.14395520210E+03  0.15008785983E+04  0.58424628655E+03  0.16170044497E+04  0.00000000000E+00 0.  1.
<mgrwt>
<rscale>  0 0.37557649E+04</rscale>
<asrwt>0</asrwt>
<pdfrwt beam="1">  1        2 0.39298540E+00 0.37557649E+04</pdfrwt>
<pdfrwt beam="2">  1       -2 0.21238981E+00 0.37557649E+04</pdfrwt>
<totfact> 0.28782031E-01</totfact>
</mgrwt>
</event>
<event>
 6    1  0.1831439E-005  0.2183037E+04  0.7818608E-02  0.8525522E-01
         -2   -1    0    0    0  501 -0.00000000000E+00  0.00000000000E+00  0.18090229300E+04  0.18090229300E+04  0.00000000000E+00 0. -1.
          2   -1    0    0  501    0  0.00000000000E+00 -0.00000000000E+00 -0.65859458301E+03  0.65859458301E+03  0.00000000000E+00 0.  1.
         23    2    1    2    0    0 -0.25501369581E+03 -0.15214297718E+03  0.17612053662E+04  0.17884797966E+04  0.92930997167E+02 0.  0.
         13    1    3    3    0    0 -0.13699594243E+03 -0.92589065468E+02  0.12304285102E+04  0.12414890019E+04  0.00000000000E+00 0.  1.
        -13    1    3    3    0    0 -0.11801775338E+03 -0.59553911710E+02  0.53077685604E+03  0.54699079464E+03  0.00000000000E+00 0. -1.
         22    1    1    2    0    0  0.25501369581E+03  0.15214297718E+03 -0.61077701926E+03  0.67913771639E+03  0.00000000000E+00 0.  1.
<mgrwt>
<rscale>  0 0.21830371E+04</rscale>
<asrwt>0</asrwt>
<pdfrwt beam="1">  1        2 0.10132224E+00 0.21830371E+04</pdfrwt>
<pdfrwt beam="2">  1       -2 0.27831122E+00 0.21830371E+04</pdfrwt>
<totfact> 0.17463496E+00</totfact>
</mgrwt>
</event>
<event>
 6    1  0.1831439E-005  0.9367771E+03  0.7818608E-02  0.9380741E-01
          2   -1    0    0  501    0  0.00000000000E+00  0.00000000000E+00  0.73361184428E+03  0.73361184428E+03  0.00000000000E+00 0.  1.
         -2   -1    0    0    0  501 -0.00000000000E+00 -0.00000000000E+00 -0.29905166596E+03  0.29905166596E+03  0.00000000000E+00 0. -1.
         23    2    1    2    0    0 -0.15340268266E+03 -0.40163523314E+03  0.41138172587E+03  0.60210517017E+03  0.91937304832E+02 0.  0.
         11    1    3    3    0    0 -0.13095532721E+03 -0.39106737797E+03  0.40095152384E+03  0.57519137364E+03  0.00000000000E+00 0.  1.
        -11    1    3    3    0    0 -0.22447355446E+02 -0.10567855171E+02  0.10430202030E+02  0.26913796533E+02  0.00000000000E+00 0. -1.
         22    1    1    2    0    0  0.15340268266E+03  0.40163523314E+03  0.23178452448E+02  0.43055834007E+03  0.00000000000E+00 0.  1.
<mgrwt>
<rscale>  0 0.93677712E+03</rscale>
<asrwt>0</asrwt>
<pdfrwt beam="1">  1        2 0.11286336E+00 0.93677712E+03</pdfrwt>
<pdfrwt beam="2">  1       -2 0.46007949E-01 0.93677712E+03</pdfrwt>
<totfact> 0.17307568E+02</totfact>
</mgrwt>
</event>
<event>
 6    1  0.1831439E-005  0.2075002E+04  0.7818608E-02  0.8572336E-01
         -2   -1    0    0    0  501 -0.00000000000E+00  0.00000000000E+00  0.53142159179E+03  0.53142159179E+03  0.00000000000E+00 0.  1.
          2   -1    0    0  501    0  0.00000000000E+00 -0.00000000000E+00 -0.20255269210E+04  0.20255269210E+04  0.00000000000E+00 0. -1.
         23    2    1    2    0    0  0.16542279461E+03 -0.56595776408E+03  0.30039598300E+03  0.66805787244E+03  0.91600669353E+02 0.  0.
         11    1    3    3    0    0  0.14032628852E+03 -0.32316454591E+03  0.18797031192E+03  0.39932396515E+03  0.00000000000E+00 0. -1.
        -11    1    3    3    0    0  0.25096506095E+02 -0.24279321817E+03  0.11242567108E+03  0.26873390729E+03  0.00000000000E+00 0.  1.
         22    1    1    2    0    0 -0.16542279461E+03  0.56595776408E+03 -0.17945013122E+04  0.18888906404E+04  0.00000000000E+00 0. -1.
<mgrwt>
<rscale>  0 0.20750024E+04</rscale>
<asrwt>0</asrwt>
<pdfrwt beam="1">  1        2 0.31161952E+00 0.20750024E+04</pdfrwt>
<pdfrwt beam="2">  1       -2 0.81757169E-01 0.20750024E+04</pdfrwt>
<totfact> 0.78580038E+00</totfact>
</mgrwt>
</event>
<event>
 6    1  0.1831439E-005  0.1901181E+04  0.7818608E-02  0.8654269E-01
         -1   -1    0    0    0  501 -0.00000000000E+00  0.00000000000E+00  0.14428277359E+04  0.14428277359E+04  0.00000000000E+00 0.  1.
          1   -1    0    0  501    0  0.00000000000E+00 -0.00000000000E+00 -0.62628589952E+03  0.62628589952E+03  0.00000000000E+00 0. -1.
         23    2    1    2    0    0 -0.67510257194E+03  0.61968815771E+03  0.67500783545E+03  0.11418548965E+04  0.91761273232E+02 0.  0.
         11    1    3    3    0    0 -0.28380817758E+03  0.21917255319E+03  0.30459288213E+03  0.47048965300E+03  0.00000000000E+00 0.  1.
        -11    1    3    3    0    0 -0.39129439437E+03  0.40051560452E+03  0.37041495331E+03  0.67136524349E+03  0.00000000000E+00 0. -1.
         22    1    1    2    0    0  0.67510257194E+03 -0.61968815771E+03  0.14153400088E+03  0.92725873889E+03  0.00000000000E+00 0.  1.
<mgrwt>
<rscale>  0 0.19011814E+04</rscale>
<asrwt>0</asrwt>
<pdfrwt beam="1">  1        1 0.96351677E-01 0.19011814E+04</pdfrwt>
<pdfrwt beam="2">  1       -1 0.22197350E+00 0.19011814E+04</pdfrwt>
<totfact> 0.32126591E+00</totfact>
</mgrwt>
</event>
<event>
 6    1  0.1831439E-005  0.2030257E+04  0.7818608E-02  0.8592604E-01
          2   -1    0    0  501    0  0.00000000000E+00  0.00000000000E+00  0.21065463140E+04  0.21065463140E+04  0.00000000000E+00 0.  1.
         -2   -1    0    0    0  501 -0.00000000000E+00 -0.00000000000E+00 -0.48918274520E+03  0.48918274520E+03  0.00000000000E+00 0. -1.
         23    2    1    2    0    0  0.11616404609E+03  0.48162707645E+03  0.19401171898E+04  0.20044350323E+04  0.90809484343E+02 0.  0.
         11    1    3    3    0    0 -0.86072203131E+01  0.29909838696E+02  0.19600105177E+03  0.19845678367E+03  0.00000000000E+00 0.  1.
        -11    1    3    3    0    0  0.12477126641E+03  0.45171723775E+03  0.17441161380E+04  0.18059782487E+04  0.00000000000E+00 0. -1.
         22    1    1    2    0    0 -0.11616404609E+03 -0.48162707645E+03 -0.32275362096E+03  0.59129402688E+03  0.00000000000E+00 0. -1.
<mgrwt>
<rscale>  0 0.20302572E+04</rscale>
<asrwt>0</asrwt>
<pdfrwt beam="1">  1        2 0.32408404E+00 0.20302572E+04</pdfrwt>
<pdfrwt beam="2">  1       -2 0.75258885E-01 0.20302572E+04</pdfrwt>
<totfact> 0.85564660E+00</totfact>
</mgrwt>
</event>
<event>
 6    1  0.1831439E-005  0.1396294E+04  0.7818608E-02  0.8956506E-01
          2   -1    0    0  501    0  0.00000000000E+00  0.00000000000E+00  0.96943659605E+03  0.96943659605E+03  0.00000000000E+00 0. -1.
         -2   -1    0    0    0  501 -0.00000000000E+00 -0.00000000000E+00 -0.50277553796E+03  0.50277553796E+03  0.00000000000E+00 0.  1.
         23    2    1    2    0    0 -0.23580823037E+01 -0.20008252920E+03  0.93627503183E+03  0.96174581447E+03  0.91134501586E+02 0.  0.
         11    1    3    3    0    0 -0.43278422297E+02 -0.71776261382E+02  0.30810855959E+03  0.31930508613E+03  0.00000000000E+00 0. -1.
        -11    1    3    3    0    0  0.40920339993E+02 -0.12830626781E+03  0.62816647224E+03  0.64244072834E+03  0.00000000000E+00 0.  1.
         22    1    1    2    0    0  0.23580823037E+01  0.20008252920E+03 -0.46961397375E+03  0.51046631953E+03  0.00000000000E+00 0.  1.
<mgrwt>
<rscale>  0 0.13962937E+04</rscale>
<asrwt>0</asrwt>
<pdfrwt beam="1">  1        2 0.14914409E+00 0.13962937E+04</pdfrwt>
<pdfrwt beam="2">  1       -2 0.77350083E-01 0.13962937E+04</pdfrwt>
<totfact> 0.38274902E+01</totfact>
</mgrwt>
</event>
<event>
 6    1  0.1831439E-005  0.3265740E+04  0.7818608E-02  0.8171668E-01
         -2   -1    0    0    0  501 -0.00000000000E+00  0.00000000000E+00  0.56374190408E+03  0.56374190408E+03  0.00000000000E+00 0.  1.
          2   -1    0    0  501    0  0.00000000000E+00 -0.00000000000E+00 -0.47295830315E+04  0.47295830315E+04  0.00000000000E+00 0. -1.
         23    2    1    2    0    0  0.15678104564E+04  0.30488292141E+03 -0.26248787635E+04  0.30739673191E+04  0.91122625128E+02 0.  0.
         11    1    3    3    0    0  0.13208131159E+04  0.22550232035E+03 -0.21728917393E+04  0.25528135644E+04  0.00000000000E+00 0.  1.
        -11    1    3    3    0    0  0.24699734053E+03  0.79380601053E+02 -0.45198702412E+03  0.52115375468E+03  0.00000000000E+00 0. -1.
         22    1    1    2    0    0 -0.15678104564E+04 -0.30488292141E+03 -0.15409623640E+04  0.22193576165E+04  0.00000000000E+00 0.  1.
<mgrwt>
<rscale>  0 0.32657398E+04</rscale>
<asrwt>0</asrwt>
<pdfrwt beam="1">  1        2 0.72762815E+00 0.32657398E+04</pdfrwt>
<pdfrwt beam="2">  1       -2 0.86729525E-01 0.32657398E+04</pdfrwt>
<totfact> 0.68428042E-02</totfact>
</mgrwt>
</event>
<event>
 6    1  0.1831439E-005  0.2697120E+04  0.7818608E-02  0.8335940E-01
         -1   -1    0    0    0  501 -0.00000000000E+00  0.00000000000E+00  0.10171758102E+04  0.10171758102E+04  0.00000000000E+00 0.  1.
          1   -1    0    0  501    0  0.00000000000E+00 -0.00000000000E+00 -0.17879059668E+04  0.17879059668E+04  0.00000000000E+00 0. -1.
         23    2    1    2    0    0  0.39289502827E+03 -0.10749948461E+03  0.94951884796E+03  0.10372641166E+04  0.91696033339E+02 0.  0.
         11    1    3    3    0    0  0.16553377150E+03 -0.87248843270E+02  0.48050791870E+03  0.51565652337E+03  0.00000000000E+00 0.  1.
        -11    1    3    3    0    0  0.22736125677E+03 -0.20250641337E+02  0.46901092926E+03  0.52160759323E+03  0.00000000000E+00 0. -1.
         22    1    1    2    0    0 -0.39289502827E+03  0.10749948461E+03 -0.17202490046E+04  0.17678176604E+04  0.00000000000E+00 0. -1.
<mgrwt>
<rscale>  0 0.26971205E+04</rscale>
<asrwt>0</asrwt>
<pdfrwt beam="1">  1        1 0.27506246E+00 0.26971205E+04</pdfrwt>
<pdfrwt beam="2">  1       -1 0.15648859E+00 0.26971205E+04</pdfrwt>
<totfact> 0.11270989E+00</totfact>
</mgrwt>
</event>
<event>
 6    1  0.1831439E-005  0.1958544E+04  0.7818608E-02  0.8626252E-01
          1   -1    0    0  501    0  0.00000000000E+00  0.00000000000E+00  0.75761920868E+03  0.75761920868E+03  0.00000000000E+00 0. -1.
         -1   -1    0    0    0  501 -0.00000000000E+00 -0.00000000000E+00 -0.12657729487E+04  0.12657729487E+04  0.00000000000E+00 0.  1.
         23    2    1    2    0    0  0.17366088657E+03  0.62463348737E+03  0.50063063436E+03  0.82423786744E+03  0.91716590643E+02 0.  0.
         11    1    3    3    0    0  0.19220016547E+02  0.14846343173E+03  0.76424547070E+02  0.16808185801E+03  0.00000000000E+00 0. -1.
        -11    1    3    3    0    0  0.15444087002E+03  0.47617005564E+03  0.42420608729E+03  0.65615600943E+03  0.00000000000E+00 0.  1.
         22    1    1    2    0    0 -0.17366088657E+03 -0.62463348737E+03 -0.10087843744E+04  0.11991542899E+04  0.00000000000E+00 0.  1.
<mgrwt>
<rscale>  0 0.19585443E+04</rscale>
<asrwt>0</asrwt>
<pdfrwt beam="1">  1        1 0.11655680E+00 0.19585443E+04</pdfrwt>
<pdfrwt beam="2">  1       -1 0.19473430E+00 0.19585443E+04</pdfrwt>
<totfact> 0.36738438E+00</totfact>
</mgrwt>
</event>
<event>
 6    1  0.1831439E-005  0.2162962E+04  0.7818608E-02  0.8534004E-01
          2   -1    0    0  501    0  0.00000000000E+00  0.00000000000E+00  0.28860924434E+04  0.28860924434E+04  0.00000000000E+00 0.  1.
         -2   -1    0    0    0  501 -0.00000000000E+00 -0.00000000000E+00 -0.40525411760E+03  0.40525411760E+03  0.00000000000E+00 0. -1.
         23    2    1    2    0    0 -0.96447857166E+03  0.46157303711E+03  0.10161326915E+04  0.14778882133E+04  0.91429428985E+02 0.  0.
         11    1    3    3    0    0 -0.68414889831E+03  0.28078635893E+03  0.69416511457E+03  0.10142809772E+04  0.00000000000E+00 0. -1.
        -11    1    3    3    0    0 -0.28032967334E+03  0.18078667818E+03  0.32196757694E+03  0.46360723610E+03  0.00000000000E+00 0.  1.
         22    1    1    2    0    0  0.96447857166E+03 -0.46157303711E+03  0.14647056343E+04  0.18134583477E+04  0.00000000000E+00 0.  1.
<mgrwt>
<rscale>  0 0.21629617E+04</rscale>
<asrwt>0</asrwt>
<pdfrwt beam="1">  1        2 0.44401421E+00 0.21629617E+04</pdfrwt>
<pdfrwt beam="2">  1       -2 0.62346789E-01 0.21629617E+04</pdfrwt>
<totfact> 0.44891387E+00</totfact>
</mgrwt>
</event>
<event>
 6    1  0.1831439E-005  0.6957019E+03  0.7818608E-02  0.9724611E-01
          2   -1    0    0  501    0  0.00000000000E+00  0.00000000000E+00  0.11211752457E+04  0.11211752457E+04  0.00000000000E+00 0. -1.
         -2   -1    0    0    0  501 -0.00000000000E+00 -0.00000000000E+00 -0.10792273390E+03  0.10792273390E+03  0.00000000000E+00 0.  1.
         23    2    1    2    0    0 -0.13579568720E+03  0.23336143375E+03  0.14439024616E+03  0.31925202336E+03  0.90417276039E+02 0.  0.
         11    1    3    3    0    0 -0.33027563349E+02  0.11127122531E+03  0.21994163888E+02  0.11813487532E+03  0.00000000000E+00 0.  1.
        -11    1    3    3    0    0 -0.10276812385E+03  0.12209020845E+03  0.12239608228E+03  0.20111714804E+03  0.00000000000E+00 0. -1.
         22    1    1    2    0    0  0.13579568720E+03 -0.23336143375E+03  0.86886226559E+03  0.90984595619E+03  0.00000000000E+00 0.  1.
<mgrwt>
<rscale>  0 0.69570194E+03</rscale>
<asrwt>0</asrwt>
<pdfrwt beam="1">  1        2 0.17248849E+00 0.69570194E+03</pdfrwt>
<pdfrwt beam="2">  1       -2 0.16603498E-01 0.69570194E+03</pdfrwt>
<totfact> 0.62830661E+02</totfact>
</mgrwt>
</event>
<event>
 6    1  0.1831439E-005  0.2777909E+04  0.7818608E-02  0.8310160E-01
         -2   -1    0    0    0  501 -0.00000000000E+00  0.00000000000E+00  0.89794683023E+03  0.89794683023E+03  0.00000000000E+00 0. -1.
          2   -1    0    0  501    0  0.00000000000E+00 -0.00000000000E+00 -0.21484502051E+04  0.21484502051E+04  0.00000000000E+00 0.  1.
         23    2    1    2    0    0  0.77001695394E+03 -0.50183334292E+03  0.51330980589E+03  0.10574777936E+04  0.10004755744E+03 0.  0.
         13    1    3    3    0    0  0.14813048781E+03 -0.93117954987E+02  0.14453213306E+03  0.22694301586E+03  0.00000000000E+00 0.  1.
        -13    1    3    3    0    0  0.62188646613E+03 -0.40871538794E+03  0.36877767283E+03  0.83053477776E+03  0.00000000000E+00 0. -1.
         22    1    1    2    0    0 -0.77001695394E+03  0.50183334292E+03 -0.17638131808E+04  0.19889192417E+04  0.00000000000E+00 0.  1.
<mgrwt>
<rscale>  0 0.27779086E+04</rscale>
<asrwt>0</asrwt>
<pdfrwt beam="1">  1        2 0.33053080E+00 0.27779086E+04</pdfrwt>
<pdfrwt beam="2">  1       -2 0.13814567E+00 0.27779086E+04</pdfrwt>
<totfact> 0.17890954E+00</totfact>
</mgrwt>
</event>
<event>
 6    1  0.1831439E-005  0.1790514E+04  0.7818608E-02  0.8711360E-01
         -1   -1    0    0    0  501 -0.00000000000E+00  0.00000000000E+00  0.11036420951E+04  0.11036420951E+04  0.00000000000E+00 0.  1.
          1   -1    0    0  501    0  0.00000000000E+00 -0.00000000000E+00 -0.72621840725E+03  0.72621840725E+03  0.00000000000E+00 0. -1.
         23    2    1    2    0    0  0.33709876275E+01 -0.50530172227E+03  0.94155247905E+03  0.10725082149E+04  0.91714809299E+02 0.  0.
         11    1    3    3    0    0 -0.25831017585E+02 -0.43161844631E+03  0.75964555785E+03  0.87408414825E+03  0.00000000000E+00 0. -1.
        -11    1    3    3    0    0  0.29202005213E+02 -0.73683275958E+02  0.18190692120E+03  0.19842406670E+03  0.00000000000E+00 0.  1.
         22    1    1    2    0    0 -0.33709876275E+01  0.50530172227E+03 -0.56412879123E+03  0.75735228737E+03  0.00000000000E+00 0. -1.
<mgrwt>
<rscale>  0 0.17905141E+04</rscale>
<asrwt>0</asrwt>
<pdfrwt beam="1">  1        1 0.11172591E+00 0.17905141E+04</pdfrwt>
<pdfrwt beam="2">  1       -1 0.16979109E+00 0.17905141E+04</pdfrwt>
<totfact> 0.60046751E+00</totfact>
</mgrwt>
</event>
<event>
 6    1  0.1831439E-005  0.2544288E+04  0.7818608E-02  0.8387375E-01
         -1   -1    0    0    0  501 -0.00000000000E+00  0.00000000000E+00  0.22157884796E+04  0.22157884796E+04  0.00000000000E+00 0.  1.
          1   -1    0    0  501    0  0.00000000000E+00 -0.00000000000E+00 -0.73037223508E+03  0.73037223508E+03  0.00000000000E+00 0. -1.
         23    2    1    2    0    0 -0.22462973744E+03  0.11703905504E+04  0.12536047844E+04  0.17320729451E+04  0.90989957477E+02 0.  0.
         11    1    3    3    0    0 -0.10991378985E+03  0.63717972551E+03  0.74300705529E+03  0.98495610461E+03  0.00000000000E+00 0.  1.
        -11    1    3    3    0    0 -0.11471594758E+03  0.53321082485E+03  0.51059772909E+03  0.74711684048E+03  0.00000000000E+00 0. -1.
         22    1    1    2    0    0  0.22462973744E+03 -0.11703905504E+04  0.23181146019E+03  0.12140877696E+04  0.00000000000E+00 0. -1.
<mgrwt>
<rscale>  0 0.25442880E+04</rscale>
<asrwt>0</asrwt>
<pdfrwt beam="1">  1        1 0.11236496E+00 0.25442880E+04</pdfrwt>
<pdfrwt beam="2">  1       -1 0.34089053E+00 0.25442880E+04</pdfrwt>
<totfact> 0.40330703E-01</totfact>
</mgrwt>
</event>
<event>
 6    1  0.1831439E-005  0.1504153E+04  0.7818608E-02  0.8881696E-01
          2   -1    0    0  501    0  0.00000000000E+00  0.00000000000E+00  0.28274998856E+04  0.28274998856E+04  0.00000000000E+00 0. -1.
         -2   -1    0    0    0  501 -0.00000000000E+00 -0.00000000000E+00 -0.20004224112E+03  0.20004224112E+03  0.00000000000E+00 0.  1.
         23    2    1    2    0    0  0.74730454681E+03 -0.41413538017E+02  0.13912756140E+04  0.15824382622E+04  0.91015672679E+02 0.  0.
         13    1    3    3    0    0  0.28427724966E+03 -0.20823837284E+02  0.62437311553E+03  0.68635921664E+03  0.00000000000E+00 0. -1.
        -13    1    3    3    0    0  0.46302729716E+03 -0.20589700733E+02  0.76690249845E+03  0.89607904552E+03  0.00000000000E+00 0.  1.
         22    1    1    2    0    0 -0.74730454681E+03  0.41413538017E+02  0.12361820305E+04  0.14451038645E+04  0.00000000000E+00 0. -1.
<mgrwt>
<rscale>  0 0.15041535E+04</rscale>
<asrwt>0</asrwt>
<pdfrwt beam="1">  1        2 0.43499995E+00 0.15041535E+04</pdfrwt>
<pdfrwt beam="2">  1       -2 0.30775731E-01 0.15041535E+04</pdfrwt>
<totfact> 0.21126993E+01</totfact>
</mgrwt>
</event>
<event>
 6    1  0.1831439E-005  0.1416930E+04  0.7818608E-02  0.8941654E-01
         -1   -1    0    0    0  501 -0.00000000000E+00  0.00000000000E+00  0.21285500294E+03  0.21285500294E+03  0.00000000000E+00 0.  1.
          1   -1    0    0  501    0  0.00000000000E+00 -0.00000000000E+00 -0.23580505389E+04  0.23580505389E+04  0.00000000000E+00 0. -1.
         23    2    1    2    0    0  0.51693524100E+03 -0.37640177180E+03 -0.16178187899E+04  0.17420348828E+04  0.91910600999E+02 0.  0.
         11    1    3    3    0    0  0.42637885686E+03 -0.34651052440E+03 -0.13380466563E+04  0.14464568184E+04  0.00000000000E+00 0. -1.
        -11    1    3    3    0    0  0.90556384145E+02 -0.29891247394E+02 -0.27977213363E+03  0.29557806437E+03  0.00000000000E+00 0.  1.
         22    1    1    2    0    0 -0.51693524100E+03  0.37640177180E+03 -0.52737674604E+03  0.82887065907E+03  0.00000000000E+00 0. -1.
<mgrwt>
<rscale>  0 0.14169303E+04</rscale>
<asrwt>0</asrwt>
<pdfrwt beam="1">  1        1 0.36277703E+00 0.14169303E+04</pdfrwt>
<pdfrwt beam="2">  1       -1 0.32746922E-01 0.14169303E+04</pdfrwt>
<totfact> 0.14486012E+01</totfact>
</mgrwt>
</event>
<event>
 6    1  0.1831439E-005  0.1943337E+04  0.7818608E-02  0.8633580E-01
         -2   -1    0    0    0  501 -0.00000000000E+00  0.00000000000E+00  0.37905604875E+03  0.37905604875E+03  0.00000000000E+00 0.  1.
          2   -1    0    0  501    0  0.00000000000E+00 -0.00000000000E+00 -0.24907653214E+04  0.24907653214E+04  0.00000000000E+00 0. -1.
         23    2    1    2    0    0  0.21480548692E+03  0.81502737888E+03 -0.35003968666E+03  0.91690284760E+03  0.88159084453E+02 0.  0.
         11    1    3    3    0    0  0.11428747480E+03  0.36076523289E+03 -0.11419531641E+03  0.39528945148E+03  0.00000000000E+00 0. -1.
        -11    1    3    3    0    0  0.10051801211E+03  0.45426214598E+03 -0.23584437025E+03  0.52161339612E+03  0.00000000000E+00 0.  1.
         22    1    1    2    0    0 -0.21480548692E+03 -0.81502737888E+03 -0.17616695860E+04  0.19529185226E+04  0.00000000000E+00 0. -1.
<mgrwt>
<rscale>  0 0.19433370E+04</rscale>
<asrwt>0</asrwt>
<pdfrwt beam="1">  1        2 0.38319466E+00 0.19433370E+04</pdfrwt>
<pdfrwt beam="2">  1       -2 0.58316316E-01 0.19433370E+04</pdfrwt>
<totfact> 0.90527757E+00</totfact>
</mgrwt>
</event>
<event>
 6    1  0.1831439E-005  0.4207148E+03  0.7818608E-02  0.1036834E+00
         -1   -1    0    0    0  501 -0.00000000000E+00  0.00000000000E+00  0.19095433441E+03  0.19095433441E+03  0.00000000000E+00 0.  1.
          1   -1    0    0  501    0  0.00000000000E+00 -0.00000000000E+00 -0.23173198616E+03  0.23173198616E+03  0.00000000000E+00 0. -1.
         23    2    1    2    0    0  0.17300609038E+03 -0.53547380075E+02 -0.10734315883E+03  0.22973711493E+03  0.91968249994E+02 0.  0.
         13    1    3    3    0    0  0.11834868124E+03  0.33987722053E+01 -0.37096332756E+02  0.12407296204E+03  0.00000000000E+00 0. -1.
        -13    1    3    3    0    0  0.54657409137E+02 -0.56946152281E+02 -0.70246826076E+02  0.10566415289E+03  0.00000000000E+00 0.  1.
         22    1    1    2    0    0 -0.17300609038E+03  0.53547380075E+02  0.66565507080E+02  0.19294920563E+03  0.00000000000E+00 0.  1.
<mgrwt>
<rscale>  0 0.42071476E+03</rscale>
<asrwt>0</asrwt>
<pdfrwt beam="1">  1        1 0.35651075E-01 0.42071476E+03</pdfrwt>
<pdfrwt beam="2">  1       -1 0.29377590E-01 0.42071476E+03</pdfrwt>
<totfact> 0.12944666E+03</totfact>
</mgrwt>
</event>
<event>
 6    1  0.1831439E-005  0.2701679E+04  0.7818608E-02  0.8334460E-01
          1   -1    0    0  501    0  0.00000000000E+00  0.00000000000E+00  0.18883344736E+04  0.18883344736E+04  0.00000000000E+00 0. -1.
         -1   -1    0    0    0  501 -0.00000000000E+00 -0.00000000000E+00 -0.96633725887E+03  0.96633725887E+03  0.00000000000E+00 0.  1.
         23    2    1    2    0    0 -0.86107088287E+03 -0.93648068408E+03 -0.13536082331E+02  0.12755385250E+04  0.91521398157E+02 0.  0.
         11    1    3    3    0    0 -0.86566854134E+02 -0.13809663404E+03  0.48551124935E+01  0.16305849468E+03  0.00000000000E+00 0. -1.
        -11    1    3    3    0    0 -0.77450402873E+03 -0.79838405004E+03 -0.18391194825E+02  0.11124800304E+04  0.00000000000E+00 0.  1.
         22    1    1    2    0    0  0.86107088287E+03  0.93648068408E+03  0.93553329709E+03  0.15791332075E+04  0.00000000000E+00 0.  1.
<mgrwt>
<rscale>  0 0.27016794E+04</rscale>
<asrwt>0</asrwt>
<pdfrwt beam="1">  1        1 0.29051299E+00 0.27016794E+04</pdfrwt>
<pdfrwt beam="2">  1       -1 0.14866727E+00 0.27016794E+04</pdfrwt>
<totfact> 0.11070209E+00</totfact>
</mgrwt>
</event>
<event>
 6    1  0.1831439E-005  0.3505459E+04  0.7818608E-02  0.8112497E-01
          1   -1    0    0  501    0  0.00000000000E+00  0.00000000000E+00  0.20457719294E+04  0.20457719294E+04  0.00000000000E+00 0. -1.
         -1   -1    0    0    0  501 -0.00000000000E+00 -0.00000000000E+00 -0.15016634805E+04  0.15016634805E+04  0.00000000000E+00 0.  1.
         23    2    1    2    0    0  0.97524296246E+03  0.31896044788E+03 -0.11642696809E+04  0.15546006356E+04  0.91785855285E+02 0.  0.
         13    1    3    3    0    0  0.42059351669E+03  0.17773878279E+03 -0.55441481542E+03  0.71823796108E+03  0.00000000000E+00 0.  1.
        -13    1    3    3    0    0  0.55464944578E+03  0.14122166509E+03 -0.60985486552E+03  0.83636267456E+03  0.00000000000E+00 0. -1.
         22    1    1    2    0    0 -0.97524296246E+03 -0.31896044788E+03  0.17083781299E+04  0.19928347743E+04  0.00000000000E+00 0. -1.
<mgrwt>
<rscale>  0 0.35054592E+04</rscale>
<asrwt>0</asrwt>
<pdfrwt beam="1">  1        1 0.31473414E+00 0.35054592E+04</pdfrwt>
<pdfrwt beam="2">  1       -1 0.23102515E+00 0.35054592E+04</pdfrwt>
<totfact> 0.21023775E-01</totfact>
</mgrwt>
</event>
<event>
 6    1  0.1831439E-005  0.2588533E+04  0.7818608E-02  0.8372107E-01
         -1   -1    0    0    0  501 -0.00000000000E+00  0.00000000000E+00  0.15354810162E+04  0.15354810162E+04  0.00000000000E+00 0.  1.
          1   -1    0    0  501    0  0.00000000000E+00 -0.00000000000E+00 -0.10909456118E+04  0.10909456118E+04  0.00000000000E+00 0. -1.
         23    2    1    2    0    0 -0.36057812174E+03 -0.50050707339E+03  0.13751567890E+04  0.15099231243E+04  0.91036994972E+02 0.  0.
         13    1    3    3    0    0 -0.74306202206E+02 -0.17417576602E+03  0.42906574497E+03  0.46899469363E+03  0.00000000000E+00 0. -1.
        -13    1    3    3    0    0 -0.28627191953E+03 -0.32633130737E+03  0.94609104404E+03  0.10409284306E+04  0.00000000000E+00 0.  1.
         22    1    1    2    0    0  0.36057812174E+03  0.50050707339E+03 -0.93062138461E+03  0.11165035037E+04  0.00000000000E+00 0. -1.
<mgrwt>
<rscale>  0 0.25885334E+04</rscale>
<asrwt>0</asrwt>
<pdfrwt beam="1">  1        1 0.16783779E+00 0.25885334E+04</pdfrwt>
<pdfrwt beam="2">  1       -1 0.23622785E+00 0.25885334E+04</pdfrwt>
<totfact> 0.97477612E-01</totfact>
</mgrwt>
</event>
<event>
 6    1  0.1831439E-005  0.1434593E+04  0.7818608E-02  0.8929152E-01
          1   -1    0    0  501    0  0.00000000000E+00  0.00000000000E+00  0.16444175099E+04  0.16444175099E+04  0.00000000000E+00 0. -1.
         -1   -1    0    0    0  501 -0.00000000000E+00 -0.00000000000E+00 -0.31288521724E+03  0.31288521724E+03  0.00000000000E+00 0.  1.
         23    2    1    2    0    0 -0.99081018871E+02  0.37404432079E+03 -0.15105999937E+03  0.42504749168E+03  0.90111289862E+02 0.  0.
         13    1    3    3    0    0 -0.45393480946E+02  0.29340796383E+03 -0.88809162415E+02  0.30989654512E+03  0.00000000000E+00 0. -1.
        -13    1    3    3    0    0 -0.53687537924E+02  0.80636356967E+02 -0.62250836952E+02  0.11515094656E+03  0.00000000000E+00 0.  1.
         22    1    1    2    0    0  0.99081018871E+02 -0.37404432079E+03  0.14825922920E+04  0.15322552354E+04  0.00000000000E+00 0. -1.
<mgrwt>
<rscale>  0 0.14345925E+04</rscale>
<asrwt>0</asrwt>
<pdfrwt beam="1">  1        1 0.25298730E+00 0.14345925E+04</pdfrwt>
<pdfrwt beam="2">  1       -1 0.48136188E-01 0.14345925E+04</pdfrwt>
<totfact> 0.21824716E+01</totfact>
</mgrwt>
</event>
<event>
 6    1  0.1831439E-005  0.1804868E+04  0.7818608E-02  0.8703715E-01
         -2   -1    0    0    0  501 -0.00000000000E+00  0.00000000000E+00  0.12212827767E+04  0.12212827767E+04  0.00000000000E+00 0.  1.
          2   -1    0    0  501    0  0.00000000000E+00 -0.00000000000E+00 -0.66682901783E+03  0.66682901783E+03  0.00000000000E+00 0. -1.
         23    2    1    2    0    0  0.37303721693E+03 -0.14985257343E+03  0.11204217384E+04  0.11938983456E+04  0.91846768091E+02 0.  0.
         13    1    3    3    0    0  0.22445022152E+03 -0.44368541722E+02  0.67128619041E+03  0.70920492022E+03  0.00000000000E+00 0. -1.
        -13    1    3    3    0    0  0.14858699540E+03 -0.10548403171E+03  0.44913554797E+03  0.48469342537E+03  0.00000000000E+00 0.  1.
         22    1    1    2    0    0 -0.37303721693E+03  0.14985257343E+03 -0.56596797946E+03  0.69421344898E+03  0.00000000000E+00 0. -1.
<mgrwt>
<rscale>  0 0.18048676E+04</rscale>
<asrwt>0</asrwt>
<pdfrwt beam="1">  1        2 0.10258908E+00 0.18048676E+04</pdfrwt>
<pdfrwt beam="2">  1       -2 0.18788966E+00 0.18048676E+04</pdfrwt>
<totfact> 0.65778048E+00</totfact>
</mgrwt>
</event>
<event>
 6    1  0.1831439E-005  0.2481585E+04  0.7818608E-02  0.8409576E-01
          1   -1    0    0  501    0  0.00000000000E+00  0.00000000000E+00  0.12861046213E+04  0.12861046213E+04  0.00000000000E+00 0. -1.
         -1   -1    0    0    0  501 -0.00000000000E+00 -0.00000000000E+00 -0.11970766426E+04  0.11970766426E+04  0.00000000000E+00 0.  1.
         23    2    1    2    0    0 -0.32906636773E+03 -0.45098417984E+03 -0.10612910656E+04  0.12045471065E+04  0.11368201757E+03 0.  0.
         13    1    3    3    0    0 -0.24958134424E+03 -0.34099576448E+03 -0.68864254779E+03  0.80795885874E+03  0.00000000000E+00 0. -1.
        -13    1    3    3    0    0 -0.79485023497E+02 -0.10998841536E+03 -0.37264851778E+03  0.39658824778E+03  0.00000000000E+00 0.  1.
         22    1    1    2    0    0  0.32906636773E+03  0.45098417984E+03  0.11503190442E+04  0.12786341574E+04  0.00000000000E+00 0. -1.
<mgrwt>
<rscale>  0 0.24815848E+04</rscale>
<asrwt>0</asrwt>
<pdfrwt beam="1">  1        1 0.19786225E+00 0.24815848E+04</pdfrwt>
<pdfrwt beam="2">  1       -1 0.18416564E+00 0.24815848E+04</pdfrwt>
<totfact> 0.16003541E+00</totfact>
</mgrwt>
</event>
<event>
 6    1  0.1831439E-005  0.2080407E+04  0.7818608E-02  0.8569924E-01
          3   -1    0    0  501    0  0.00000000000E+00  0.00000000000E+00  0.13064058836E+04  0.13064058836E+04  0.00000000000E+00 0. -1.
         -3   -1    0    0    0  501 -0.00000000000E+00 -0.00000000000E+00 -0.82824429776E+03  0.82824429776E+03  0.00000000000E+00 0.  1.
         23    2    1    2    0    0 -0.86863839564E+03  0.48909411287E+03 -0.57413239016E+02  0.10030203361E+04  0.94909435658E+02 0.  0.
         11    1    3    3    0    0 -0.70966247504E+03  0.40911715709E+03 -0.82552592789E+02  0.82329375516E+03  0.00000000000E+00 0.  1.
        -11    1    3    3    0    0 -0.15897592060E+03  0.79976955781E+02  0.25139353774E+02  0.17972658094E+03  0.00000000000E+00 0. -1.
         22    1    1    2    0    0  0.86863839564E+03 -0.48909411287E+03  0.53557482481E+03  0.11316298452E+04  0.00000000000E+00 0. -1.
<mgrwt>
<rscale>  0 0.20804069E+04</rscale>
<asrwt>0</asrwt>
<pdfrwt beam="1">  1        3 0.20098552E+00 0.20804069E+04</pdfrwt>
<pdfrwt beam="2">  1       -3 0.12742220E+00 0.20804069E+04</pdfrwt>
<totfact> 0.17072382E-01</totfact>
</mgrwt>
</event>
<event>
 6    1  0.1831439E-005  0.2559425E+04  0.7818608E-02  0.8382116E-01
          2   -1    0    0  501    0  0.00000000000E+00  0.00000000000E+00  0.37552000317E+04  0.37552000317E+04  0.00000000000E+00 0.  1.
         -2   -1    0    0    0  501 -0.00000000000E+00 -0.00000000000E+00 -0.43610553116E+03  0.43610553116E+03  0.00000000000E+00 0. -1.
         23    2    1    2    0    0 -0.87237071454E+03 -0.31022562436E+03  0.21867430164E+03  0.95558678470E+03  0.89761079015E+02 0.  0.
         13    1    3    3    0    0 -0.34737377640E+03 -0.93191183038E+02  0.11890595936E+03  0.37880306796E+03  0.00000000000E+00 0. -1.
        -13    1    3    3    0    0 -0.52499693814E+03 -0.21703444132E+03  0.99768342279E+02  0.57678371675E+03  0.00000000000E+00 0.  1.
         22    1    1    2    0    0  0.87237071454E+03  0.31022562436E+03  0.31004201989E+04  0.32357187781E+04  0.00000000000E+00 0.  1.
<mgrwt>
<rscale>  0 0.25594245E+04</rscale>
<asrwt>0</asrwt>
<pdfrwt beam="1">  1        2 0.57772306E+00 0.25594245E+04</pdfrwt>
<pdfrwt beam="2">  1       -2 0.67093161E-01 0.25594245E+04</pdfrwt>
<totfact> 0.96243417E-01</totfact>
</mgrwt>
</event>
<event>
 6    1  0.1831439E-005  0.1144676E+04  0.7818608E-02  0.9162709E-01
          2   -1    0    0  501    0  0.00000000000E+00  0.00000000000E+00  0.13395098085E+04  0.13395098085E+04  0.00000000000E+00 0. -1.
         -2   -1    0    0    0  501 -0.00000000000E+00 -0.00000000000E+00 -0.24454527566E+03  0.24454527566E+03  0.00000000000E+00 0.  1.
         23    2    1    2    0    0 -0.21168446890E+03  0.37300240062E+02 -0.17750242587E+03  0.29356146414E+03  0.92030428409E+02 0.  0.
         13    1    3    3    0    0 -0.63336057510E+02  0.47615820683E+02 -0.94262332160E+02  0.12314264016E+03  0.00000000000E+00 0. -1.
        -13    1    3    3    0    0 -0.14834841139E+03 -0.10315580621E+02 -0.83240093711E+02  0.17041882398E+03  0.00000000000E+00 0.  1.
         22    1    1    2    0    0  0.21168446890E+03 -0.37300240062E+02  0.12724669587E+04  0.12904936200E+04  0.00000000000E+00 0. -1.
<mgrwt>
<rscale>  0 0.11446760E+04</rscale>
<asrwt>0</asrwt>
<pdfrwt beam="1">  1        2 0.20607843E+00 0.11446760E+04</pdfrwt>
<pdfrwt beam="2">  1       -2 0.37622351E-01 0.11446760E+04</pdfrwt>
<totfact> 0.10339748E+02</totfact>
</mgrwt>
</event>
<event>
 6    1  0.1831439E-005  0.3209364E+03  0.7818608E-02  0.1075219E+00
         -2   -1    0    0    0  501 -0.00000000000E+00  0.00000000000E+00  0.48091612153E+02  0.48091612153E+02  0.00000000000E+00 0.  1.
          2   -1    0    0  501    0  0.00000000000E+00 -0.00000000000E+00 -0.53543739490E+03  0.53543739490E+03  0.00000000000E+00 0. -1.
         23    2    1    2    0    0  0.93667052332E+02  0.53766876431E+02 -0.80543319428E+02  0.16263396330E+03  0.91094379740E+02 0.  0.
         13    1    3    3    0    0  0.84505513707E+02  0.41901154052E+02 -0.10039784131E+03  0.13775563545E+03  0.00000000000E+00 0.  1.
        -13    1    3    3    0    0  0.91615386251E+01  0.11865722378E+02  0.19854521882E+02  0.24878327852E+02  0.00000000000E+00 0. -1.
         22    1    1    2    0    0 -0.93667052332E+02 -0.53766876431E+02 -0.40680246332E+03  0.42089504375E+03  0.00000000000E+00 0. -1.
<mgrwt>
<rscale>  0 0.32093643E+03</rscale>
<asrwt>0</asrwt>
<pdfrwt beam="1">  1        2 0.82374983E-01 0.32093643E+03</pdfrwt>
<pdfrwt beam="2">  1       -2 0.73987097E-02 0.32093643E+03</pdfrwt>
<totfact> 0.61622987E+03</totfact>
</mgrwt>
</event>
<event>
 6    1  0.1831439E-005  0.2398506E+04  0.7818608E-02  0.8440063E-01
          2   -1    0    0  501    0  0.00000000000E+00  0.00000000000E+00  0.86136425282E+03  0.86136425282E+03  0.00000000000E+00 0. -1.
         -2   -1    0    0    0  501 -0.00000000000E+00 -0.00000000000E+00 -0.16696856618E+04  0.16696856618E+04  0.00000000000E+00 0.  1.
         23    2    1    2    0    0  0.26921193823E+03  0.84854123670E+03  0.44058714511E+03  0.99733877018E+03  0.89834803969E+02 0.  0.
         13    1    3    3    0    0  0.19763563349E+03  0.69822446506E+03  0.32791005809E+03  0.79630537699E+03  0.00000000000E+00 0. -1.
        -13    1    3    3    0    0  0.71576304749E+02  0.15031677164E+03  0.11267708702E+03  0.20103339319E+03  0.00000000000E+00 0.  1.
         22    1    1    2    0    0 -0.26921193823E+03 -0.84854123670E+03 -0.12489085540E+04  0.15337111444E+04  0.00000000000E+00 0.  1.
<mgrwt>
<rscale>  0 0.23985058E+04</rscale>
<asrwt>0</asrwt>
<pdfrwt beam="1">  1        2 0.13251758E+00 0.23985058E+04</pdfrwt>
<pdfrwt beam="2">  1       -2 0.25687472E+00 0.23985058E+04</pdfrwt>
<totfact> 0.16340783E+00</totfact>
</mgrwt>
</event>
<event>
 6    1  0.1831439E-005  0.2189694E+04  0.7818608E-02  0.8522730E-01
         -2   -1    0    0    0  501 -0.00000000000E+00  0.00000000000E+00  0.48996842406E+03  0.48996842406E+03  0.00000000000E+00 0.  1.
          2   -1    0    0  501    0  0.00000000000E+00 -0.00000000000E+00 -0.24464643843E+04  0.24464643843E+04  0.00000000000E+00 0. -1.
         23    2    1    2    0    0  0.17522488174E+03 -0.62266225461E+03 -0.21613203453E+04  0.22579307293E+04  0.92376948409E+02 0.  0.
         11    1    3    3    0    0  0.38490994954E+02 -0.27401514029E+03 -0.10110777388E+04  0.10482576247E+04  0.00000000000E+00 0. -1.
        -11    1    3    3    0    0  0.13673388679E+03 -0.34864711432E+03 -0.11502426065E+04  0.12096731046E+04  0.00000000000E+00 0.  1.
         22    1    1    2    0    0 -0.17522488174E+03  0.62266225461E+03  0.20482438514E+03  0.67850207903E+03  0.00000000000E+00 0.  1.
<mgrwt>
<rscale>  0 0.21896943E+04</rscale>
<asrwt>0</asrwt>
<pdfrwt beam="1">  1        2 0.37637914E+00 0.21896943E+04</pdfrwt>
<pdfrwt beam="2">  1       -2 0.75379757E-01 0.21896943E+04</pdfrwt>
<totfact> 0.54002532E+00</totfact>
</mgrwt>
</event>
<event>
 6    1  0.1831439E-005  0.4830457E+04  0.7818608E-02  0.7855207E-01
          2   -1    0    0  501    0  0.00000000000E+00  0.00000000000E+00  0.41626086758E+04  0.41626086758E+04  0.00000000000E+00 0.  1.
         -2   -1    0    0    0  501 -0.00000000000E+00 -0.00000000000E+00 -0.14013638719E+04  0.14013638719E+04  0.00000000000E+00 0. -1.
         23    2    1    2    0    0  0.15293615405E+04 -0.17446831010E+04  0.21502039315E+04  0.31647566774E+04  0.97170137684E+02 0.  0.
         11    1    3    3    0    0  0.67062951480E+03 -0.82033270112E+03  0.93815262813E+03  0.14152102460E+04  0.00000000000E+00 0.  1.
        -11    1    3    3    0    0  0.85873202568E+03 -0.92435039987E+03  0.12120513034E+04  0.17495464314E+04  0.00000000000E+00 0. -1.
         22    1    1    2    0    0 -0.15293615405E+04  0.17446831010E+04  0.61104087238E+03  0.23992158703E+04  0.00000000000E+00 0. -1.
<mgrwt>
<rscale>  0 0.48304573E+04</rscale>
<asrwt>0</asrwt>
<pdfrwt beam="1">  1        2 0.64040133E+00 0.48304573E+04</pdfrwt>
<pdfrwt beam="2">  1       -2 0.21559444E+00 0.48304573E+04</pdfrwt>
<totfact> 0.19370542E-02</totfact>
</mgrwt>
</event>
<event>
 6    1  0.1831439E-005  0.2217181E+04  0.7818608E-02  0.8511311E-01
         -2   -1    0    0    0  501 -0.00000000000E+00  0.00000000000E+00  0.29511346545E+03  0.29511346545E+03  0.00000000000E+00 0.  1.
          2   -1    0    0  501    0  0.00000000000E+00 -0.00000000000E+00 -0.41644066971E+04  0.41644066971E+04  0.00000000000E+00 0. -1.
         23    2    1    2    0    0 -0.71765460432E+03  0.77028877607E+03 -0.12514760104E+04  0.16379355132E+04  0.90926405001E+02 0.  0.
         13    1    3    3    0    0 -0.41691329177E+03  0.39392050358E+03 -0.72156000550E+03  0.92175858962E+03  0.00000000000E+00 0. -1.
        -13    1    3    3    0    0 -0.30074131255E+03  0.37636827248E+03 -0.52991600487E+03  0.71617692355E+03  0.00000000000E+00 0.  1.
         22    1    1    2    0    0  0.71765460432E+03 -0.77028877607E+03 -0.26178172213E+04  0.28215846494E+04  0.00000000000E+00 0. -1.
<mgrwt>
<rscale>  0 0.22171806E+04</rscale>
<asrwt>0</asrwt>
<pdfrwt beam="1">  1        2 0.64067798E+00 0.22171806E+04</pdfrwt>
<pdfrwt beam="2">  1       -2 0.45402070E-01 0.22171806E+04</pdfrwt>
<totfact> 0.10566350E+00</totfact>
</mgrwt>
</event>
<event>
 6    1  0.1831439E-005  0.3410901E+04  0.7818608E-02  0.8135236E-01
          2   -1    0    0  501    0  0.00000000000E+00  0.00000000000E+00  0.16508250400E+04  0.16508250400E+04  0.00000000000E+00 0. -1.
         -2   -1    0    0    0  501 -0.00000000000E+00 -0.00000000000E+00 -0.17618833360E+04  0.17618833360E+04  0.00000000000E+00 0.  1.
         23    2    1    2    0    0  0.14886392209E+04 -0.69737462529E+03  0.39436942360E+03  0.16928725473E+04  0.88950104718E+02 0.  0.
         11    1    3    3    0    0  0.86386189294E+02 -0.49651703090E+02  0.41667312922E+01  0.99725758809E+02  0.00000000000E+00 0. -1.
        -11    1    3    3    0    0  0.14022530316E+04 -0.64772292220E+03  0.39020269231E+03  0.15931467885E+04  0.00000000000E+00 0.  1.
         22    1    1    2    0    0 -0.14886392209E+04  0.69737462529E+03 -0.50542771958E+03  0.17198358287E+04  0.00000000000E+00 0.  1.
<mgrwt>
<rscale>  0 0.34109008E+04</rscale>
<asrwt>0</asrwt>
<pdfrwt beam="1">  1        2 0.25397308E+00 0.34109008E+04</pdfrwt>
<pdfrwt beam="2">  1       -2 0.27105897E+00 0.34109008E+04</pdfrwt>
<totfact> 0.41284890E-01</totfact>
</mgrwt>
</event>
<event>
 6    1  0.1831439E-005  0.1579942E+04  0.7818608E-02  0.8832966E-01
          1   -1    0    0  501    0  0.00000000000E+00  0.00000000000E+00  0.17470093257E+04  0.17470093257E+04  0.00000000000E+00 0. -1.
         -1   -1    0    0    0  501 -0.00000000000E+00 -0.00000000000E+00 -0.35721305059E+03  0.35721305059E+03  0.00000000000E+00 0.  1.
         23    2    1    2    0    0 -0.31647387321E+02  0.53337740915E+03  0.14673872352E+04  0.15643025908E+04  0.91237491789E+02 0.  0.
         11    1    3    3    0    0  0.13781327315E+02  0.36738925543E+03  0.93000084515E+03  0.10000331804E+04  0.00000000000E+00 0.  1.
        -11    1    3    3    0    0 -0.45428714637E+02  0.16598815371E+03  0.53738639004E+03  0.56426941038E+03  0.00000000000E+00 0. -1.
         22    1    1    2    0    0  0.31647387321E+02 -0.53337740915E+03 -0.77590960037E+02  0.53991978551E+03  0.00000000000E+00 0.  1.
<mgrwt>
<rscale>  0 0.15799424E+04</rscale>
<asrwt>0</asrwt>
<pdfrwt beam="1">  1        1 0.26877066E+00 0.15799424E+04</pdfrwt>
<pdfrwt beam="2">  1       -1 0.54955855E-01 0.15799424E+04</pdfrwt>
<totfact> 0.14238291E+01</totfact>
</mgrwt>
</event>
<event>
 6    1  0.1831439E-005  0.1148689E+04  0.7818608E-02  0.9158994E-01
         -2   -1    0    0    0  501 -0.00000000000E+00  0.00000000000E+00  0.36196305489E+03  0.36196305489E+03  0.00000000000E+00 0.  1.
          2   -1    0    0  501    0  0.00000000000E+00 -0.00000000000E+00 -0.91134052454E+03  0.91134052454E+03  0.00000000000E+00 0. -1.
         23    2    1    2    0    0 -0.39937029011E+03 -0.29126412006E+03  0.39581818445E+02  0.50440536816E+03  0.92339800893E+02 0.  0.
         13    1    3    3    0    0 -0.28271649800E+03 -0.15245931558E+03  0.16506021122E+02  0.32162852778E+03  0.00000000000E+00 0. -1.
        -13    1    3    3    0    0 -0.11665379211E+03 -0.13880480448E+03  0.23075797323E+02  0.18277684038E+03  0.00000000000E+00 0.  1.
         22    1    1    2    0    0  0.39937029011E+03  0.29126412006E+03 -0.58895928809E+03  0.76889821126E+03  0.00000000000E+00 0. -1.
<mgrwt>
<rscale>  0 0.11486890E+04</rscale>
<asrwt>0</asrwt>
<pdfrwt beam="1">  1        2 0.14020623E+00 0.11486890E+04</pdfrwt>
<pdfrwt beam="2">  1       -2 0.55686624E-01 0.11486890E+04</pdfrwt>
<totfact> 0.86410823E+01</totfact>
</mgrwt>
</event>
<event>
 6    1  0.1831439E-005  0.3363012E+04  0.7818608E-02  0.8147045E-01
          1   -1    0    0  501    0  0.00000000000E+00  0.00000000000E+00  0.16503293322E+04  0.16503293322E+04  0.00000000000E+00 0. -1.
         -1   -1    0    0    0  501 -0.00000000000E+00 -0.00000000000E+00 -0.17132715531E+04  0.17132715531E+04  0.00000000000E+00 0.  1.
         23    2    1    2    0    0 -0.15769488487E+04  0.55634257820E+03 -0.19580753648E+03  0.16861212498E+04  0.91539838212E+02 0.  0.
         11    1    3    3    0    0 -0.76778198392E+03  0.22239549746E+03 -0.94348513812E+02  0.80489165369E+03  0.00000000000E+00 0.  1.
        -11    1    3    3    0    0 -0.80916686475E+03  0.33394708074E+03 -0.10145902267E+03  0.88122959609E+03  0.00000000000E+00 0. -1.
         22    1    1    2    0    0  0.15769488487E+04 -0.55634257820E+03  0.13286531551E+03  0.16774796355E+04  0.00000000000E+00 0.  1.
<mgrwt>
<rscale>  0 0.33630119E+04</rscale>
<asrwt>0</asrwt>
<pdfrwt beam="1">  1        1 0.25389682E+00 0.33630119E+04</pdfrwt>
<pdfrwt beam="2">  1       -1 0.26358024E+00 0.33630119E+04</pdfrwt>
<totfact> 0.24188135E-01</totfact>
</mgrwt>
</event>
<event>
 6    1  0.1831439E-005  0.1104983E+04  0.7818608E-02  0.9200349E-01
         -1   -1    0    0    0  501 -0.00000000000E+00  0.00000000000E+00  0.85725656819E+03  0.85725656819E+03  0.00000000000E+00 0.  1.
          1   -1    0    0  501    0  0.00000000000E+00 -0.00000000000E+00 -0.35607407671E+03  0.35607407671E+03  0.00000000000E+00 0. -1.
         23    2    1    2    0    0 -0.50189107141E+03 -0.81476969416E+02  0.47797102514E+03  0.70433956809E+03  0.95418982370E+02 0.  0.
         11    1    3    3    0    0 -0.14879938097E+03  0.12856554620E+02  0.17109796374E+03  0.22711464059E+03  0.00000000000E+00 0. -1.
        -11    1    3    3    0    0 -0.35309169044E+03 -0.94333524036E+02  0.30687306139E+03  0.47722492749E+03  0.00000000000E+00 0.  1.
         22    1    1    2    0    0  0.50189107141E+03  0.81476969416E+02  0.23211466341E+02  0.50899107682E+03  0.00000000000E+00 0. -1.
<mgrwt>
<rscale>  0 0.11049830E+04</rscale>
<asrwt>0</asrwt>
<pdfrwt beam="1">  1        1 0.54780628E-01 0.11049830E+04</pdfrwt>
<pdfrwt beam="2">  1       -1 0.13188562E+00 0.11049830E+04</pdfrwt>
<totfact> 0.34109336E+01</totfact>
</mgrwt>
</event>
<event>
 6    1  0.1831439E-005  0.1990076E+04  0.7818608E-02  0.8611275E-01
          1   -1    0    0  501    0  0.00000000000E+00  0.00000000000E+00  0.11202105272E+04  0.11202105272E+04  0.00000000000E+00 0. -1.
         -1   -1    0    0    0  501 -0.00000000000E+00 -0.00000000000E+00 -0.88385213586E+03  0.88385213586E+03  0.00000000000E+00 0.  1.
         23    2    1    2    0    0  0.56700246890E+03  0.77577075700E+02 -0.69891984328E+03  0.90758859653E+03  0.87852779244E+02 0.  0.
         11    1    3    3    0    0  0.39822564412E+03  0.18607630179E+02 -0.45115271923E+03  0.60205372153E+03  0.00000000000E+00 0. -1.
        -11    1    3    3    0    0  0.16877682478E+03  0.58969445522E+02 -0.24776712404E+03  0.30553487501E+03  0.00000000000E+00 0.  1.
         22    1    1    2    0    0 -0.56700246890E+03 -0.77577075700E+02  0.93527823464E+03  0.10964740665E+04  0.00000000000E+00 0. -1.
<mgrwt>
<rscale>  0 0.19900758E+04</rscale>
<asrwt>0</asrwt>
<pdfrwt beam="1">  1        1 0.17234008E+00 0.19900758E+04</pdfrwt>
<pdfrwt beam="2">  1       -1 0.13597725E+00 0.19900758E+04</pdfrwt>
<totfact> 0.51403372E+00</totfact>
</mgrwt>
</event>
<event>
 6    1  0.1831439E-005  0.1661401E+04  0.7818608E-02  0.8783690E-01
          2   -1    0    0  501    0  0.00000000000E+00  0.00000000000E+00  0.14951836636E+04  0.14951836636E+04  0.00000000000E+00 0.  1.
         -2   -1    0    0    0  501 -0.00000000000E+00 -0.00000000000E+00 -0.46152397979E+03  0.46152397979E+03  0.00000000000E+00 0. -1.
         23    2    1    2    0    0  0.45823519088E+03 -0.33473841380E+03  0.12290368895E+04  0.13565397099E+04  0.87401447133E+02 0.  0.
         13    1    3    3    0    0  0.29276502559E+03 -0.26397715353E+03  0.84361778866E+03  0.93117467273E+03  0.00000000000E+00 0. -1.
        -13    1    3    3    0    0  0.16547016529E+03 -0.70761260273E+02  0.38541910088E+03  0.42536503721E+03  0.00000000000E+00 0.  1.
         22    1    1    2    0    0 -0.45823519088E+03  0.33473841380E+03 -0.19537720573E+03  0.60016793346E+03  0.00000000000E+00 0. -1.
<mgrwt>
<rscale>  0 0.16614008E+04</rscale>
<asrwt>0</asrwt>
<pdfrwt beam="1">  1        2 0.23002825E+00 0.16614008E+04</pdfrwt>
<pdfrwt beam="2">  1       -2 0.71003690E-01 0.16614008E+04</pdfrwt>
<totfact> 0.21965783E+01</totfact>
</mgrwt>
</event>
<event>
 6    1  0.1831439E-005  0.5701580E+04  0.7818608E-02  0.7728545E-01
         -2   -1    0    0    0  501 -0.00000000000E+00  0.00000000000E+00  0.22395883981E+04  0.22395883981E+04  0.00000000000E+00 0.  1.
          2   -1    0    0  501    0  0.00000000000E+00 -0.00000000000E+00 -0.36287933620E+04  0.36287933620E+04  0.00000000000E+00 0. -1.
         23    2    1    2    0    0 -0.19426286749E+04 -0.15062186806E+04  0.78992059357E+03  0.25834024486E+04  0.86560873335E+02 0.  0.
         11    1    3    3    0    0 -0.50569414647E+03 -0.40531788907E+03  0.16993373008E+03  0.66999002500E+03  0.00000000000E+00 0.  1.
        -11    1    3    3    0    0 -0.14369345284E+04 -0.11009007915E+04  0.61998686349E+03  0.19134124236E+04  0.00000000000E+00 0. -1.
         22    1    1    2    0    0  0.19426286749E+04  0.15062186806E+04 -0.21791255575E+04  0.32849793116E+04  0.00000000000E+00 0.  1.
<mgrwt>
<rscale>  0 0.57015800E+04</rscale>
<asrwt>0</asrwt>
<pdfrwt beam="1">  1        2 0.55827590E+00 0.57015800E+04</pdfrwt>
<pdfrwt beam="2">  1       -2 0.34455206E+00 0.57015800E+04</pdfrwt>
<totfact> 0.76119800E-03</totfact>
</mgrwt>
</event>
<event>
 6    1  0.1831439E-005  0.3925112E+04  0.7818608E-02  0.8019826E-01
          2   -1    0    0  501    0  0.00000000000E+00  0.00000000000E+00  0.15708839285E+04  0.15708839285E+04  0.00000000000E+00 0. -1.
         -2   -1    0    0    0  501 -0.00000000000E+00 -0.00000000000E+00 -0.24518850751E+04  0.24518850751E+04  0.00000000000E+00 0.  1.
         23    2    1    2    0    0  0.19064107530E+04  0.21938150010E+03 -0.24556013319E+02  0.19213341443E+04  0.91606191978E+02 0.  0.
         13    1    3    3    0    0  0.50829235021E+03  0.99361342910E+02 -0.83252679306E+01  0.51797982570E+03  0.00000000000E+00 0. -1.
        -13    1    3    3    0    0  0.13981184028E+04  0.12002015719E+03 -0.16230745389E+02  0.14033543186E+04  0.00000000000E+00 0.  1.
         22    1    1    2    0    0 -0.19064107530E+04 -0.21938150010E+03 -0.85644513333E+03  0.21014348594E+04  0.00000000000E+00 0.  1.
<mgrwt>
<rscale>  0 0.39251124E+04</rscale>
<asrwt>0</asrwt>
<pdfrwt beam="1">  1        2 0.24167445E+00 0.39251124E+04</pdfrwt>
<pdfrwt beam="2">  1       -2 0.37721309E+00 0.39251124E+04</pdfrwt>
<totfact> 0.95852574E-02</totfact>
</mgrwt>
</event>
<event>
 6    1  0.1831439E-005  0.1406530E+04  0.7818608E-02  0.8949105E-01
         -2   -1    0    0    0  501 -0.00000000000E+00  0.00000000000E+00  0.47909480747E+03  0.47909480747E+03  0.00000000000E+00 0.  1.
          2   -1    0    0  501    0  0.00000000000E+00 -0.00000000000E+00 -0.10323259460E+04  0.10323259460E+04  0.00000000000E+00 0. -1.
         23    2    1    2    0    0  0.58130215046E+03 -0.29682068260E+03 -0.55067018903E+03  0.85871770747E+03  0.90242652225E+02 0.  0.
         13    1    3    3    0    0  0.12371286145E+03 -0.74961847558E+02 -0.77542404966E+02  0.16412487698E+03  0.00000000000E+00 0. -1.
        -13    1    3    3    0    0  0.45758928902E+03 -0.22185883504E+03 -0.47312778406E+03  0.69459283048E+03  0.00000000000E+00 0.  1.
         22    1    1    2    0    0 -0.58130215046E+03  0.29682068260E+03 -0.25609494606E+01  0.65270304597E+03  0.00000000000E+00 0.  1.
<mgrwt>
<rscale>  0 0.14065305E+04</rscale>
<asrwt>0</asrwt>
<pdfrwt beam="1">  1        2 0.15881937E+00 0.14065305E+04</pdfrwt>
<pdfrwt beam="2">  1       -2 0.73706894E-01 0.14065305E+04</pdfrwt>
<totfact> 0.38785898E+01</totfact>
</mgrwt>
</event>
<event>
 6    1  0.1831439E-005  0.2904212E+04  0.7818608E-02  0.8271625E-01
          1   -1    0    0  501    0  0.00000000000E+00  0.00000000000E+00  0.18758462970E+04  0.18758462970E+04  0.00000000000E+00 0. -1.
         -1   -1    0    0    0  501 -0.00000000000E+00 -0.00000000000E+00 -0.11240859886E+04  0.11240859886E+04  0.00000000000E+00 0.  1.
         23    2    1    2    0    0 -0.35663476015E+03 -0.14049973808E+04  0.31664132803E+03  0.14864810907E+04  0.90323364805E+02 0.  0.
         11    1    3    3    0    0 -0.94531795475E+02 -0.53299924166E+03  0.13713702846E+03  0.55841831680E+03  0.00000000000E+00 0.  1.
        -11    1    3    3    0    0 -0.26210296468E+03 -0.87199813917E+03  0.17950429957E+03  0.92806277394E+03  0.00000000000E+00 0. -1.
         22    1    1    2    0    0  0.35663476015E+03  0.14049973808E+04  0.43511898037E+03  0.15134511949E+04  0.00000000000E+00 0. -1.
<mgrwt>
<rscale>  0 0.29042125E+04</rscale>
<asrwt>0</asrwt>
<pdfrwt beam="1">  1        1 0.28859174E+00 0.29042125E+04</pdfrwt>
<pdfrwt beam="2">  1       -1 0.17293631E+00 0.29042125E+04</pdfrwt>
<totfact> 0.72699126E-01</totfact>
</mgrwt>
</event>
<event>
 6    1  0.1831439E-005  0.4936492E+04  0.7818608E-02  0.7838379E-01
         -2   -1    0    0    0  501 -0.00000000000E+00  0.00000000000E+00  0.16956398226E+04  0.16956398226E+04  0.00000000000E+00 0. -1.
          2   -1    0    0  501    0  0.00000000000E+00 -0.00000000000E+00 -0.35928840958E+04  0.35928840958E+04  0.00000000000E+00 0.  1.
         23    2    1    2    0    0 -0.20795214020E+04  0.15262775179E+03  0.46436546482E+03  0.21381421882E+04  0.91171486822E+02 0.  0.
         13    1    3    3    0    0 -0.77123886523E+03  0.97231741770E+02  0.15521893538E+03  0.79268929395E+03  0.00000000000E+00 0. -1.
        -13    1    3    3    0    0 -0.13082825368E+04  0.55396010019E+02  0.30914652945E+03  0.13454528942E+04  0.00000000000E+00 0.  1.
         22    1    1    2    0    0  0.20795214020E+04 -0.15262775179E+03 -0.23616097380E+04  0.31503817303E+04  0.00000000000E+00 0.  1.
<mgrwt>
<rscale>  0 0.49364916E+04</rscale>
<asrwt>0</asrwt>
<pdfrwt beam="1">  1        2 0.55275140E+00 0.49364916E+04</pdfrwt>
<pdfrwt beam="2">  1       -2 0.26086767E+00 0.49364916E+04</pdfrwt>
<totfact> 0.28105037E-02</totfact>
</mgrwt>
</event>
<event>
 6    1  0.1831439E-005  0.2021705E+04  0.7818608E-02  0.8596540E-01
         -2   -1    0    0    0  501 -0.00000000000E+00  0.00000000000E+00  0.66817137048E+03  0.66817137048E+03  0.00000000000E+00 0.  1.
          2   -1    0    0  501    0  0.00000000000E+00 -0.00000000000E+00 -0.15292826456E+04  0.15292826456E+04  0.00000000000E+00 0. -1.
         23    2    1    2    0    0  0.63164328828E+03  0.46946911533E+03  0.25442755286E+03  0.83224290763E+03  0.92305924866E+02 0.  0.
         11    1    3    3    0    0  0.51532842331E+03  0.42140063434E+03  0.19965486502E+03  0.69498485136E+03  0.00000000000E+00 0. -1.
        -11    1    3    3    0    0  0.11631486497E+03  0.48068480993E+02  0.54772687840E+02  0.13725805627E+03  0.00000000000E+00 0.  1.
         22    1    1    2    0    0 -0.63164328828E+03 -0.46946911533E+03 -0.11155388280E+04  0.13652111084E+04  0.00000000000E+00 0. -1.
<mgrwt>
<rscale>  0 0.20217051E+04</rscale>
<asrwt>0</asrwt>
<pdfrwt beam="1">  1        2 0.23527425E+00 0.20217051E+04</pdfrwt>
<pdfrwt beam="2">  1       -2 0.10279560E+00 0.20217051E+04</pdfrwt>
<totfact> 0.87664862E+00</totfact>
</mgrwt>
</event>
<event>
 6    1  0.1831439E-005  0.2528694E+04  0.7818608E-02  0.8392834E-01
         -2   -1    0    0    0  501 -0.00000000000E+00  0.00000000000E+00  0.84173626246E+03  0.84173626246E+03  0.00000000000E+00 0. -1.
          2   -1    0    0  501    0  0.00000000000E+00 -0.00000000000E+00 -0.18991374361E+04  0.18991374361E+04  0.00000000000E+00 0.  1.
         23    2    1    2    0    0  0.11372295554E+04  0.54840372146E+03 -0.50761975996E+03  0.13638125866E+04  0.90935401956E+02 0.  0.
         13    1    3    3    0    0  0.23229803879E+03  0.13374242502E+03 -0.74152053854E+02  0.27811498013E+03  0.00000000000E+00 0. -1.
        -13    1    3    3    0    0  0.90493151658E+03  0.41466129644E+03 -0.43346770611E+03  0.10856976065E+04  0.00000000000E+00 0.  1.
         22    1    1    2    0    0 -0.11372295554E+04 -0.54840372146E+03 -0.54978141371E+03  0.13770611120E+04  0.00000000000E+00 0. -1.
<mgrwt>
<rscale>  0 0.25286936E+04</rscale>
<asrwt>0</asrwt>
<pdfrwt beam="1">  1        2 0.29217499E+00 0.25286936E+04</pdfrwt>
<pdfrwt beam="2">  1       -2 0.12949789E+00 0.25286936E+04</pdfrwt>
<totfact> 0.29667307E+00</totfact>
</mgrwt>
</event>
<event>
 6    1  0.1831439E-005  0.4735719E+04  0.7818608E-02  0.7870621E-01
          2   -1    0    0  501    0  0.00000000000E+00  0.00000000000E+00  0.41749170431E+04  0.41749170431E+04  0.00000000000E+00 0. -1.
         -2   -1    0    0    0  501 -0.00000000000E+00 -0.00000000000E+00 -0.13429626124E+04  0.13429626124E+04  0.00000000000E+00 0.  1.
         23    2    1    2    0    0  0.27108078513E+01 -0.10279016192E+04  0.39008024900E+04  0.40349685788E+04  0.90123686326E+02 0.  0.
         13    1    3    3    0    0  0.34405884524E+01 -0.28781940765E+03  0.94078740516E+03  0.98383575396E+03  0.00000000000E+00 0. -1.
        -13    1    3    3    0    0 -0.72978060117E+00 -0.74008221155E+03  0.29600150849E+04  0.30511328249E+04  0.00000000000E+00 0.  1.
         22    1    1    2    0    0 -0.27108078513E+01  0.10279016192E+04 -0.10688480594E+04  0.14829110767E+04  0.00000000000E+00 0.  1.
<mgrwt>
<rscale>  0 0.47357185E+04</rscale>
<asrwt>0</asrwt>
<pdfrwt beam="1">  1        2 0.64229492E+00 0.47357185E+04</pdfrwt>
<pdfrwt beam="2">  1       -2 0.20660963E+00 0.47357185E+04</pdfrwt>
<totfact> 0.21758216E-02</totfact>
</mgrwt>
</event>
<event>
 6    1  0.1831439E-005  0.2773852E+04  0.7818608E-02  0.8311433E-01
          1   -1    0    0  501    0  0.00000000000E+00  0.00000000000E+00  0.87557880156E+03  0.87557880156E+03  0.00000000000E+00 0. -1.
         -1   -1    0    0    0  501 -0.00000000000E+00 -0.00000000000E+00 -0.21969046412E+04  0.21969046412E+04  0.00000000000E+00 0.  1.
         23    2    1    2    0    0 -0.12341139664E+04  0.62263629656E+03 -0.55870330650E+03  0.14937794275E+04  0.92273253164E+02 0.  0.
         11    1    3    3    0    0 -0.58261595857E+03  0.24249571950E+03 -0.25299167157E+03  0.67988992862E+03  0.00000000000E+00 0.  1.
        -11    1    3    3    0    0 -0.65149800786E+03  0.38014057707E+03 -0.30571163493E+03  0.81388949883E+03  0.00000000000E+00 0. -1.
         22    1    1    2    0    0  0.12341139664E+04 -0.62263629656E+03 -0.76262253317E+03  0.15787040153E+04  0.00000000000E+00 0.  1.
<mgrwt>
<rscale>  0 0.27738516E+04</rscale>
<asrwt>0</asrwt>
<pdfrwt beam="1">  1        1 0.13470443E+00 0.27738516E+04</pdfrwt>
<pdfrwt beam="2">  1       -1 0.33798533E+00 0.27738516E+04</pdfrwt>
<totfact> 0.30853951E-01</totfact>
</mgrwt>
</event>
<event>
 6    1  0.1831439E-005  0.2891337E+04  0.7818608E-02  0.8275460E-01
         -1   -1    0    0    0  501 -0.00000000000E+00  0.00000000000E+00  0.80322000893E+03  0.80322000893E+03  0.00000000000E+00 0.  1.
          1   -1    0    0  501    0  0.00000000000E+00 -0.00000000000E+00 -0.26019745796E+04  0.26019745796E+04  0.00000000000E+00 0. -1.
         23    2    1    2    0    0 -0.15627128529E+03  0.93367368954E+03 -0.21848112947E+04  0.23828408986E+04  0.91449884674E+02 0.  0.
         13    1    3    3    0    0 -0.68076379100E+02  0.64576026346E+03 -0.14523952957E+04  0.15909408557E+04  0.00000000000E+00 0. -1.
        -13    1    3    3    0    0 -0.88194906189E+02  0.28791342608E+03 -0.73241599899E+03  0.79190004292E+03  0.00000000000E+00 0.  1.
         22    1    1    2    0    0  0.15627128529E+03 -0.93367368954E+03  0.38605672404E+03  0.10223536899E+04  0.00000000000E+00 0.  1.
<mgrwt>
<rscale>  0 0.28913374E+04</rscale>
<asrwt>0</asrwt>
<pdfrwt beam="1">  1        1 0.40030378E+00 0.28913374E+04</pdfrwt>
<pdfrwt beam="2">  1       -1 0.12357231E+00 0.28913374E+04</pdfrwt>
<totfact> 0.56865613E-01</totfact>
</mgrwt>
</event>
<event>
 6    1  0.1831439E-005  0.2794977E+04  0.7818608E-02  0.8304829E-01
         -2   -1    0    0    0  501 -0.00000000000E+00  0.00000000000E+00  0.37514846515E+04  0.37514846515E+04  0.00000000000E+00 0.  1.
          2   -1    0    0  501    0  0.00000000000E+00 -0.00000000000E+00 -0.52058709680E+03  0.52058709680E+03  0.00000000000E+00 0. -1.
         23    2    1    2    0    0 -0.19094578074E+03 -0.84634902364E+03  0.32888167279E+04  0.34025192245E+04  0.89747659526E+02 0.  0.
         13    1    3    3    0    0 -0.69048673934E+02 -0.49366676595E+03  0.18167759863E+04  0.18839186765E+04  0.00000000000E+00 0. -1.
        -13    1    3    3    0    0 -0.12189710681E+03 -0.35268225769E+03  0.14720407415E+04  0.15186005480E+04  0.00000000000E+00 0.  1.
         22    1    1    2    0    0  0.19094578074E+03  0.84634902364E+03 -0.57919173214E+02  0.86955252379E+03  0.00000000000E+00 0. -1.
<mgrwt>
<rscale>  0 0.27949773E+04</rscale>
<asrwt>0</asrwt>
<pdfrwt beam="1">  1        2 0.80090325E-01 0.27949773E+04</pdfrwt>
<pdfrwt beam="2">  1       -2 0.57715147E+00 0.27949773E+04</pdfrwt>
<totfact> 0.31943091E-02</totfact>
</mgrwt>
</event>
<event>
 6    1  0.1831439E-005  0.1459911E+04  0.7818608E-02  0.8911558E-01
          1   -1    0    0  501    0  0.00000000000E+00  0.00000000000E+00  0.56171749071E+03  0.56171749071E+03  0.00000000000E+00 0. -1.
         -1   -1    0    0    0  501 -0.00000000000E+00 -0.00000000000E+00 -0.94858194833E+03  0.94858194833E+03  0.00000000000E+00 0.  1.
         23    2    1    2    0    0 -0.43420510506E+02 -0.50826500135E+03 -0.73014529498E+03  0.89543328642E+03  0.92032419929E+02 0.  0.
         13    1    3    3    0    0  0.20576342609E+02 -0.27743614262E+03 -0.37048218303E+03  0.46330470217E+03  0.00000000000E+00 0. -1.
        -13    1    3    3    0    0 -0.63996853115E+02 -0.23082885873E+03 -0.35966311196E+03  0.43212858426E+03  0.00000000000E+00 0.  1.
         22    1    1    2    0    0  0.43420510506E+02  0.50826500135E+03  0.34328083737E+03  0.61486615262E+03  0.00000000000E+00 0. -1.
<mgrwt>
<rscale>  0 0.14599111E+04</rscale>
<asrwt>0</asrwt>
<pdfrwt beam="1">  1        1 0.86418076E-01 0.14599111E+04</pdfrwt>
<pdfrwt beam="2">  1       -1 0.14593568E+00 0.14599111E+04</pdfrwt>
<totfact> 0.13724063E+01</totfact>
</mgrwt>
</event>
<event>
 6    1  0.1831439E-005  0.2540218E+04  0.7818608E-02  0.8388796E-01
         -1   -1    0    0    0  501 -0.00000000000E+00  0.00000000000E+00  0.30080049210E+04  0.30080049210E+04  0.00000000000E+00 0.  1.
          1   -1    0    0  501    0  0.00000000000E+00 -0.00000000000E+00 -0.53629476416E+03  0.53629476416E+03  0.00000000000E+00 0. -1.
         23    2    1    2    0    0 -0.66207198968E+03  0.60306653627E+03 -0.15882077961E+02  0.90041169712E+03  0.91980526305E+02 0.  0.
         13    1    3    3    0    0 -0.23314488140E+03  0.21175667021E+03  0.38336923527E+02  0.31728085793E+03  0.00000000000E+00 0. -1.
        -13    1    3    3    0    0 -0.42892710828E+03  0.39130986605E+03 -0.54219001488E+02  0.58313083919E+03  0.00000000000E+00 0.  1.
         22    1    1    2    0    0  0.66207198968E+03 -0.60306653627E+03  0.24875922348E+04  0.26438879881E+04  0.00000000000E+00 0.  1.
<mgrwt>
<rscale>  0 0.25402183E+04</rscale>
<asrwt>0</asrwt>
<pdfrwt beam="1">  1        1 0.82506888E-01 0.25402183E+04</pdfrwt>
<pdfrwt beam="2">  1       -1 0.46276998E+00 0.25402183E+04</pdfrwt>
<totfact> 0.93948769E-02</totfact>
</mgrwt>
</event>
<event>
 6    1  0.1831439E-005  0.2736324E+04  0.7818608E-02  0.8323314E-01
         -2   -1    0    0    0  501 -0.00000000000E+00  0.00000000000E+00  0.66201714811E+03  0.66201714811E+03  0.00000000000E+00 0.  1.
          2   -1    0    0  501    0  0.00000000000E+00 -0.00000000000E+00 -0.28275206151E+04  0.28275206151E+04  0.00000000000E+00 0. -1.
         23    2    1    2    0    0 -0.10422203502E+04 -0.83788146402E+03 -0.72457966998E+03  0.15236969775E+04  0.91477729646E+02 0.  0.
         11    1    3    3    0    0 -0.16966897413E+03 -0.10262160584E+03 -0.12927246423E+03  0.23670683298E+03  0.00000000000E+00 0. -1.
        -11    1    3    3    0    0 -0.87255137602E+03 -0.73525985818E+03 -0.59530720575E+03  0.12869901445E+04  0.00000000000E+00 0.  1.
         22    1    1    2    0    0  0.10422203502E+04  0.83788146402E+03 -0.14409237970E+04  0.19658407857E+04  0.00000000000E+00 0.  1.
<mgrwt>
<rscale>  0 0.27363239E+04</rscale>
<asrwt>0</asrwt>
<pdfrwt beam="1">  1        2 0.43500317E+00 0.27363239E+04</pdfrwt>
<pdfrwt beam="2">  1       -2 0.10184879E+00 0.27363239E+04</pdfrwt>
<totfact> 0.15385229E+00</totfact>
</mgrwt>
</event>
<event>
 6    1  0.1831439E-005  0.2206011E+04  0.7818608E-02  0.8515930E-01
          1   -1    0    0  501    0  0.00000000000E+00  0.00000000000E+00  0.15427098264E+04  0.15427098264E+04  0.00000000000E+00 0. -1.
         -1   -1    0    0    0  501 -0.00000000000E+00 -0.00000000000E+00 -0.78862634560E+03  0.78862634560E+03  0.00000000000E+00 0.  1.
         23    2    1    2    0    0  0.14896720900E+03 -0.41742745792E+03  0.14429168699E+04  0.15122340112E+04  0.91682601659E+02 0.  0.
         13    1    3    3    0    0  0.57834139255E+01 -0.12931484477E+03  0.47010221249E+03  0.48759805900E+03  0.00000000000E+00 0. -1.
        -13    1    3    3    0    0  0.14318379508E+03 -0.28811261315E+03  0.97281465737E+03  0.10246359522E+04  0.00000000000E+00 0.  1.
         22    1    1    2    0    0 -0.14896720900E+03  0.41742745792E+03 -0.68883338902E+03  0.81910216079E+03  0.00000000000E+00 0.  1.
<mgrwt>
<rscale>  0 0.22060114E+04</rscale>
<asrwt>0</asrwt>
<pdfrwt beam="1">  1        1 0.23733997E+00 0.22060114E+04</pdfrwt>
<pdfrwt beam="2">  1       -1 0.12132713E+00 0.22060114E+04</pdfrwt>
<totfact> 0.33554193E+00</totfact>
</mgrwt>
</event>
<event>
 6    1  0.1831439E-005  0.5777181E+04  0.7818608E-02  0.7718659E-01
          2   -1    0    0  501    0  0.00000000000E+00  0.00000000000E+00  0.28444432715E+04  0.28444432715E+04  0.00000000000E+00 0. -1.
         -2   -1    0    0    0  501 -0.00000000000E+00 -0.00000000000E+00 -0.29334230032E+04  0.29334230032E+04  0.00000000000E+00 0.  1.
         23    2    1    2    0    0 -0.47426508402E+03  0.13433329982E+04  0.24678050124E+04  0.28509875377E+04  0.92722417747E+02 0.  0.
         11    1    3    3    0    0 -0.40234249035E+03  0.11911691800E+04  0.21247745274E+04  0.24688925224E+04  0.00000000000E+00 0. -1.
        -11    1    3    3    0    0 -0.71922593671E+02  0.15216381824E+03  0.34303048503E+03  0.38209501531E+03  0.00000000000E+00 0.  1.
         22    1    1    2    0    0  0.47426508402E+03 -0.13433329982E+04 -0.25567847441E+04  0.29268787371E+04  0.00000000000E+00 0.  1.
<mgrwt>
<rscale>  0 0.57771811E+04</rscale>
<asrwt>0</asrwt>
<pdfrwt beam="1">  1        2 0.43760666E+00 0.57771811E+04</pdfrwt>
<pdfrwt beam="2">  1       -2 0.45129585E+00 0.57771811E+04</pdfrwt>
<totfact> 0.50857875E-03</totfact>
</mgrwt>
</event>
<event>
 6    1  0.1831439E-005  0.2330396E+03  0.7818608E-02  0.1124518E+00
         -1   -1    0    0    0  501 -0.00000000000E+00  0.00000000000E+00  0.21461429168E+03  0.21461429168E+03  0.00000000000E+00 0.  1.
          1   -1    0    0  501    0  0.00000000000E+00 -0.00000000000E+00 -0.63261714118E+02  0.63261714118E+02  0.00000000000E+00 0. -1.
         23    2    1    2    0    0  0.43651426992E+02  0.19940336470E+02  0.19038869965E+03  0.21601420073E+03  0.90062277711E+02 0.  0.
         13    1    3    3    0    0  0.44332864002E+02  0.18542333354E+02  0.32261613699E+02  0.57879466785E+02  0.00000000000E+00 0. -1.
        -13    1    3    3    0    0 -0.68143701017E+00  0.13980031158E+01  0.15812708595E+03  0.15813473395E+03  0.00000000000E+00 0.  1.
         22    1    1    2    0    0 -0.43651426992E+02 -0.19940336470E+02 -0.39036122095E+02  0.61861805059E+02  0.00000000000E+00 0. -1.
<mgrwt>
<rscale>  0 0.23303964E+03</rscale>
<asrwt>0</asrwt>
<pdfrwt beam="1">  1        1 0.97325714E-02 0.23303964E+03</pdfrwt>
<pdfrwt beam="2">  1       -1 0.33017583E-01 0.23303964E+03</pdfrwt>
<totfact> 0.56740375E+03</totfact>
</mgrwt>
</event>
<event>
 6    1  0.1831439E-005  0.2080874E+04  0.7818608E-02  0.8569716E-01
          2   -1    0    0  501    0  0.00000000000E+00  0.00000000000E+00  0.11841244256E+04  0.11841244256E+04  0.00000000000E+00 0. -1.
         -2   -1    0    0    0  501 -0.00000000000E+00 -0.00000000000E+00 -0.91418525975E+03  0.91418525975E+03  0.00000000000E+00 0.  1.
         23    2    1    2    0    0 -0.55911381360E+03 -0.87200665276E+03  0.59815520690E+02  0.10413537708E+04  0.88520734265E+02 0.  0.
         13    1    3    3    0    0 -0.40634060258E+03 -0.56118786596E+03  0.25478930607E+02  0.69332076423E+03  0.00000000000E+00 0.  1.
        -13    1    3    3    0    0 -0.15277321102E+03 -0.31081878680E+03  0.34336590083E+02  0.34803300655E+03  0.00000000000E+00 0. -1.
         22    1    1    2    0    0  0.55911381360E+03  0.87200665276E+03  0.21012364511E+03  0.10569559145E+04  0.00000000000E+00 0. -1.
<mgrwt>
<rscale>  0 0.20808739E+04</rscale>
<asrwt>0</asrwt>
<pdfrwt beam="1">  1        2 0.18217299E+00 0.20808739E+04</pdfrwt>
<pdfrwt beam="2">  1       -2 0.14064389E+00 0.20808739E+04</pdfrwt>
<totfact> 0.63425367E+00</totfact>
</mgrwt>
</event>
<event>
 6    1  0.3082912E-005  0.3586662E+04  0.7818608E-02  0.8093554E-01
         -1   -1    0    0    0  501 -0.00000000000E+00  0.00000000000E+00  0.14991617394E+04  0.14991617394E+04  0.00000000000E+00 0.  1.
          1   -1    0    0  501    0  0.00000000000E+00 -0.00000000000E+00 -0.21452228440E+04  0.21452228440E+04  0.00000000000E+00 0. -1.
         23    2    1    2    0    0 -0.30141173299E+03 -0.81983387709E+03 -0.19132694048E+04  0.21052960560E+04  0.93247249486E+02 0.  0.
         11    1    3    3    0    0 -0.14105818513E+03 -0.28083593572E+03 -0.62185559441E+03  0.69675721358E+03  0.00000000000E+00 0.  1.
        -11    1    3    3    0    0 -0.16035354786E+03 -0.53899794137E+03 -0.12914138104E+04  0.14085388425E+04  0.00000000000E+00 0. -1.
         22    1    1    2    0    0  0.30141173299E+03  0.81983387709E+03  0.12672083002E+04  0.15390885273E+04  0.00000000000E+00 0.  1.
<mgrwt>
<rscale>  0 0.35866620E+04</rscale>
<asrwt>0</asrwt>
<pdfrwt beam="1">  1        1 0.33003428E+00 0.35866620E+04</pdfrwt>
<pdfrwt beam="2">  1       -1 0.23064027E+00 0.35866620E+04</pdfrwt>
<totfact> 0.17975557E-01</totfact>
</mgrwt>
</event>
<event>
 6    1  0.1831439E-005  0.1338783E+04  0.7818608E-02  0.8999363E-01
         -2   -1    0    0    0  501 -0.00000000000E+00  0.00000000000E+00  0.33940347040E+03  0.33940347040E+03  0.00000000000E+00 0.  1.
          2   -1    0    0  501    0  0.00000000000E+00 -0.00000000000E+00 -0.13202124593E+04  0.13202124593E+04  0.00000000000E+00 0. -1.
         23    2    1    2    0    0 -0.42730329439E+03 -0.30315655650E+03 -0.10028124270E+04  0.11352342420E+04  0.92908649683E+02 0.  0.
         13    1    3    3    0    0 -0.29489572804E+03 -0.18390064089E+03 -0.74202319114E+03  0.81937863795E+03  0.00000000000E+00 0. -1.
        -13    1    3    3    0    0 -0.13240756635E+03 -0.11925591561E+03 -0.26078923589E+03  0.31585560402E+03  0.00000000000E+00 0.  1.
         22    1    1    2    0    0  0.42730329439E+03  0.30315655650E+03  0.22003438127E+02  0.52438168774E+03  0.00000000000E+00 0.  1.
<mgrwt>
<rscale>  0 0.13387826E+04</rscale>
<asrwt>0</asrwt>
<pdfrwt beam="1">  1        2 0.20310961E+00 0.13387826E+04</pdfrwt>
<pdfrwt beam="2">  1       -2 0.52215918E-01 0.13387826E+04</pdfrwt>
<totfact> 0.54439890E+01</totfact>
</mgrwt>
</event>
<event>
 6    1  0.2585388E-005  0.3160144E+04  0.7818608E-02  0.8199423E-01
         -2   -1    0    0    0  501 -0.00000000000E+00  0.00000000000E+00  0.14371231879E+04  0.14371231879E+04  0.00000000000E+00 0.  1.
          2   -1    0    0  501    0  0.00000000000E+00 -0.00000000000E+00 -0.17372394335E+04  0.17372394335E+04  0.00000000000E+00 0. -1.
         23    2    1    2    0    0  0.99457929842E+03  0.88363057934E+03  0.70369798755E+03  0.15077390898E+04  0.89974015631E+02 0.  0.
         13    1    3    3    0    0  0.55658824120E+03  0.54315666456E+03  0.43932219920E+03  0.89320413524E+03  0.00000000000E+00 0.  1.
        -13    1    3    3    0    0  0.43799105722E+03  0.34047391478E+03  0.26437578835E+03  0.61453495451E+03  0.00000000000E+00 0. -1.
         22    1    1    2    0    0 -0.99457929842E+03 -0.88363057934E+03 -0.10038142332E+04  0.16666235317E+04  0.00000000000E+00 0. -1.
<mgrwt>
<rscale>  0 0.31601437E+04</rscale>
<asrwt>0</asrwt>
<pdfrwt beam="1">  1        2 0.26726760E+00 0.31601437E+04</pdfrwt>
<pdfrwt beam="2">  1       -2 0.22109588E+00 0.31601437E+04</pdfrwt>
<totfact> 0.76840517E-01</totfact>
</mgrwt>
</event>
<event>
 6    1  0.1831439E-005  0.1436641E+04  0.7818608E-02  0.8927715E-01
         -1   -1    0    0    0  501 -0.00000000000E+00  0.00000000000E+00  0.40087424728E+03  0.40087424728E+03  0.00000000000E+00 0.  1.
          1   -1    0    0  501    0  0.00000000000E+00 -0.00000000000E+00 -0.12871483141E+04  0.12871483141E+04  0.00000000000E+00 0. -1.
         23    2    1    2    0    0 -0.10375473757E+03 -0.62412681786E+03 -0.52716635441E+02  0.64154402755E+03  0.92197425655E+02 0.  0.
         13    1    3    3    0    0 -0.88808726432E+01 -0.89158630134E+02  0.24200927009E+02  0.92810646449E+02  0.00000000000E+00 0.  1.
        -13    1    3    3    0    0 -0.94873864923E+02 -0.53496818773E+03 -0.76917562450E+02  0.54873338110E+03  0.00000000000E+00 0. -1.
         22    1    1    2    0    0  0.10375473757E+03  0.62412681786E+03 -0.83355743134E+03  0.10464785338E+04  0.00000000000E+00 0. -1.
<mgrwt>
<rscale>  0 0.14366414E+04</rscale>
<asrwt>0</asrwt>
<pdfrwt beam="1">  1        1 0.19802282E+00 0.14366414E+04</pdfrwt>
<pdfrwt beam="2">  1       -1 0.61672962E-01 0.14366414E+04</pdfrwt>
<totfact> 0.23953834E+01</totfact>
</mgrwt>
</event>
<event>
 6    1  0.1831439E-005  0.4129689E+04  0.7818608E-02  0.7978883E-01
          2   -1    0    0  501    0  0.00000000000E+00  0.00000000000E+00  0.14021727091E+04  0.14021727091E+04  0.00000000000E+00 0. -1.
         -2   -1    0    0    0  501 -0.00000000000E+00 -0.00000000000E+00 -0.30406976192E+04  0.30406976192E+04  0.00000000000E+00 0.  1.
         23    2    1    2    0    0  0.10973992545E+04 -0.16633130232E+04 -0.13977124644E+04  0.24356618262E+04  0.89179940287E+02 0.  0.
         13    1    3    3    0    0  0.30620771424E+03 -0.53520955344E+03 -0.41646637856E+03  0.74408109425E+03  0.00000000000E+00 0.  1.
        -13    1    3    3    0    0  0.79119154023E+03 -0.11281034698E+04 -0.98124608582E+03  0.16915807320E+04  0.00000000000E+00 0. -1.
         22    1    1    2    0    0 -0.10973992545E+04  0.16633130232E+04 -0.24081244575E+03  0.20072085021E+04  0.00000000000E+00 0.  1.
<mgrwt>
<rscale>  0 0.41296892E+04</rscale>
<asrwt>0</asrwt>
<pdfrwt beam="1">  1        2 0.21571888E+00 0.41296892E+04</pdfrwt>
<pdfrwt beam="2">  1       -2 0.46779963E+00 0.41296892E+04</pdfrwt>
<totfact> 0.29879371E-02</totfact>
</mgrwt>
</event>
<event>
 6    1  0.1831439E-005  0.2527332E+04  0.7818608E-02  0.8393313E-01
          1   -1    0    0  501    0  0.00000000000E+00  0.00000000000E+00  0.13622768058E+04  0.13622768058E+04  0.00000000000E+00 0.  1.
         -1   -1    0    0    0  501 -0.00000000000E+00 -0.00000000000E+00 -0.11721930976E+04  0.11721930976E+04  0.00000000000E+00 0. -1.
         23    2    1    2    0    0 -0.32214129398E+03 -0.10430094769E+04  0.73052975182E+03  0.13163871032E+04  0.86933911990E+02 0.  0.
         13    1    3    3    0    0 -0.12121978631E+03 -0.28848636866E+03  0.23886719538E+03  0.39367011383E+03  0.00000000000E+00 0. -1.
        -13    1    3    3    0    0 -0.20092150768E+03 -0.75452310822E+03  0.49166255644E+03  0.92271698938E+03  0.00000000000E+00 0.  1.
         22    1    1    2    0    0  0.32214129398E+03  0.10430094769E+04 -0.54044604356E+03  0.12180828002E+04  0.00000000000E+00 0. -1.
<mgrwt>
<rscale>  0 0.25273318E+04</rscale>
<asrwt>0</asrwt>
<pdfrwt beam="1">  1        1 0.20958105E+00 0.25273318E+04</pdfrwt>
<pdfrwt beam="2">  1       -1 0.18033740E+00 0.25273318E+04</pdfrwt>
<totfact> 0.14983280E+00</totfact>
</mgrwt>
</event>
<event>
 6    1  0.1831439E-005  0.1460677E+04  0.7818608E-02  0.8911032E-01
          2   -1    0    0  501    0  0.00000000000E+00  0.00000000000E+00  0.10364074333E+04  0.10364074333E+04  0.00000000000E+00 0.  1.
         -2   -1    0    0    0  501 -0.00000000000E+00 -0.00000000000E+00 -0.51465666680E+03  0.51465666680E+03  0.00000000000E+00 0. -1.
         23    2    1    2    0    0 -0.49032477619E+03 -0.29941790646E+03  0.73557736947E+03  0.93804592339E+03  0.93736967424E+02 0.  0.
         13    1    3    3    0    0 -0.19108460117E+03 -0.16451745748E+03  0.28411342276E+03  0.37986807660E+03  0.00000000000E+00 0. -1.
        -13    1    3    3    0    0 -0.29924017501E+03 -0.13490044897E+03  0.45146394670E+03  0.55817784679E+03  0.00000000000E+00 0.  1.
         22    1    1    2    0    0  0.49032477619E+03  0.29941790646E+03 -0.21382660297E+03  0.61301817672E+03  0.00000000000E+00 0. -1.
<mgrwt>
<rscale>  0 0.14606765E+04</rscale>
<asrwt>0</asrwt>
<pdfrwt beam="1">  1        2 0.15944730E+00 0.14606765E+04</pdfrwt>
<pdfrwt beam="2">  1       -2 0.79177949E-01 0.14606765E+04</pdfrwt>
<totfact> 0.32739853E+01</totfact>
</mgrwt>
</event>
<event>
 6    1  0.1831439E-005  0.1969732E+04  0.7818608E-02  0.8620904E-01
         -1   -1    0    0    0  501 -0.00000000000E+00  0.00000000000E+00  0.64057961820E+03  0.64057961820E+03  0.00000000000E+00 0.  1.
          1   -1    0    0  501    0  0.00000000000E+00 -0.00000000000E+00 -0.15141922983E+04  0.15141922983E+04  0.00000000000E+00 0. -1.
         23    2    1    2    0    0  0.81079558774E+03 -0.12362398204E+03  0.15426025768E+03  0.83978326626E+03  0.93634038394E+02 0.  0.
         13    1    3    3    0    0  0.53658701958E+03 -0.12527908748E+03  0.11295803817E+03  0.56247666416E+03  0.00000000000E+00 0.  1.
        -13    1    3    3    0    0  0.27420856817E+03  0.16551054373E+01  0.41302219516E+02  0.27730660210E+03  0.00000000000E+00 0. -1.
         22    1    1    2    0    0 -0.81079558774E+03  0.12362398204E+03 -0.10278729378E+04  0.13149886502E+04  0.00000000000E+00 0. -1.
<mgrwt>
<rscale>  0 0.19697317E+04</rscale>
<asrwt>0</asrwt>
<pdfrwt beam="1">  1        1 0.23295266E+00 0.19697317E+04</pdfrwt>
<pdfrwt beam="2">  1       -1 0.98550711E-01 0.19697317E+04</pdfrwt>
<totfact> 0.58609388E+00</totfact>
</mgrwt>
</event>
<event>
 6    1  0.1831439E-005  0.7311114E+03  0.7818608E-02  0.9665459E-01
          1   -1    0    0  501    0  0.00000000000E+00  0.00000000000E+00  0.37586145489E+04  0.37586145489E+04  0.00000000000E+00 0. -1.
         -1   -1    0    0    0  501 -0.00000000000E+00 -0.00000000000E+00 -0.35553248270E+02  0.35553248270E+02  0.00000000000E+00 0.  1.
         23    2    1    2    0    0  0.80780277751E+02  0.34558479230E+03  0.22005591788E+04  0.22308485678E+04  0.90941360804E+02 0.  0.
         11    1    3    3    0    0  0.77939518282E+02  0.23765294334E+03  0.13000217747E+04  0.13238618148E+04  0.00000000000E+00 0.  1.
        -11    1    3    3    0    0  0.28407594694E+01  0.10793184896E+03  0.90053740406E+03  0.90698675296E+03  0.00000000000E+00 0. -1.
         22    1    1    2    0    0 -0.80780277751E+02 -0.34558479230E+03  0.15225021218E+04  0.15633192294E+04  0.00000000000E+00 0. -1.
<mgrwt>
<rscale>  0 0.73111136E+03</rscale>
<asrwt>0</asrwt>
<pdfrwt beam="1">  1        1 0.57824808E+00 0.73111136E+03</pdfrwt>
<pdfrwt beam="2">  1       -1 0.54697335E-02 0.73111136E+03</pdfrwt>
<totfact> 0.27189583E+01</totfact>
</mgrwt>
</event>
<event>
 6    1  0.1831439E-005  0.2428828E+04  0.7818608E-02  0.8428789E-01
          1   -1    0    0  501    0  0.00000000000E+00  0.00000000000E+00  0.10770853488E+04  0.10770853488E+04  0.00000000000E+00 0. -1.
         -1   -1    0    0    0  501 -0.00000000000E+00 -0.00000000000E+00 -0.13692517030E+04  0.13692517030E+04  0.00000000000E+00 0.  1.
         23    2    1    2    0    0 -0.33794252935E+03 -0.44506621106E+03 -0.12304008480E+04  0.13542871213E+04  0.88984688723E+02 0.  0.
         13    1    3    3    0    0 -0.10298973569E+03 -0.84248021964E+02 -0.34420177592E+03  0.36902503629E+03  0.00000000000E+00 0. -1.
        -13    1    3    3    0    0 -0.23495279367E+03 -0.36081818910E+03 -0.88619907211E+03  0.98526208506E+03  0.00000000000E+00 0.  1.
         22    1    1    2    0    0  0.33794252935E+03  0.44506621106E+03  0.93823449375E+03  0.10920499305E+04  0.00000000000E+00 0. -1.
<mgrwt>
<rscale>  0 0.24288277E+04</rscale>
<asrwt>0</asrwt>
<pdfrwt beam="1">  1        1 0.16570544E+00 0.24288277E+04</pdfrwt>
<pdfrwt beam="2">  1       -1 0.21065411E+00 0.24288277E+04</pdfrwt>
<totfact> 0.15009410E+00</totfact>
</mgrwt>
</event>
<event>
 6    1  0.1831439E-005  0.1813619E+04  0.7818608E-02  0.8699091E-01
         -2   -1    0    0    0  501 -0.00000000000E+00  0.00000000000E+00  0.21184105374E+03  0.21184105374E+03  0.00000000000E+00 0.  1.
          2   -1    0    0  501    0  0.00000000000E+00 -0.00000000000E+00 -0.38816986115E+04  0.38816986115E+04  0.00000000000E+00 0. -1.
         23    2    1    2    0    0  0.80753105243E+03  0.19112470364E+02 -0.92101186975E+03  0.12284699796E+04  0.91673002435E+02 0.  0.
         11    1    3    3    0    0  0.31145616067E+03  0.14877430843E+00 -0.28981163865E+03  0.42543595059E+03  0.00000000000E+00 0. -1.
        -11    1    3    3    0    0  0.49607489176E+03  0.18963696056E+02 -0.63120023109E+03  0.80303402900E+03  0.00000000000E+00 0.  1.
         22    1    1    2    0    0 -0.80753105243E+03 -0.19112470364E+02 -0.27488456880E+04  0.28650696857E+04  0.00000000000E+00 0. -1.
<mgrwt>
<rscale>  0 0.18136186E+04</rscale>
<asrwt>0</asrwt>
<pdfrwt beam="1">  1        2 0.59718446E+00 0.18136186E+04</pdfrwt>
<pdfrwt beam="2">  1       -2 0.32590928E-01 0.18136186E+04</pdfrwt>
<totfact> 0.35605517E+00</totfact>
</mgrwt>
</event>
<event>
 6    1  0.1831439E-005  0.3054856E+04  0.7818608E-02  0.8228238E-01
         -2   -1    0    0    0  501 -0.00000000000E+00  0.00000000000E+00  0.89765775867E+03  0.89765775867E+03  0.00000000000E+00 0.  1.
          2   -1    0    0  501    0  0.00000000000E+00 -0.00000000000E+00 -0.25990261092E+04  0.25990261092E+04  0.00000000000E+00 0. -1.
         23    2    1    2    0    0  0.34359973996E+03  0.13668660866E+04 -0.18142748334E+03  0.14238587619E+04  0.89856342306E+02 0.  0.
         11    1    3    3    0    0  0.13658461104E+03  0.67772154391E+03 -0.11988811934E+03  0.70166588075E+03  0.00000000000E+00 0. -1.
        -11    1    3    3    0    0  0.20701512892E+03  0.68914454269E+03 -0.61539364002E+02  0.72219288119E+03  0.00000000000E+00 0.  1.
         22    1    1    2    0    0 -0.34359973996E+03 -0.13668660866E+04 -0.15199408672E+04  0.20728251059E+04  0.00000000000E+00 0. -1.
<mgrwt>
<rscale>  0 0.30548558E+04</rscale>
<asrwt>0</asrwt>
<pdfrwt beam="1">  1        2 0.39985016E+00 0.30548558E+04</pdfrwt>
<pdfrwt beam="2">  1       -2 0.13810120E+00 0.30548558E+04</pdfrwt>
<totfact> 0.96603937E-01</totfact>
</mgrwt>
</event>
<event>
 6    1  0.1831439E-005  0.1722315E+04  0.7818608E-02  0.8748739E-01
          2   -1    0    0  501    0  0.00000000000E+00  0.00000000000E+00  0.29520577787E+04  0.29520577787E+04  0.00000000000E+00 0.  1.
         -2   -1    0    0    0  501 -0.00000000000E+00 -0.00000000000E+00 -0.25121198451E+03  0.25121198451E+03  0.00000000000E+00 0. -1.
         23    2    1    2    0    0  0.42397522876E+03 -0.49456670958E+02  0.27400343948E+04  0.27746245681E+04  0.92477305389E+02 0.  0.
         13    1    3    3    0    0  0.36572818887E+03 -0.26921504799E+02  0.21232422234E+04  0.21546784945E+04  0.00000000000E+00 0. -1.
        -13    1    3    3    0    0  0.58247039898E+02 -0.22535166159E+02  0.61679217142E+03  0.61994607354E+03  0.00000000000E+00 0.  1.
         22    1    1    2    0    0 -0.42397522876E+03  0.49456670958E+02 -0.39188600617E+02  0.42864519515E+03  0.00000000000E+00 0. -1.
<mgrwt>
<rscale>  0 0.17223151E+04</rscale>
<asrwt>0</asrwt>
<pdfrwt beam="1">  1        2 0.45416271E+00 0.17223151E+04</pdfrwt>
<pdfrwt beam="2">  1       -2 0.38648000E-01 0.17223151E+04</pdfrwt>
<totfact> 0.11255929E+01</totfact>
</mgrwt>
</event>
<event>
 6    1  0.1831439E-005  0.2310629E+04  0.7818608E-02  0.8473742E-01
         -1   -1    0    0    0  501 -0.00000000000E+00  0.00000000000E+00  0.77539601844E+03  0.77539601844E+03  0.00000000000E+00 0.  1.
          1   -1    0    0  501    0  0.00000000000E+00 -0.00000000000E+00 -0.17213803868E+04  0.17213803868E+04  0.00000000000E+00 0. -1.
         23    2    1    2    0    0 -0.76672576325E+03 -0.82368189733E+03 -0.20007978959E+03  0.11467045906E+04  0.92624143160E+02 0.  0.
         11    1    3    3    0    0 -0.61293191547E+03 -0.60269730935E+03 -0.14163293326E+03  0.87120001577E+03  0.00000000000E+00 0.  1.
        -11    1    3    3    0    0 -0.15379384778E+03 -0.22098458799E+03 -0.58446856320E+02  0.27550457484E+03  0.00000000000E+00 0. -1.
         22    1    1    2    0    0  0.76672576325E+03  0.82368189733E+03 -0.74590457876E+03  0.13500718146E+04  0.00000000000E+00 0. -1.
<mgrwt>
<rscale>  0 0.23106289E+04</rscale>
<asrwt>0</asrwt>
<pdfrwt beam="1">  1        1 0.26482775E+00 0.23106289E+04</pdfrwt>
<pdfrwt beam="2">  1       -1 0.11929170E+00 0.23106289E+04</pdfrwt>
<totfact> 0.26139446E+00</totfact>
</mgrwt>
</event>
<event>
 6    1  0.1831439E-005  0.3791863E+04  0.7818608E-02  0.8047903E-01
          1   -1    0    0  501    0  0.00000000000E+00  0.00000000000E+00  0.20470377727E+04  0.20470377727E+04  0.00000000000E+00 0. -1.
         -1   -1    0    0    0  501 -0.00000000000E+00 -0.00000000000E+00 -0.17559790064E+04  0.17559790064E+04  0.00000000000E+00 0.  1.
         23    2    1    2    0    0 -0.49719584223E+02  0.18908051407E+04  0.25945824128E+03  0.19112940959E+04  0.90057896923E+02 0.  0.
         11    1    3    3    0    0 -0.68444805289E+02  0.14138372301E+04  0.17025623339E+03  0.14256954758E+04  0.00000000000E+00 0.  1.
        -11    1    3    3    0    0  0.18725221066E+02  0.47696791056E+03  0.89202007886E+02  0.48559862007E+03  0.00000000000E+00 0. -1.
         22    1    1    2    0    0  0.49719584223E+02 -0.18908051407E+04  0.31600524978E+02  0.18917226833E+04  0.00000000000E+00 0. -1.
<mgrwt>
<rscale>  0 0.37918625E+04</rscale>
<asrwt>0</asrwt>
<pdfrwt beam="1">  1        1 0.31492889E+00 0.37918625E+04</pdfrwt>
<pdfrwt beam="2">  1       -1 0.27015062E+00 0.37918625E+04</pdfrwt>
<totfact> 0.11365204E-01</totfact>
</mgrwt>
</event>
<event>
 6    1  0.1831439E-005  0.4056363E+04  0.7818608E-02  0.7993272E-01
         -2   -1    0    0    0  501 -0.00000000000E+00  0.00000000000E+00  0.24913881453E+04  0.24913881453E+04  0.00000000000E+00 0. -1.
          2   -1    0    0  501    0  0.00000000000E+00 -0.00000000000E+00 -0.16510953240E+04  0.16510953240E+04  0.00000000000E+00 0.  1.
         23    2    1    2    0    0  0.16874958918E+04  0.94946910343E+03  0.10336907664E+04  0.21965809208E+04  0.85540504966E+02 0.  0.
         13    1    3    3    0    0  0.13387185486E+04  0.72748483736E+03  0.84324701313E+03  0.17413980206E+04  0.00000000000E+00 0.  1.
        -13    1    3    3    0    0  0.34877734319E+03  0.22198426607E+03  0.19044375331E+03  0.45518290025E+03  0.00000000000E+00 0. -1.
         22    1    1    2    0    0 -0.16874958918E+04 -0.94946910343E+03 -0.19339794521E+03  0.19459025485E+04  0.00000000000E+00 0.  1.
<mgrwt>
<rscale>  0 0.40563626E+04</rscale>
<asrwt>0</asrwt>
<pdfrwt beam="1">  1        2 0.25401467E+00 0.40563626E+04</pdfrwt>
<pdfrwt beam="2">  1       -2 0.38329048E+00 0.40563626E+04</pdfrwt>
<totfact> 0.78148817E-02</totfact>
</mgrwt>
</event>
<event>
 6    1  0.1831439E-005  0.1106109E+04  0.7818608E-02  0.9199258E-01
          2   -1    0    0  501    0  0.00000000000E+00  0.00000000000E+00  0.22496302701E+04  0.22496302701E+04  0.00000000000E+00 0. -1.
         -2   -1    0    0    0  501 -0.00000000000E+00 -0.00000000000E+00 -0.13596433739E+03  0.13596433739E+03  0.00000000000E+00 0.  1.
         23    2    1    2    0    0 -0.38932180769E+03 -0.72434673881E+02  0.18848669477E+04  0.19282465699E+04  0.92699362961E+02 0.  0.
         13    1    3    3    0    0 -0.23149627626E+03 -0.79123679064E+02  0.10079109669E+04  0.10371767447E+04  0.00000000000E+00 0. -1.
        -13    1    3    3    0    0 -0.15782553143E+03  0.66890051829E+01  0.87695598083E+03  0.89106982525E+03  0.00000000000E+00 0.  1.
         22    1    1    2    0    0  0.38932180769E+03  0.72434673881E+02  0.22879898496E+03  0.45734803754E+03  0.00000000000E+00 0.  1.
<mgrwt>
<rscale>  0 0.11061094E+04</rscale>
<asrwt>0</asrwt>
<pdfrwt beam="1">  1        2 0.34609694E+00 0.11061094E+04</pdfrwt>
<pdfrwt beam="2">  1       -2 0.20917592E-01 0.11061094E+04</pdfrwt>
<totfact> 0.95361971E+01</totfact>
</mgrwt>
</event>
<event>
 6    1  0.1831439E-005  0.1308012E+04  0.7818608E-02  0.9023235E-01
          2   -1    0    0  501    0  0.00000000000E+00  0.00000000000E+00  0.26752905100E+04  0.26752905100E+04  0.00000000000E+00 0. -1.
         -2   -1    0    0    0  501 -0.00000000000E+00 -0.00000000000E+00 -0.15987946163E+03  0.15987946163E+03  0.00000000000E+00 0.  1.
         23    2    1    2    0    0 -0.55171381952E+03  0.31328600105E+03  0.15795182035E+04  0.17044924428E+04  0.88772041082E+02 0.  0.
         11    1    3    3    0    0 -0.24832996450E+03  0.17764430363E+03  0.67454636504E+03  0.74043100183E+03  0.00000000000E+00 0. -1.
        -11    1    3    3    0    0 -0.30338385502E+03  0.13564169743E+03  0.90497183847E+03  0.96406144098E+03  0.00000000000E+00 0.  1.
         22    1    1    2    0    0  0.55171381952E+03 -0.31328600105E+03  0.93589284488E+03  0.11306775288E+04  0.00000000000E+00 0. -1.
<mgrwt>
<rscale>  0 0.13080122E+04</rscale>
<asrwt>0</asrwt>
<pdfrwt beam="1">  1        2 0.41158312E+00 0.13080122E+04</pdfrwt>
<pdfrwt beam="2">  1       -2 0.24596842E-01 0.13080122E+04</pdfrwt>
<totfact> 0.40026763E+01</totfact>
</mgrwt>
</event>
<event>
 6    1  0.1831439E-005  0.4885242E+04  0.7818608E-02  0.7846458E-01
          2   -1    0    0  501    0  0.00000000000E+00  0.00000000000E+00  0.43780448105E+04  0.43780448105E+04  0.00000000000E+00 0. -1.
         -2   -1    0    0    0  501 -0.00000000000E+00 -0.00000000000E+00 -0.13627993669E+04  0.13627993669E+04  0.00000000000E+00 0.  1.
         23    2    1    2    0    0  0.55501259089E+03  0.15009777272E+04  0.36753908381E+04  0.40097274698E+04  0.91888279849E+02 0.  0.
         11    1    3    3    0    0  0.46189935626E+02  0.21196088803E+03  0.51926990687E+03  0.56276297354E+03  0.00000000000E+00 0. -1.
        -11    1    3    3    0    0  0.50882265526E+03  0.12890168392E+04  0.31561209312E+04  0.34469644963E+04  0.00000000000E+00 0.  1.
         22    1    1    2    0    0 -0.55501259089E+03 -0.15009777272E+04 -0.66014539442E+03  0.17311167076E+04  0.00000000000E+00 0.  1.
<mgrwt>
<rscale>  0 0.48852417E+04</rscale>
<asrwt>0</asrwt>
<pdfrwt beam="1">  1        2 0.67354535E+00 0.48852417E+04</pdfrwt>
<pdfrwt beam="2">  1       -2 0.20966144E+00 0.48852417E+04</pdfrwt>
<totfact> 0.13495064E-02</totfact>
</mgrwt>
</event>
<event>
 6    1  0.1831439E-005  0.9880732E+03  0.7818608E-02  0.9321723E-01
         -2   -1    0    0    0  501 -0.00000000000E+00  0.00000000000E+00  0.59922332394E+03  0.59922332394E+03  0.00000000000E+00 0.  1.
          2   -1    0    0  501    0  0.00000000000E+00 -0.00000000000E+00 -0.40731420220E+03  0.40731420220E+03  0.00000000000E+00 0. -1.
         23    2    1    2    0    0  0.34749606847E+03  0.20245681318E+03  0.38175950984E+03  0.56180676638E+03  0.90245446385E+02 0.  0.
         11    1    3    3    0    0  0.29385847350E+03  0.15433103341E+03  0.35208036473E+03  0.48387131920E+03  0.00000000000E+00 0.  1.
        -11    1    3    3    0    0  0.53637594965E+02  0.48125779768E+02  0.29679145119E+02  0.77935447179E+02  0.00000000000E+00 0. -1.
         22    1    1    2    0    0 -0.34749606847E+03 -0.20245681318E+03 -0.18985038810E+03  0.44473075975E+03  0.00000000000E+00 0. -1.
<mgrwt>
<rscale>  0 0.98807322E+03</rscale>
<asrwt>0</asrwt>
<pdfrwt beam="1">  1        2 0.62663724E-01 0.98807322E+03</pdfrwt>
<pdfrwt beam="2">  1       -2 0.92188203E-01 0.98807322E+03</pdfrwt>
<totfact> 0.77836128E+01</totfact>
</mgrwt>
</event>
<event>
 6    1  0.1831439E-005  0.1718635E+04  0.7818608E-02  0.8750807E-01
         -1   -1    0    0    0  501 -0.00000000000E+00  0.00000000000E+00  0.10187582823E+04  0.10187582823E+04  0.00000000000E+00 0. -1.
          1   -1    0    0  501    0  0.00000000000E+00 -0.00000000000E+00 -0.72483025852E+03  0.72483025852E+03  0.00000000000E+00 0.  1.
         23    2    1    2    0    0  0.19971060970E+03 -0.79730897036E+03 -0.98432906682E+02  0.83280150666E+03  0.91013133795E+02 0.  0.
         11    1    3    3    0    0  0.14065479750E+03 -0.61735010916E+03 -0.39320965651E+02  0.63439031178E+03  0.00000000000E+00 0. -1.
        -11    1    3    3    0    0  0.59055812200E+02 -0.17995886120E+03 -0.59111941030E+02  0.19841119487E+03  0.00000000000E+00 0.  1.
         22    1    1    2    0    0 -0.19971060970E+03  0.79730897036E+03  0.39236093047E+03  0.91078703417E+03  0.00000000000E+00 0.  1.
<mgrwt>
<rscale>  0 0.17186353E+04</rscale>
<asrwt>0</asrwt>
<pdfrwt beam="1">  1        1 0.11151235E+00 0.17186353E+04</pdfrwt>
<pdfrwt beam="2">  1       -1 0.15673204E+00 0.17186353E+04</pdfrwt>
<totfact> 0.75947117E+00</totfact>
</mgrwt>
</event>
<event>
 6    1  0.2091739E-005  0.1754214E+04  0.7818608E-02  0.8731034E-01
          2   -1    0    0  501    0  0.00000000000E+00  0.00000000000E+00  0.18064884411E+04  0.18064884411E+04  0.00000000000E+00 0. -1.
         -2   -1    0    0    0  501 -0.00000000000E+00 -0.00000000000E+00 -0.42586321213E+03  0.42586321213E+03  0.00000000000E+00 0.  1.
         23    2    1    2    0    0 -0.16781902873E+02 -0.75006927022E+03  0.11975588577E+03  0.76515124327E+03  0.90716098355E+02 0.  0.
         11    1    3    3    0    0 -0.24710057955E+02 -0.32623915359E+03  0.10263262651E+02  0.32733454883E+03  0.00000000000E+00 0. -1.
        -11    1    3    3    0    0  0.79281550819E+01 -0.42383011664E+03  0.10949262312E+03  0.43781669444E+03  0.00000000000E+00 0.  1.
         22    1    1    2    0    0  0.16781902873E+02  0.75006927022E+03  0.12608693432E+04  0.14672004100E+04  0.00000000000E+00 0. -1.
<mgrwt>
<rscale>  0 0.17542143E+04</rscale>
<asrwt>0</asrwt>
<pdfrwt beam="1">  1        2 0.27792129E+00 0.17542143E+04</pdfrwt>
<pdfrwt beam="2">  1       -2 0.65517418E-01 0.17542143E+04</pdfrwt>
<totfact> 0.17400117E+01</totfact>
</mgrwt>
</event>
<event>
 6    1  0.1831439E-005  0.1702903E+04  0.7818608E-02  0.8759710E-01
          1   -1    0    0  501    0  0.00000000000E+00  0.00000000000E+00  0.16435314235E+04  0.16435314235E+04  0.00000000000E+00 0. -1.
         -1   -1    0    0    0  501 -0.00000000000E+00 -0.00000000000E+00 -0.44110494432E+03  0.44110494432E+03  0.00000000000E+00 0.  1.
         23    2    1    2    0    0  0.30981827485E+03  0.75985264201E+03  0.33568751548E+03  0.89107035281E+03  0.89201259014E+02 0.  0.
         11    1    3    3    0    0  0.25196471771E+03  0.64743161452E+03  0.31557217897E+03  0.76304633842E+03  0.00000000000E+00 0.  1.
        -11    1    3    3    0    0  0.57853557144E+02  0.11242102749E+03  0.20115336513E+02  0.12802401438E+03  0.00000000000E+00 0. -1.
         22    1    1    2    0    0 -0.30981827485E+03 -0.75985264201E+03  0.86673896370E+03  0.11935660150E+04  0.00000000000E+00 0. -1.
<mgrwt>
<rscale>  0 0.17029032E+04</rscale>
<asrwt>0</asrwt>
<pdfrwt beam="1">  1        1 0.25285099E+00 0.17029032E+04</pdfrwt>
<pdfrwt beam="2">  1       -1 0.67862300E-01 0.17029032E+04</pdfrwt>
<totfact> 0.10895843E+01</totfact>
</mgrwt>
</event>
<event>
 6    1  0.1831439E-005  0.1504699E+04  0.7818608E-02  0.8881334E-01
          1   -1    0    0  501    0  0.00000000000E+00  0.00000000000E+00  0.23559697681E+04  0.23559697681E+04  0.00000000000E+00 0. -1.
         -1   -1    0    0    0  501 -0.00000000000E+00 -0.00000000000E+00 -0.24025337447E+03  0.24025337447E+03  0.00000000000E+00 0.  1.
         23    2    1    2    0    0 -0.13224317553E+03 -0.23683344734E+03  0.22674421766E+04  0.22854192615E+04  0.90933146566E+02 0.  0.
         13    1    3    3    0    0 -0.11269818376E+03 -0.11674953656E+03  0.11548115597E+04  0.11661565390E+04  0.00000000000E+00 0. -1.
        -13    1    3    3    0    0 -0.19544991771E+02 -0.12008391079E+03  0.11126306169E+04  0.11192627225E+04  0.00000000000E+00 0.  1.
         22    1    1    2    0    0  0.13224317553E+03  0.23683344734E+03 -0.15172578302E+03  0.31080388107E+03  0.00000000000E+00 0.  1.
<mgrwt>
<rscale>  0 0.15046989E+04</rscale>
<asrwt>0</asrwt>
<pdfrwt beam="1">  1        1 0.36245687E+00 0.15046989E+04</pdfrwt>
<pdfrwt beam="2">  1       -1 0.36962059E-01 0.15046989E+04</pdfrwt>
<totfact> 0.11607793E+01</totfact>
</mgrwt>
</event>
<event>
 6    1  0.1831439E-005  0.2629530E+04  0.7818608E-02  0.8358239E-01
          2   -1    0    0  501    0  0.00000000000E+00  0.00000000000E+00  0.14702266647E+04  0.14702266647E+04  0.00000000000E+00 0. -1.
         -2   -1    0    0    0  501 -0.00000000000E+00 -0.00000000000E+00 -0.11757418828E+04  0.11757418828E+04  0.00000000000E+00 0.  1.
         23    2    1    2    0    0 -0.92257940103E+03  0.38457537155E+03 -0.70970211017E+03  0.12291261843E+04  0.89571894356E+02 0.  0.
         11    1    3    3    0    0 -0.67896944540E+03  0.29804478398E+03 -0.57001716879E+03  0.93528058557E+03  0.00000000000E+00 0.  1.
        -11    1    3    3    0    0 -0.24360995563E+03  0.86530587568E+02 -0.13968494139E+03  0.29384559877E+03  0.00000000000E+00 0. -1.
         22    1    1    2    0    0  0.92257940103E+03 -0.38457537155E+03  0.10041868922E+04  0.14168423631E+04  0.00000000000E+00 0. -1.
<mgrwt>
<rscale>  0 0.26295300E+04</rscale>
<asrwt>0</asrwt>
<pdfrwt beam="1">  1        2 0.22618872E+00 0.26295300E+04</pdfrwt>
<pdfrwt beam="2">  1       -2 0.18088337E+00 0.26295300E+04</pdfrwt>
<totfact> 0.20822970E+00</totfact>
</mgrwt>
</event>
<event>
 6    1  0.1831439E-005  0.4755260E+04  0.7818608E-02  0.7867411E-01
         -1   -1    0    0    0  501 -0.00000000000E+00  0.00000000000E+00  0.14880641312E+04  0.14880641312E+04  0.00000000000E+00 0.  1.
          1   -1    0    0  501    0  0.00000000000E+00 -0.00000000000E+00 -0.37989785685E+04  0.37989785685E+04  0.00000000000E+00 0. -1.
         23    2    1    2    0    0 -0.26510021192E+03  0.14203515867E+04  0.94230958833E+03  0.17273877566E+04  0.90798399676E+02 0.  0.
         13    1    3    3    0    0 -0.12822103063E+03  0.85208987929E+03  0.52227422848E+03  0.10076051632E+04  0.00000000000E+00 0.  1.
        -13    1    3    3    0    0 -0.13687918129E+03  0.56826170738E+03  0.42003535985E+03  0.71978259347E+03  0.00000000000E+00 0. -1.
         22    1    1    2    0    0  0.26510021192E+03 -0.14203515867E+04 -0.32532240256E+04  0.35596549430E+04  0.00000000000E+00 0. -1.
<mgrwt>
<rscale>  0 0.47552597E+04</rscale>
<asrwt>0</asrwt>
<pdfrwt beam="1">  1        1 0.58445823E+00 0.47552597E+04</pdfrwt>
<pdfrwt beam="2">  1       -1 0.22893295E+00 0.47552597E+04</pdfrwt>
<totfact> 0.10061248E-02</totfact>
</mgrwt>
</event>
<event>
 6    1  0.1831439E-005  0.3264791E+04  0.7818608E-02  0.8171913E-01
         -1   -1    0    0    0  501 -0.00000000000E+00  0.00000000000E+00  0.84162578328E+03  0.84162578328E+03  0.00000000000E+00 0.  1.
          1   -1    0    0  501    0  0.00000000000E+00 -0.00000000000E+00 -0.31661514136E+04  0.31661514136E+04  0.00000000000E+00 0. -1.
         23    2    1    2    0    0  0.97613564927E+03 -0.52657986020E+03 -0.26313467529E+04  0.28570094721E+04  0.91598225852E+02 0.  0.
         11    1    3    3    0    0  0.81697956619E+03 -0.40067257374E+03 -0.21557965599E+04  0.23399685747E+04  0.00000000000E+00 0. -1.
        -11    1    3    3    0    0  0.15915608308E+03 -0.12590728645E+03 -0.47555019298E+03  0.51704089742E+03  0.00000000000E+00 0.  1.
         22    1    1    2    0    0 -0.97613564927E+03  0.52657986020E+03  0.30682112261E+03  0.11507677247E+04  0.00000000000E+00 0.  1.
<mgrwt>
<rscale>  0 0.32647908E+04</rscale>
<asrwt>0</asrwt>
<pdfrwt beam="1">  1        1 0.48710022E+00 0.32647908E+04</pdfrwt>
<pdfrwt beam="2">  1       -1 0.12948089E+00 0.32647908E+04</pdfrwt>
<totfact> 0.19189264E-01</totfact>
</mgrwt>
</event>
<event>
 6    1  0.1831439E-005  0.4828723E+04  0.7818608E-02  0.7855485E-01
         -2   -1    0    0    0  501 -0.00000000000E+00  0.00000000000E+00  0.24512295190E+04  0.24512295190E+04  0.00000000000E+00 0. -1.
          2   -1    0    0  501    0  0.00000000000E+00 -0.00000000000E+00 -0.23780476912E+04  0.23780476912E+04  0.00000000000E+00 0.  1.
         23    2    1    2    0    0  0.94358319610E+03 -0.89781801161E+03  0.20689320955E+04  0.24461184743E+04  0.81173543867E+02 0.  0.
         13    1    3    3    0    0  0.73989613492E+03 -0.74398331296E+03  0.16373427406E+04  0.19446975884E+04  0.00000000000E+00 0. -1.
        -13    1    3    3    0    0  0.20368706118E+03 -0.15383469865E+03  0.43158935497E+03  0.50142088581E+03  0.00000000000E+00 0.  1.
         22    1    1    2    0    0 -0.94358319610E+03  0.89781801161E+03 -0.19957502677E+04  0.23831587360E+04  0.00000000000E+00 0.  1.
<mgrwt>
<rscale>  0 0.48287227E+04</rscale>
<asrwt>0</asrwt>
<pdfrwt beam="1">  1        2 0.36585349E+00 0.48287227E+04</pdfrwt>
<pdfrwt beam="2">  1       -2 0.37711223E+00 0.48287227E+04</pdfrwt>
<totfact> 0.31569320E-02</totfact>
</mgrwt>
</event>
<event>
 6    1  0.1831439E-005  0.3556633E+04  0.7818608E-02  0.8100498E-01
          1   -1    0    0  501    0  0.00000000000E+00  0.00000000000E+00  0.13904797796E+04  0.13904797796E+04  0.00000000000E+00 0. -1.
         -1   -1    0    0    0  501 -0.00000000000E+00 -0.00000000000E+00 -0.22743296554E+04  0.22743296554E+04  0.00000000000E+00 0.  1.
         23    2    1    2    0    0 -0.30306402282E+03 -0.14184547007E+04  0.61577271869E+03  0.15784898368E+04  0.92696191620E+02 0.  0.
         11    1    3    3    0    0 -0.49566741366E+02 -0.11038657465E+03  0.53504772210E+02  0.13230577600E+03  0.00000000000E+00 0.  1.
        -11    1    3    3    0    0 -0.25349728146E+03 -0.13080681261E+04  0.56226794648E+03  0.14461840608E+04  0.00000000000E+00 0. -1.
         22    1    1    2    0    0  0.30306402282E+03  0.14184547007E+04 -0.14996225945E+04  0.20863195982E+04  0.00000000000E+00 0.  1.
<mgrwt>
<rscale>  0 0.35566329E+04</rscale>
<asrwt>0</asrwt>
<pdfrwt beam="1">  1        1 0.21391997E+00 0.35566329E+04</pdfrwt>
<pdfrwt beam="2">  1       -1 0.34989687E+00 0.35566329E+04</pdfrwt>
<totfact> 0.98547428E-02</totfact>
</mgrwt>
</event>
<event>
 6    1  0.1831439E-005  0.1497838E+04  0.7818608E-02  0.8885892E-01
          2   -1    0    0  501    0  0.00000000000E+00  0.00000000000E+00  0.81728246622E+03  0.81728246622E+03  0.00000000000E+00 0. -1.
         -2   -1    0    0    0  501 -0.00000000000E+00 -0.00000000000E+00 -0.68627397255E+03  0.68627397255E+03  0.00000000000E+00 0.  1.
         23    2    1    2    0    0  0.19526952497E+03  0.48481769904E+03 -0.46887631239E+03  0.70791822373E+03  0.90137819430E+02 0.  0.
         13    1    3    3    0    0  0.12943100265E+03  0.20417707928E+03 -0.22715146564E+03  0.33172044329E+03  0.00000000000E+00 0.  1.
        -13    1    3    3    0    0  0.65838522322E+02  0.28064061975E+03 -0.24172484674E+03  0.37619778044E+03  0.00000000000E+00 0. -1.
         22    1    1    2    0    0 -0.19526952497E+03 -0.48481769904E+03  0.59988480606E+03  0.79563821503E+03  0.00000000000E+00 0. -1.
<mgrwt>
<rscale>  0 0.14978380E+04</rscale>
<asrwt>0</asrwt>
<pdfrwt beam="1">  1        2 0.12573577E+00 0.14978380E+04</pdfrwt>
<pdfrwt beam="2">  1       -2 0.10558061E+00 0.14978380E+04</pdfrwt>
<totfact> 0.23468846E+01</totfact>
</mgrwt>
</event>
<event>
 6    1  0.1831439E-005  0.2758764E+04  0.7818608E-02  0.8316186E-01
         -2   -1    0    0    0  501 -0.00000000000E+00  0.00000000000E+00  0.12083427217E+04  0.12083427217E+04  0.00000000000E+00 0.  1.
          2   -1    0    0  501    0  0.00000000000E+00 -0.00000000000E+00 -0.15746315285E+04  0.15746315285E+04  0.00000000000E+00 0. -1.
         23    2    1    2    0    0  0.23296350782E+03  0.24110627033E+03 -0.15315467634E+04  0.15704437000E+04  0.90849859102E+02 0.  0.
         13    1    3    3    0    0  0.93233055089E+02  0.55012026312E+02 -0.63642667765E+03  0.64556768942E+03  0.00000000000E+00 0. -1.
        -13    1    3    3    0    0  0.13973045273E+03  0.18609424402E+03 -0.89512008576E+03  0.92487601062E+03  0.00000000000E+00 0.  1.
         22    1    1    2    0    0 -0.23296350782E+03 -0.24110627033E+03  0.11652579566E+04  0.12125305501E+04  0.00000000000E+00 0.  1.
<mgrwt>
<rscale>  0 0.27587639E+04</rscale>
<asrwt>0</asrwt>
<pdfrwt beam="1">  1        2 0.24225100E+00 0.27587639E+04</pdfrwt>
<pdfrwt beam="2">  1       -2 0.18589888E+00 0.27587639E+04</pdfrwt>
<totfact> 0.16623656E+00</totfact>
</mgrwt>
</event>
<event>
 6    1  0.1831439E-005  0.1785698E+04  0.7818608E-02  0.8713942E-01
          1   -1    0    0  501    0  0.00000000000E+00  0.00000000000E+00  0.16938052569E+04  0.16938052569E+04  0.00000000000E+00 0. -1.
         -1   -1    0    0    0  501 -0.00000000000E+00 -0.00000000000E+00 -0.47064396782E+03  0.47064396782E+03  0.00000000000E+00 0.  1.
         23    2    1    2    0    0  0.53601433357E+03  0.37206511033E+03  0.13476800006E+04  0.15001836742E+04  0.92551931730E+02 0.  0.
         11    1    3    3    0    0  0.16736255556E+03  0.16441168831E+03  0.52660687272E+03  0.57650344895E+03  0.00000000000E+00 0. -1.
        -11    1    3    3    0    0  0.36865177801E+03  0.20765342202E+03  0.82107312791E+03  0.92368022523E+03  0.00000000000E+00 0.  1.
         22    1    1    2    0    0 -0.53601433357E+03 -0.37206511033E+03 -0.12451871155E+03  0.66426555054E+03  0.00000000000E+00 0.  1.
<mgrwt>
<rscale>  0 0.17856979E+04</rscale>
<asrwt>0</asrwt>
<pdfrwt beam="1">  1        1 0.26058542E+00 0.17856979E+04</pdfrwt>
<pdfrwt beam="2">  1       -1 0.72406765E-01 0.17856979E+04</pdfrwt>
<totfact> 0.87475855E+00</totfact>
</mgrwt>
</event>
<event>
 6    1  0.1831439E-005  0.3000481E+04  0.7818608E-02  0.8243594E-01
         -1   -1    0    0    0  501 -0.00000000000E+00  0.00000000000E+00  0.14662886544E+04  0.14662886544E+04  0.00000000000E+00 0. -1.
          1   -1    0    0  501    0  0.00000000000E+00 -0.00000000000E+00 -0.15349785249E+04  0.15349785249E+04  0.00000000000E+00 0.  1.
         23    2    1    2    0    0 -0.38956774023E+03 -0.31213463979E+03  0.13792860878E+04  0.14696584064E+04  0.90965168072E+02 0.  0.
         11    1    3    3    0    0 -0.19871621216E+03 -0.11149852827E+03  0.69784948476E+03  0.73410759304E+03  0.00000000000E+00 0.  1.
        -11    1    3    3    0    0 -0.19085152807E+03 -0.20063611152E+03  0.68143660308E+03  0.73555081336E+03  0.00000000000E+00 0. -1.
         22    1    1    2    0    0  0.38956774023E+03  0.31213463979E+03 -0.14479759583E+04  0.15316087730E+04  0.00000000000E+00 0.  1.
<mgrwt>
<rscale>  0 0.30004810E+04</rscale>
<asrwt>0</asrwt>
<pdfrwt beam="1">  1        1 0.23615054E+00 0.30004810E+04</pdfrwt>
<pdfrwt beam="2">  1       -1 0.22558287E+00 0.30004810E+04</pdfrwt>
<totfact> 0.53175279E-01</totfact>
</mgrwt>
</event>
<event>
 6    1  0.1831439E-005  0.1781214E+04  0.7818608E-02  0.8716354E-01
          2   -1    0    0  501    0  0.00000000000E+00  0.00000000000E+00  0.13162871663E+04  0.13162871663E+04  0.00000000000E+00 0. -1.
         -2   -1    0    0    0  501 -0.00000000000E+00 -0.00000000000E+00 -0.60258963941E+03  0.60258963941E+03  0.00000000000E+00 0.  1.
         23    2    1    2    0    0  0.71606919155E+03 -0.29160395140E+03  0.82474628624E+03  0.11377751615E+04  0.12859988327E+03 0.  0.
         13    1    3    3    0    0  0.33591236250E+03 -0.67992478616E+02  0.35669165174E+03  0.49466051677E+03  0.00000000000E+00 0. -1.
        -13    1    3    3    0    0  0.38015682905E+03 -0.22361147278E+03  0.46805463450E+03  0.64311464476E+03  0.00000000000E+00 0.  1.
         22    1    1    2    0    0 -0.71606919155E+03  0.29160395140E+03 -0.11104875936E+03  0.78110164416E+03  0.00000000000E+00 0.  1.
<mgrwt>
<rscale>  0 0.17812142E+04</rscale>
<asrwt>0</asrwt>
<pdfrwt beam="1">  1        2 0.20250572E+00 0.17812142E+04</pdfrwt>
<pdfrwt beam="2">  1       -2 0.92706099E-01 0.17812142E+04</pdfrwt>
<totfact> 0.15090477E+01</totfact>
</mgrwt>
</event>
<event>
 6    1  0.1831439E-005  0.4131997E+04  0.7818608E-02  0.7978435E-01
         -2   -1    0    0    0  501 -0.00000000000E+00  0.00000000000E+00  0.14415024919E+04  0.14415024919E+04  0.00000000000E+00 0.  1.
          2   -1    0    0  501    0  0.00000000000E+00 -0.00000000000E+00 -0.29610427511E+04  0.29610427511E+04  0.00000000000E+00 0. -1.
         23    2    1    2    0    0 -0.12463600178E+04  0.32973799488E+02 -0.25140329153E+04  0.28077047468E+04  0.91344843270E+02 0.  0.
         13    1    3    3    0    0 -0.34744545938E+03 -0.27655934302E+02 -0.74202788088E+03  0.81981008408E+03  0.00000000000E+00 0.  1.
        -13    1    3    3    0    0 -0.89891455846E+03  0.60629733790E+02 -0.17720050344E+04  0.19878946627E+04  0.00000000000E+00 0. -1.
         22    1    1    2    0    0  0.12463600178E+04 -0.32973799488E+02  0.99449265609E+03  0.15948404963E+04  0.00000000000E+00 0.  1.
<mgrwt>
<rscale>  0 0.41319973E+04</rscale>
<asrwt>0</asrwt>
<pdfrwt beam="1">  1        2 0.45554504E+00 0.41319973E+04</pdfrwt>
<pdfrwt beam="2">  1       -2 0.22176961E+00 0.41319973E+04</pdfrwt>
<totfact> 0.13837773E-01</totfact>
</mgrwt>
</event>
<event>
 6    1  0.1831439E-005  0.1256833E+04  0.7818608E-02  0.9064515E-01
         -2   -1    0    0    0  501 -0.00000000000E+00  0.00000000000E+00  0.58767015403E+03  0.58767015403E+03  0.00000000000E+00 0.  1.
          2   -1    0    0  501    0  0.00000000000E+00 -0.00000000000E+00 -0.67198786053E+03  0.67198786053E+03  0.00000000000E+00 0. -1.
         23    2    1    2    0    0  0.55651138833E+03  0.27738155905E+03 -0.10762173524E+03  0.63741326175E+03  0.89820786617E+02 0.  0.
         13    1    3    3    0    0  0.78939831635E+02  0.24252911517E+02  0.13030309633E+02  0.83603168031E+02  0.00000000000E+00 0. -1.
        -13    1    3    3    0    0  0.47757155670E+03  0.25312864754E+03 -0.12065204488E+03  0.55381009372E+03  0.00000000000E+00 0.  1.
         22    1    1    2    0    0 -0.55651138833E+03 -0.27738155905E+03  0.23304028742E+02  0.62224475281E+03  0.00000000000E+00 0. -1.
<mgrwt>
<rscale>  0 0.12568329E+04</rscale>
<asrwt>0</asrwt>
<pdfrwt beam="1">  1        2 0.10338275E+00 0.12568329E+04</pdfrwt>
<pdfrwt beam="2">  1       -2 0.90410793E-01 0.12568329E+04</pdfrwt>
<totfact> 0.44363773E+01</totfact>
</mgrwt>
</event>
<event>
 6    1  0.1831439E-005  0.2412649E+04  0.7818608E-02  0.8434783E-01
         -1   -1    0    0    0  501 -0.00000000000E+00  0.00000000000E+00  0.15009379142E+04  0.15009379142E+04  0.00000000000E+00 0.  1.
          1   -1    0    0  501    0  0.00000000000E+00 -0.00000000000E+00 -0.96953940134E+03  0.96953940134E+03  0.00000000000E+00 0. -1.
         23    2    1    2    0    0  0.68561119949E+02  0.80323450869E+03 -0.65039418466E+03  0.10399108952E+04  0.92280937131E+02 0.  0.
         13    1    3    3    0    0  0.87131412144E+02  0.73621792804E+03 -0.58381408721E+03  0.94363531567E+03  0.00000000000E+00 0.  1.
        -13    1    3    3    0    0 -0.18570292196E+02  0.67016580648E+02 -0.66580097450E+02  0.96275579512E+02  0.00000000000E+00 0. -1.
         22    1    1    2    0    0 -0.68561119949E+02 -0.80323450869E+03  0.11817926975E+04  0.14305664203E+04  0.00000000000E+00 0.  1.
<mgrwt>
<rscale>  0 0.24126487E+04</rscale>
<asrwt>0</asrwt>
<pdfrwt beam="1">  1        1 0.14915991E+00 0.24126487E+04</pdfrwt>
<pdfrwt beam="2">  1       -1 0.23091353E+00 0.24126487E+04</pdfrwt>
<totfact> 0.13323469E+00</totfact>
</mgrwt>
</event>
<event>
 6    1  0.1831439E-005  0.1908895E+04  0.7818608E-02  0.8650441E-01
         -4   -1    0    0    0  501 -0.00000000000E+00  0.00000000000E+00  0.65746919910E+03  0.65746919910E+03  0.00000000000E+00 0. -1.
          4   -1    0    0  501    0  0.00000000000E+00 -0.00000000000E+00 -0.13855713211E+04  0.13855713211E+04  0.00000000000E+00 0.  1.
         23    2    1    2    0    0 -0.13979458969E+03 -0.61290451418E+03 -0.11304831053E+04  0.12966459018E+04  0.90022622206E+02 0.  0.
         11    1    3    3    0    0 -0.49848991002E+02 -0.11221602525E+03 -0.27815917628E+03  0.30405572774E+03  0.00000000000E+00 0. -1.
        -11    1    3    3    0    0 -0.89945598690E+02 -0.50068848893E+03 -0.85232392899E+03  0.99259017404E+03  0.00000000000E+00 0.  1.
         22    1    1    2    0    0  0.13979458969E+03  0.61290451418E+03  0.40238098322E+03  0.74639461846E+03  0.00000000000E+00 0. -1.
<mgrwt>
<rscale>  0 0.19088955E+04</rscale>
<asrwt>0</asrwt>
<pdfrwt beam="1">  1        4 0.21316482E+00 0.19088955E+04</pdfrwt>
<pdfrwt beam="2">  1       -4 0.10114911E+00 0.19088955E+04</pdfrwt>
<totfact> 0.16236990E-01</totfact>
</mgrwt>
</event>
<event>
 6    1  0.1831439E-005  0.4105180E+04  0.7818608E-02  0.7983658E-01
          1   -1    0    0  501    0  0.00000000000E+00  0.00000000000E+00  0.22310365389E+04  0.22310365389E+04  0.00000000000E+00 0. -1.
         -1   -1    0    0    0  501 -0.00000000000E+00 -0.00000000000E+00 -0.18884164527E+04  0.18884164527E+04  0.00000000000E+00 0.  1.
         23    2    1    2    0    0  0.99501400206E+02  0.16664513547E+04 -0.10252314869E+04  0.19612179321E+04  0.91189523396E+02 0.  0.
         11    1    3    3    0    0  0.42143415739E+02  0.88544780938E+03 -0.49237286105E+03  0.10140142627E+04  0.00000000000E+00 0. -1.
        -11    1    3    3    0    0  0.57357984467E+02  0.78100354528E+03 -0.53285862585E+03  0.94720366937E+03  0.00000000000E+00 0.  1.
         22    1    1    2    0    0 -0.99501400206E+02 -0.16664513547E+04  0.13678515731E+04  0.21582350595E+04  0.00000000000E+00 0. -1.
<mgrwt>
<rscale>  0 0.41051802E+04</rscale>
<asrwt>0</asrwt>
<pdfrwt beam="1">  1        1 0.34323639E+00 0.41051802E+04</pdfrwt>
<pdfrwt beam="2">  1       -1 0.29052561E+00 0.41051802E+04</pdfrwt>
<totfact> 0.61246737E-02</totfact>
</mgrwt>
</event>
<event>
 6    1  0.2560344E-005  0.4116074E+04  0.7818608E-02  0.7981532E-01
         -2   -1    0    0    0  501 -0.00000000000E+00  0.00000000000E+00  0.15680273580E+04  0.15680273580E+04  0.00000000000E+00 0.  1.
          2   -1    0    0  501    0  0.00000000000E+00 -0.00000000000E+00 -0.27011747201E+04  0.27011747201E+04  0.00000000000E+00 0. -1.
         23    2    1    2    0    0  0.28093782109E+03 -0.15129310066E+04  0.84920169866E+03  0.17597013133E+04  0.86711573765E+02 0.  0.
         11    1    3    3    0    0  0.16452247881E+03 -0.10892614085E+04  0.62121124641E+03  0.12646981753E+04  0.00000000000E+00 0.  1.
        -11    1    3    3    0    0  0.11641534228E+03 -0.42366959812E+03  0.22799045225E+03  0.49500313798E+03  0.00000000000E+00 0. -1.
         22    1    1    2    0    0 -0.28093782109E+03  0.15129310066E+04 -0.19823490607E+04  0.25095007648E+04  0.00000000000E+00 0. -1.
<mgrwt>
<rscale>  0 0.41160738E+04</rscale>
<asrwt>0</asrwt>
<pdfrwt beam="1">  1        2 0.41556534E+00 0.41160738E+04</pdfrwt>
<pdfrwt beam="2">  1       -2 0.24123498E+00 0.41160738E+04</pdfrwt>
<totfact> 0.15078556E-01</totfact>
</mgrwt>
</event>
<event>
 6    1  0.1831439E-005  0.4248965E+04  0.7818608E-02  0.7956123E-01
         -1   -1    0    0    0  501 -0.00000000000E+00  0.00000000000E+00  0.15347760034E+04  0.15347760034E+04  0.00000000000E+00 0.  1.
          1   -1    0    0  501    0  0.00000000000E+00 -0.00000000000E+00 -0.29407715464E+04  0.29407715464E+04  0.00000000000E+00 0. -1.
         23    2    1    2    0    0 -0.10686418952E+04 -0.13475340928E+04  0.60862179958E+03  0.18266748331E+04  0.92069644701E+02 0.  0.
         11    1    3    3    0    0 -0.57595768659E+03 -0.78401382651E+03  0.37384184142E+03  0.10421912777E+04  0.00000000000E+00 0. -1.
        -11    1    3    3    0    0 -0.49268420862E+03 -0.56352026634E+03  0.23477995817E+03  0.78448355544E+03  0.00000000000E+00 0.  1.
         22    1    1    2    0    0  0.10686418952E+04  0.13475340928E+04 -0.20146173426E+04  0.26488727166E+04  0.00000000000E+00 0.  1.
<mgrwt>
<rscale>  0 0.42489649E+04</rscale>
<asrwt>0</asrwt>
<pdfrwt beam="1">  1        1 0.45242638E+00 0.42489649E+04</pdfrwt>
<pdfrwt beam="2">  1       -1 0.23611939E+00 0.42489649E+04</pdfrwt>
<totfact> 0.43518848E-02</totfact>
</mgrwt>
</event>
<event>
 6    1  0.1831439E-005  0.1181765E+04  0.7818608E-02  0.9128969E-01
         -2   -1    0    0    0  501 -0.00000000000E+00  0.00000000000E+00  0.24978389723E+03  0.24978389723E+03  0.00000000000E+00 0.  1.
          2   -1    0    0  501    0  0.00000000000E+00 -0.00000000000E+00 -0.13977763025E+04  0.13977763025E+04  0.00000000000E+00 0. -1.
         23    2    1    2    0    0  0.91687398869E+02  0.38269951796E+03 -0.11853189692E+04  0.12522643959E+04  0.91211612073E+02 0.  0.
         13    1    3    3    0    0 -0.12584468923E+02  0.55191001773E+02 -0.23430987982E+03  0.24105089777E+03  0.00000000000E+00 0. -1.
        -13    1    3    3    0    0  0.10427186779E+03  0.32750851619E+03 -0.95100908941E+03  0.10112134981E+04  0.00000000000E+00 0.  1.
         22    1    1    2    0    0 -0.91687398869E+02 -0.38269951796E+03  0.37326563979E+02  0.39529580384E+03  0.00000000000E+00 0.  1.
<mgrwt>
<rscale>  0 0.11817648E+04</rscale>
<asrwt>0</asrwt>
<pdfrwt beam="1">  1        2 0.21504251E+00 0.11817648E+04</pdfrwt>
<pdfrwt beam="2">  1       -2 0.38428292E-01 0.11817648E+04</pdfrwt>
<totfact> 0.91642057E+01</totfact>
</mgrwt>
</event>
<event>
 6    1  0.1831439E-005  0.1349900E+04  0.7818608E-02  0.8990904E-01
         -2   -1    0    0    0  501 -0.00000000000E+00  0.00000000000E+00  0.57403350937E+03  0.57403350937E+03  0.00000000000E+00 0. -1.
          2   -1    0    0  501    0  0.00000000000E+00 -0.00000000000E+00 -0.79360791746E+03  0.79360791746E+03  0.00000000000E+00 0.  1.
         23    2    1    2    0    0 -0.40978792442E+03 -0.28457526044E+03 -0.56636996353E+03  0.76004256318E+03  0.89333870399E+02 0.  0.
         13    1    3    3    0    0 -0.72627538645E+02 -0.96402677900E+02 -0.13153364189E+03  0.17851984378E+03  0.00000000000E+00 0.  1.
        -13    1    3    3    0    0 -0.33716038577E+03 -0.18817258254E+03 -0.43483632164E+03  0.58152271939E+03  0.00000000000E+00 0. -1.
         22    1    1    2    0    0  0.40978792442E+03  0.28457526044E+03  0.34679555544E+03  0.60759886366E+03  0.00000000000E+00 0. -1.
<mgrwt>
<rscale>  0 0.13499001E+04</rscale>
<asrwt>0</asrwt>
<pdfrwt beam="1">  1        2 0.12209353E+00 0.13499001E+04</pdfrwt>
<pdfrwt beam="2">  1       -2 0.88312848E-01 0.13499001E+04</pdfrwt>
<totfact> 0.37555124E+01</totfact>
</mgrwt>
</event>
<event>
 6    1  0.1831439E-005  0.1631188E+04  0.7818608E-02  0.8801614E-01
         -1   -1    0    0    0  501 -0.00000000000E+00  0.00000000000E+00  0.42009951455E+03  0.42009951455E+03  0.00000000000E+00 0.  1.
          1   -1    0    0  501    0  0.00000000000E+00 -0.00000000000E+00 -0.15834193645E+04  0.15834193645E+04  0.00000000000E+00 0. -1.
         23    2    1    2    0    0  0.45797006027E+03 -0.28951712006E+03  0.16148152028E+03  0.57220640113E+03  0.88244802584E+02 0.  0.
         13    1    3    3    0    0  0.19614386124E+03 -0.15671008919E+03  0.38874606395E+02  0.25405058823E+03  0.00000000000E+00 0. -1.
        -13    1    3    3    0    0  0.26182619903E+03 -0.13280703087E+03  0.12260691389E+03  0.31815581290E+03  0.00000000000E+00 0.  1.
         22    1    1    2    0    0 -0.45797006027E+03  0.28951712006E+03 -0.13248013703E+04  0.14313124780E+04  0.00000000000E+00 0. -1.
<mgrwt>
<rscale>  0 0.16311882E+04</rscale>
<asrwt>0</asrwt>
<pdfrwt beam="1">  1        1 0.24360298E+00 0.16311882E+04</pdfrwt>
<pdfrwt beam="2">  1       -1 0.64630694E-01 0.16311882E+04</pdfrwt>
<totfact> 0.13308358E+01</totfact>
</mgrwt>
</event>
<event>
 6    1  0.1831439E-005  0.3834460E+04  0.7818608E-02  0.8038800E-01
         -4   -1    0    0    0  501 -0.00000000000E+00  0.00000000000E+00  0.30739752498E+04  0.30739752498E+04  0.00000000000E+00 0.  1.
          4   -1    0    0  501    0  0.00000000000E+00 -0.00000000000E+00 -0.11957709478E+04  0.11957709478E+04  0.00000000000E+00 0. -1.
         23    2    1    2    0    0 -0.43897084144E+02 -0.12748446858E+04  0.25317660638E+04  0.28364636352E+04  0.92361382832E+02 0.  0.
         11    1    3    3    0    0 -0.46090784776E+02 -0.39708921274E+03  0.85539415938E+03  0.94419456216E+03  0.00000000000E+00 0. -1.
        -11    1    3    3    0    0  0.21937006326E+01 -0.87775547308E+03  0.16763719045E+04  0.18922690731E+04  0.00000000000E+00 0.  1.
         22    1    1    2    0    0  0.43897084144E+02  0.12748446858E+04 -0.65356176191E+03  0.14332825624E+04  0.00000000000E+00 0. -1.
<mgrwt>
<rscale>  0 0.38344597E+04</rscale>
<asrwt>0</asrwt>
<pdfrwt beam="1">  1        4 0.18396476E+00 0.38344597E+04</pdfrwt>
<pdfrwt beam="2">  1       -4 0.47291927E+00 0.38344597E+04</pdfrwt>
<totfact> 0.52291296E-04</totfact>
</mgrwt>
</event>
<event>
 6    1  0.1831439E-005  0.2162875E+04  0.7818608E-02  0.8534041E-01
         -2   -1    0    0    0  501 -0.00000000000E+00  0.00000000000E+00  0.60163347723E+03  0.60163347723E+03  0.00000000000E+00 0.  1.
          2   -1    0    0  501    0  0.00000000000E+00 -0.00000000000E+00 -0.19438861144E+04  0.19438861144E+04  0.00000000000E+00 0. -1.
         23    2    1    2    0    0 -0.98274987065E+03  0.25596030631E+03 -0.24139941157E+03  0.10477910411E+04  0.90991226625E+02 0.  0.
         11    1    3    3    0    0 -0.55139380932E+03  0.16613984168E+03 -0.96100100961E+02  0.58384313762E+03  0.00000000000E+00 0. -1.
        -11    1    3    3    0    0 -0.43135606134E+03  0.89820464624E+02 -0.14529931060E+03  0.46394790352E+03  0.00000000000E+00 0.  1.
         22    1    1    2    0    0  0.98274987065E+03 -0.25596030631E+03 -0.11008532256E+04  0.14977285505E+04  0.00000000000E+00 0. -1.
<mgrwt>
<rscale>  0 0.21628749E+04</rscale>
<asrwt>0</asrwt>
<pdfrwt beam="1">  1        2 0.29905940E+00 0.21628749E+04</pdfrwt>
<pdfrwt beam="2">  1       -2 0.92558998E-01 0.21628749E+04</pdfrwt>
<totfact> 0.65178195E+00</totfact>
</mgrwt>
</event>
<event>
 6    1  0.1831439E-005  0.8314210E+03  0.7818608E-02  0.9515618E-01
         -2   -1    0    0    0  501 -0.00000000000E+00  0.00000000000E+00  0.55354381203E+03  0.55354381203E+03  0.00000000000E+00 0.  1.
          2   -1    0    0  501    0  0.00000000000E+00 -0.00000000000E+00 -0.31219792772E+03  0.31219792772E+03  0.00000000000E+00 0. -1.
         23    2    1    2    0    0  0.40659900512E+02 -0.39618401036E+03  0.22547517482E+03  0.46716066018E+03  0.93728492903E+02 0.  0.
         11    1    3    3    0    0 -0.86726491400E+01 -0.21580358403E+03  0.80313052191E+02  0.23042696907E+03  0.00000000000E+00 0. -1.
        -11    1    3    3    0    0  0.49332549652E+02 -0.18038042633E+03  0.14516212263E+03  0.23673369111E+03  0.00000000000E+00 0.  1.
         22    1    1    2    0    0 -0.40659900512E+02  0.39618401036E+03  0.15870709479E+02  0.39858107957E+03  0.00000000000E+00 0. -1.
<mgrwt>
<rscale>  0 0.83142103E+03</rscale>
<asrwt>0</asrwt>
<pdfrwt beam="1">  1        2 0.48030450E-01 0.83142103E+03</pdfrwt>
<pdfrwt beam="2">  1       -2 0.85160586E-01 0.83142103E+03</pdfrwt>
<totfact> 0.12680318E+02</totfact>
</mgrwt>
</event>
<event>
 6    1  0.1831439E-005  0.3659167E+04  0.7818608E-02  0.8077072E-01
         -1   -1    0    0    0  501 -0.00000000000E+00  0.00000000000E+00  0.22396241145E+04  0.22396241145E+04  0.00000000000E+00 0.  1.
          1   -1    0    0  501    0  0.00000000000E+00 -0.00000000000E+00 -0.14946151391E+04  0.14946151391E+04  0.00000000000E+00 0. -1.
         23    2    1    2    0    0  0.65756074782E+03  0.24184582102E+02  0.21137251117E+04  0.22155704639E+04  0.89149319969E+02 0.  0.
         13    1    3    3    0    0  0.31730393360E+03  0.29593183488E+02  0.88660721579E+03  0.94214112419E+03  0.00000000000E+00 0. -1.
        -13    1    3    3    0    0  0.34025681422E+03 -0.54086013859E+01  0.12271178960E+04  0.12734293397E+04  0.00000000000E+00 0.  1.
         22    1    1    2    0    0 -0.65756074782E+03 -0.24184582102E+02 -0.13687161364E+04  0.15186687898E+04  0.00000000000E+00 0. -1.
<mgrwt>
<rscale>  0 0.36591672E+04</rscale>
<asrwt>0</asrwt>
<pdfrwt beam="1">  1        1 0.22994079E+00 0.36591672E+04</pdfrwt>
<pdfrwt beam="2">  1       -1 0.34455756E+00 0.36591672E+04</pdfrwt>
<totfact> 0.89642020E-02</totfact>
</mgrwt>
</event>
<event>
 6    1  0.1831439E-005  0.3956754E+04  0.7818608E-02  0.8013328E-01
          2   -1    0    0  501    0  0.00000000000E+00  0.00000000000E+00  0.29113544054E+04  0.29113544054E+04  0.00000000000E+00 0. -1.
         -2   -1    0    0    0  501 -0.00000000000E+00 -0.00000000000E+00 -0.13443831647E+04  0.13443831647E+04  0.00000000000E+00 0.  1.
         23    2    1    2    0    0  0.27299690408E+03  0.13384746202E+04  0.23214901326E+04  0.26951798567E+04  0.92932264694E+02 0.  0.
         13    1    3    3    0    0  0.11741773191E+03  0.53106629418E+03  0.10130963605E+04  0.11498619779E+04  0.00000000000E+00 0. -1.
        -13    1    3    3    0    0  0.15557917217E+03  0.80740832603E+03  0.13083937721E+04  0.15453178788E+04  0.00000000000E+00 0.  1.
         22    1    1    2    0    0 -0.27299690408E+03 -0.13384746202E+04 -0.75451889183E+03  0.15605577133E+04  0.00000000000E+00 0.  1.
<mgrwt>
<rscale>  0 0.39567541E+04</rscale>
<asrwt>0</asrwt>
<pdfrwt beam="1">  1        2 0.44790068E+00 0.39567541E+04</pdfrwt>
<pdfrwt beam="2">  1       -2 0.20682818E+00 0.39567541E+04</pdfrwt>
<totfact> 0.18777383E-01</totfact>
</mgrwt>
</event>
<event>
 6    1  0.1831439E-005  0.2327449E+04  0.7818608E-02  0.8467176E-01
          2   -1    0    0  501    0  0.00000000000E+00  0.00000000000E+00  0.31881133392E+04  0.31881133392E+04  0.00000000000E+00 0. -1.
         -2   -1    0    0    0  501 -0.00000000000E+00 -0.00000000000E+00 -0.42478247768E+03  0.42478247768E+03  0.00000000000E+00 0.  1.
         23    2    1    2    0    0 -0.48694957096E+03 -0.69430299232E+03  0.26166117491E+04  0.27522547606E+04  0.95250679272E+02 0.  0.
         11    1    3    3    0    0 -0.42904296198E+03 -0.55012674622E+03  0.21699110360E+04  0.22793049828E+04  0.00000000000E+00 0.  1.
        -11    1    3    3    0    0 -0.57906608982E+02 -0.14417624611E+03  0.44670071310E+03  0.47294977787E+03  0.00000000000E+00 0. -1.
         22    1    1    2    0    0  0.48694957096E+03  0.69430299232E+03  0.14671911242E+03  0.86064105629E+03  0.00000000000E+00 0.  1.
<mgrwt>
<rscale>  0 0.23274490E+04</rscale>
<asrwt>0</asrwt>
<pdfrwt beam="1">  1        2 0.49047896E+00 0.23274490E+04</pdfrwt>
<pdfrwt beam="2">  1       -2 0.65351152E-01 0.23274490E+04</pdfrwt>
<totfact> 0.25801796E+00</totfact>
</mgrwt>
</event>
<event>
 6    1  0.1831439E-005  0.7770940E+03  0.7818608E-02  0.9593777E-01
          2   -1    0    0  501    0  0.00000000000E+00  0.00000000000E+00  0.20288907117E+03  0.20288907117E+03  0.00000000000E+00 0. -1.
         -2   -1    0    0    0  501 -0.00000000000E+00 -0.00000000000E+00 -0.74409519514E+03  0.74409519514E+03  0.00000000000E+00 0.  1.
         23    2    1    2    0    0 -0.42582243513E+02 -0.22654011436E+03 -0.64831932721E+03  0.69280537422E+03  0.80793970295E+02 0.  0.
         11    1    3    3    0    0  0.22720161782E+02 -0.89529318059E+02 -0.25553097621E+03  0.27171268713E+03  0.00000000000E+00 0.  1.
        -11    1    3    3    0    0 -0.65302405294E+02 -0.13701079630E+03 -0.39278835100E+03  0.42109268709E+03  0.00000000000E+00 0. -1.
         22    1    1    2    0    0  0.42582243513E+02  0.22654011436E+03  0.10711320324E+03  0.25417889210E+03  0.00000000000E+00 0. -1.
<mgrwt>
<rscale>  0 0.77709403E+03</rscale>
<asrwt>0</asrwt>
<pdfrwt beam="1">  1        2 0.31213703E-01 0.77709403E+03</pdfrwt>
<pdfrwt beam="2">  1       -2 0.11447618E+00 0.77709403E+03</pdfrwt>
<totfact> 0.10228337E+02</totfact>
</mgrwt>
</event>
<event>
 6    1  0.1831439E-005  0.4974762E+04  0.7818608E-02  0.7832412E-01
         -2   -1    0    0    0  501 -0.00000000000E+00  0.00000000000E+00  0.15081009186E+04  0.15081009186E+04  0.00000000000E+00 0.  1.
          2   -1    0    0  501    0  0.00000000000E+00 -0.00000000000E+00 -0.41025536369E+04  0.41025536369E+04  0.00000000000E+00 0. -1.
         23    2    1    2    0    0  0.13037711227E+04  0.14120727252E+04 -0.30769463384E+04  0.36290974367E+04  0.94767682309E+02 0.  0.
         11    1    3    3    0    0  0.80952479891E+03  0.92186327971E+03 -0.20261542986E+04  0.23686417096E+04  0.00000000000E+00 0.  1.
        -11    1    3    3    0    0  0.49424632381E+03  0.49020944547E+03 -0.10507920398E+04  0.12604557271E+04  0.00000000000E+00 0. -1.
         22    1    1    2    0    0 -0.13037711227E+04 -0.14120727252E+04  0.48249362014E+03  0.19815571188E+04  0.00000000000E+00 0.  1.
<mgrwt>
<rscale>  0 0.49747623E+04</rscale>
<asrwt>0</asrwt>
<pdfrwt beam="1">  1        2 0.63116210E+00 0.49747623E+04</pdfrwt>
<pdfrwt beam="2">  1       -2 0.23201552E+00 0.49747623E+04</pdfrwt>
<totfact> 0.16968680E-02</totfact>
</mgrwt>
</event>
<event>
 6    1  0.1831439E-005  0.9336226E+03  0.7818608E-02  0.9384501E-01
         -2   -1    0    0    0  501 -0.00000000000E+00  0.00000000000E+00  0.16821582169E+03  0.16821582169E+03  0.00000000000E+00 0. -1.
          2   -1    0    0  501    0  0.00000000000E+00 -0.00000000000E+00 -0.12954357657E+04  0.12954357657E+04  0.00000000000E+00 0.  1.
         23    2    1    2    0    0 -0.11931203737E+03 -0.26387145358E+03 -0.11339096986E+04  0.11739823638E+04  0.92843307096E+02 0.  0.
         13    1    3    3    0    0 -0.75094633799E+02 -0.17266730143E+03 -0.89272014812E+03  0.91236092851E+03  0.00000000000E+00 0. -1.
        -13    1    3    3    0    0 -0.44217403568E+02 -0.91204152145E+02 -0.24118955052E+03  0.26162143533E+03  0.00000000000E+00 0.  1.
         22    1    1    2    0    0  0.11931203737E+03  0.26387145358E+03  0.66897545982E+01  0.28966922358E+03  0.00000000000E+00 0. -1.
<mgrwt>
<rscale>  0 0.93362260E+03</rscale>
<asrwt>0</asrwt>
<pdfrwt beam="1">  1        2 0.19929782E+00 0.93362260E+03</pdfrwt>
<pdfrwt beam="2">  1       -2 0.25879356E-01 0.93362260E+03</pdfrwt>
<totfact> 0.22405783E+02</totfact>
</mgrwt>
</event>
<event>
 6    1  0.1831439E-005  0.1633283E+04  0.7818608E-02  0.8800358E-01
         -2   -1    0    0    0  501 -0.00000000000E+00  0.00000000000E+00  0.24921847271E+03  0.24921847271E+03  0.00000000000E+00 0.  1.
          2   -1    0    0  501    0  0.00000000000E+00 -0.00000000000E+00 -0.26759780387E+04  0.26759780387E+04  0.00000000000E+00 0. -1.
         23    2    1    2    0    0  0.67276959230E+02 -0.22656544463E+03 -0.26124286986E+04  0.26246451568E+04  0.90113281059E+02 0.  0.
         11    1    3    3    0    0  0.26378116957E+02 -0.20588241741E+02 -0.68360702934E+03  0.68442548996E+03  0.00000000000E+00 0. -1.
        -11    1    3    3    0    0  0.40898842273E+02 -0.20597720289E+03 -0.19288216693E+04  0.19402196668E+04  0.00000000000E+00 0.  1.
         22    1    1    2    0    0 -0.67276959230E+02  0.22656544463E+03  0.18566913268E+03  0.30055135464E+03  0.00000000000E+00 0.  1.
<mgrwt>
<rscale>  0 0.16332828E+04</rscale>
<asrwt>0</asrwt>
<pdfrwt beam="1">  1        2 0.41168891E+00 0.16332828E+04</pdfrwt>
<pdfrwt beam="2">  1       -2 0.38341305E-01 0.16332828E+04</pdfrwt>
<totfact> 0.16914656E+01</totfact>
</mgrwt>
</event>
<event>
 6    1  0.1831439E-005  0.2366202E+04  0.7818608E-02  0.8452266E-01
          1   -1    0    0  501    0  0.00000000000E+00  0.00000000000E+00  0.22551153389E+04  0.22551153389E+04  0.00000000000E+00 0. -1.
         -1   -1    0    0    0  501 -0.00000000000E+00 -0.00000000000E+00 -0.62069023652E+03  0.62069023652E+03  0.00000000000E+00 0.  1.
         23    2    1    2    0    0  0.10774042975E+04 -0.16382875475E+03  0.26418505699E+03  0.11250349842E+04  0.90940035069E+02 0.  0.
         11    1    3    3    0    0  0.39968582119E+03 -0.16536388525E+02  0.94418625607E+02  0.41101956726E+03  0.00000000000E+00 0.  1.
        -11    1    3    3    0    0  0.67771847635E+03 -0.14729236622E+03  0.16976643139E+03  0.71401541690E+03  0.00000000000E+00 0. -1.
         22    1    1    2    0    0 -0.10774042975E+04  0.16382875475E+03  0.13702400454E+04  0.17507705913E+04  0.00000000000E+00 0.  1.
<mgrwt>
<rscale>  0 0.23662021E+04</rscale>
<asrwt>0</asrwt>
<pdfrwt beam="1">  1        1 0.34694082E+00 0.23662021E+04</pdfrwt>
<pdfrwt beam="2">  1       -1 0.95490807E-01 0.23662021E+04</pdfrwt>
<totfact> 0.18997658E+00</totfact>
</mgrwt>
</event>
<event>
 6    1  0.1831439E-005  0.6112649E+03  0.7818608E-02  0.9882307E-01
          2   -1    0    0  501    0  0.00000000000E+00  0.00000000000E+00  0.19584530172E+04  0.19584530172E+04  0.00000000000E+00 0. -1.
         -2   -1    0    0    0  501 -0.00000000000E+00 -0.00000000000E+00 -0.47696422973E+02  0.47696422973E+02  0.00000000000E+00 0.  1.
         23    2    1    2    0    0 -0.12575364582E+03 -0.13345355004E+03  0.17509667285E+04  0.17629280788E+04  0.91690223552E+02 0.  0.
         13    1    3    3    0    0 -0.12762839331E+03 -0.89854998120E+02  0.15096248571E+04  0.15176726052E+04  0.00000000000E+00 0.  1.
        -13    1    3    3    0    0  0.18747474905E+01 -0.43598551918E+02  0.24134187144E+03  0.24525547357E+03  0.00000000000E+00 0. -1.
         22    1    1    2    0    0  0.12575364582E+03  0.13345355004E+03  0.15978986569E+03  0.24322136138E+03  0.00000000000E+00 0.  1.
<mgrwt>
<rscale>  0 0.61126493E+03</rscale>
<asrwt>0</asrwt>
<pdfrwt beam="1">  1        2 0.30130040E+00 0.61126493E+03</pdfrwt>
<pdfrwt beam="2">  1       -2 0.73379127E-02 0.61126493E+03</pdfrwt>
<totfact> 0.82073399E+02</totfact>
</mgrwt>
</event>
<event>
 6    1  0.1831439E-005  0.3448423E+04  0.7818608E-02  0.8126123E-01
         -2   -1    0    0    0  501 -0.00000000000E+00  0.00000000000E+00  0.81153163616E+03  0.81153163616E+03  0.00000000000E+00 0.  1.
          2   -1    0    0  501    0  0.00000000000E+00 -0.00000000000E+00 -0.36633264386E+04  0.36633264386E+04  0.00000000000E+00 0. -1.
         23    2    1    2    0    0 -0.11649062908E+04  0.12577924971E+04 -0.16504074313E+04  0.23814445352E+04  0.91568294492E+02 0.  0.
         13    1    3    3    0    0 -0.10557369516E+03  0.15279182001E+03 -0.19345693246E+03  0.26817294809E+03  0.00000000000E+00 0.  1.
        -13    1    3    3    0    0 -0.10593325957E+04  0.11050006771E+04 -0.14569504988E+04  0.21132715871E+04  0.00000000000E+00 0. -1.
         22    1    1    2    0    0  0.11649062908E+04 -0.12577924971E+04 -0.12013873712E+04  0.20934135396E+04  0.00000000000E+00 0. -1.
<mgrwt>
<rscale>  0 0.34484230E+04</rscale>
<asrwt>0</asrwt>
<pdfrwt beam="1">  1        2 0.56358868E+00 0.34484230E+04</pdfrwt>
<pdfrwt beam="2">  1       -2 0.12485102E+00 0.34484230E+04</pdfrwt>
<totfact> 0.24601833E-01</totfact>
</mgrwt>
</event>
<event>
 6    1  0.1831439E-005  0.1700026E+04  0.7818608E-02  0.8761350E-01
          1   -1    0    0  501    0  0.00000000000E+00  0.00000000000E+00  0.45436414374E+03  0.45436414374E+03  0.00000000000E+00 0. -1.
         -1   -1    0    0    0  501 -0.00000000000E+00 -0.00000000000E+00 -0.15901820956E+04  0.15901820956E+04  0.00000000000E+00 0.  1.
         23    2    1    2    0    0 -0.52144399200E+03  0.65215258067E+03 -0.74434646923E+03  0.11223441210E+04  0.91639699300E+02 0.  0.
         11    1    3    3    0    0 -0.35410151887E+03  0.49754682722E+03 -0.51182416612E+03  0.79680907874E+03  0.00000000000E+00 0. -1.
        -11    1    3    3    0    0 -0.16734247314E+03  0.15460575345E+03 -0.23252230312E+03  0.32553504230E+03  0.00000000000E+00 0.  1.
         22    1    1    2    0    0  0.52144399200E+03 -0.65215258067E+03 -0.39147148260E+03  0.92220211828E+03  0.00000000000E+00 0. -1.
<mgrwt>
<rscale>  0 0.17000256E+04</rscale>
<asrwt>0</asrwt>
<pdfrwt beam="1">  1        1 0.69902177E-01 0.17000256E+04</pdfrwt>
<pdfrwt beam="2">  1       -1 0.24464340E+00 0.17000256E+04</pdfrwt>
<totfact> 0.36352870E+00</totfact>
</mgrwt>
</event>
<event>
 6    1  0.2109292E-005  0.5357679E+04  0.7818608E-02  0.7775582E-01
          2   -1    0    0  501    0  0.00000000000E+00  0.00000000000E+00  0.37699507069E+04  0.37699507069E+04  0.00000000000E+00 0. -1.
         -2   -1    0    0    0  501 -0.00000000000E+00 -0.00000000000E+00 -0.19035214675E+04  0.19035214675E+04  0.00000000000E+00 0.  1.
         23    2    1    2    0    0  0.10117517375E+04 -0.55581942785E+03 -0.16254476893E+04  0.19957308430E+04  0.91019735364E+02 0.  0.
         13    1    3    3    0    0  0.86928385097E+03 -0.45491856739E+03 -0.14223330102E+04  0.17278994497E+04  0.00000000000E+00 0. -1.
        -13    1    3    3    0    0  0.14246788654E+03 -0.10090086046E+03 -0.20311467912E+03  0.26783139325E+03  0.00000000000E+00 0.  1.
         22    1    1    2    0    0 -0.10117517375E+04  0.55581942785E+03  0.34918769288E+04  0.36777413314E+04  0.00000000000E+00 0. -1.
<mgrwt>
<rscale>  0 0.53576794E+04</rscale>
<asrwt>0</asrwt>
<pdfrwt beam="1">  1        2 0.57999241E+00 0.53576794E+04</pdfrwt>
<pdfrwt beam="2">  1       -2 0.29284946E+00 0.53576794E+04</pdfrwt>
<totfact> 0.12831281E-02</totfact>
</mgrwt>
</event>
<event>
 6    1  0.1831439E-005  0.3717636E+04  0.7818608E-02  0.8064065E-01
          1   -1    0    0  501    0  0.00000000000E+00  0.00000000000E+00  0.34738953784E+04  0.34738953784E+04  0.00000000000E+00 0. -1.
         -1   -1    0    0    0  501 -0.00000000000E+00 -0.00000000000E+00 -0.99461977294E+03  0.99461977294E+03  0.00000000000E+00 0.  1.
         23    2    1    2    0    0 -0.13908775970E+03 -0.76524150430E+03 -0.78756296802E+03  0.11103647333E+04  0.87831928369E+02 0.  0.
         11    1    3    3    0    0 -0.61954138152E+02 -0.16534413758E+03 -0.20562755215E+03  0.27103447985E+03  0.00000000000E+00 0. -1.
        -11    1    3    3    0    0 -0.77133621547E+02 -0.59989736671E+03 -0.58193541587E+03  0.83933025348E+03  0.00000000000E+00 0.  1.
         22    1    1    2    0    0  0.13908775970E+03  0.76524150430E+03  0.32668385735E+04  0.33581504180E+04  0.00000000000E+00 0. -1.
<mgrwt>
<rscale>  0 0.37176364E+04</rscale>
<asrwt>0</asrwt>
<pdfrwt beam="1">  1        1 0.53444544E+00 0.37176364E+04</pdfrwt>
<pdfrwt beam="2">  1       -1 0.15301843E+00 0.37176364E+04</pdfrwt>
<totfact> 0.69276346E-02</totfact>
</mgrwt>
</event>
<event>
 6    1  0.1831439E-005  0.7010793E+03  0.7818608E-02  0.9715388E-01
         -2   -1    0    0    0  501 -0.00000000000E+00  0.00000000000E+00  0.19697763895E+03  0.19697763895E+03  0.00000000000E+00 0.  1.
          2   -1    0    0  501    0  0.00000000000E+00 -0.00000000000E+00 -0.62381726450E+03  0.62381726450E+03  0.00000000000E+00 0. -1.
         23    2    1    2    0    0  0.21171909513E+03 -0.96246888985E+02 -0.51481908867E+03  0.57214087712E+03  0.90653462926E+02 0.  0.
         13    1    3    3    0    0 -0.51664028981E+01  0.44296424815E+01 -0.34516158042E+01  0.76306685866E+01  0.00000000000E+00 0. -1.
        -13    1    3    3    0    0  0.21688549803E+03 -0.10067653147E+03 -0.51136747286E+03  0.56451020854E+03  0.00000000000E+00 0.  1.
         22    1    1    2    0    0 -0.21171909513E+03  0.96246888985E+02  0.87979463116E+02  0.24865402633E+03  0.00000000000E+00 0.  1.
<mgrwt>
<rscale>  0 0.70107932E+03</rscale>
<asrwt>0</asrwt>
<pdfrwt beam="1">  1        2 0.95971888E-01 0.70107932E+03</pdfrwt>
<pdfrwt beam="2">  1       -2 0.30304252E-01 0.70107932E+03</pdfrwt>
<totfact> 0.47883663E+02</totfact>
</mgrwt>
</event>
<event>
 6    1  0.1831439E-005  0.3032498E+04  0.7818608E-02  0.8234511E-01
          2   -1    0    0  501    0  0.00000000000E+00  0.00000000000E+00  0.23233621461E+04  0.23233621461E+04  0.00000000000E+00 0. -1.
         -2   -1    0    0    0  501 -0.00000000000E+00 -0.00000000000E+00 -0.98951878708E+03  0.98951878708E+03  0.00000000000E+00 0.  1.
         23    2    1    2    0    0  0.26879535201E+03 -0.12476562946E+03  0.22905654569E+04  0.23113148713E+04  0.87572360458E+02 0.  0.
         11    1    3    3    0    0  0.23034822640E+03 -0.13439819417E+03  0.18764156580E+04  0.18952727776E+04  0.00000000000E+00 0.  1.
        -11    1    3    3    0    0  0.38447125611E+02  0.96325647074E+01  0.41414979895E+03  0.41604209372E+03  0.00000000000E+00 0. -1.
         22    1    1    2    0    0 -0.26879535201E+03  0.12476562946E+03 -0.95672209793E+03  0.10015660618E+04  0.00000000000E+00 0.  1.
<mgrwt>
<rscale>  0 0.30324976E+04</rscale>
<asrwt>0</asrwt>
<pdfrwt beam="1">  1        2 0.35744033E+00 0.30324976E+04</pdfrwt>
<pdfrwt beam="2">  1       -2 0.15223366E+00 0.30324976E+04</pdfrwt>
<totfact> 0.10812939E+00</totfact>
</mgrwt>
</event>
<event>
 6    1  0.1831439E-005  0.1377435E+04  0.7818608E-02  0.8970316E-01
          1   -1    0    0  501    0  0.00000000000E+00  0.00000000000E+00  0.17217130140E+04  0.17217130140E+04  0.00000000000E+00 0. -1.
         -1   -1    0    0    0  501 -0.00000000000E+00 -0.00000000000E+00 -0.27549982621E+03  0.27549982621E+03  0.00000000000E+00 0.  1.
         23    2    1    2    0    0  0.10751881140E+03  0.39715677635E+03 -0.69698219756E+02  0.42645468081E+03  0.87817726815E+02 0.  0.
         13    1    3    3    0    0 -0.10419698987E+02  0.54066360116E+02 -0.26468556368E+02  0.61092764706E+02  0.00000000000E+00 0. -1.
        -13    1    3    3    0    0  0.11793851038E+03  0.34309041623E+03 -0.43229663388E+02  0.36536191610E+03  0.00000000000E+00 0.  1.
         22    1    1    2    0    0 -0.10751881140E+03 -0.39715677635E+03  0.15159114076E+04  0.15707581594E+04  0.00000000000E+00 0. -1.
<mgrwt>
<rscale>  0 0.13774348E+04</rscale>
<asrwt>0</asrwt>
<pdfrwt beam="1">  1        1 0.26487892E+00 0.13774348E+04</pdfrwt>
<pdfrwt beam="2">  1       -1 0.42384590E-01 0.13774348E+04</pdfrwt>
<totfact> 0.24635637E+01</totfact>
</mgrwt>
</event>
<event>
 6    1  0.1831439E-005  0.4702340E+04  0.7818608E-02  0.7876140E-01
          2   -1    0    0  501    0  0.00000000000E+00  0.00000000000E+00  0.29737451223E+04  0.29737451223E+04  0.00000000000E+00 0. -1.
         -2   -1    0    0    0  501 -0.00000000000E+00 -0.00000000000E+00 -0.18589356574E+04  0.18589356574E+04  0.00000000000E+00 0.  1.
         23    2    1    2    0    0 -0.12337842677E+04 -0.19467913878E+04  0.10301093597E+04  0.25262995374E+04  0.94041124000E+02 0.  0.
         13    1    3    3    0    0 -0.42013668769E+03 -0.58650278506E+03  0.30576105147E+03  0.78357525090E+03  0.00000000000E+00 0. -1.
        -13    1    3    3    0    0 -0.81364758002E+03 -0.13602886028E+04  0.72434830824E+03  0.17427242865E+04  0.00000000000E+00 0.  1.
         22    1    1    2    0    0  0.12337842677E+04  0.19467913878E+04  0.84700105175E+02  0.23063812423E+04  0.00000000000E+00 0. -1.
<mgrwt>
<rscale>  0 0.47023402E+04</rscale>
<asrwt>0</asrwt>
<pdfrwt beam="1">  1        2 0.45749925E+00 0.47023402E+04</pdfrwt>
<pdfrwt beam="2">  1       -2 0.28599010E+00 0.47023402E+04</pdfrwt>
<totfact> 0.52158902E-02</totfact>
</mgrwt>
</event>
<event>
 6    1  0.1831439E-005  0.1980334E+04  0.7818608E-02  0.8615871E-01
         -1   -1    0    0    0  501 -0.00000000000E+00  0.00000000000E+00  0.24727797037E+04  0.24727797037E+04  0.00000000000E+00 0.  1.
          1   -1    0    0  501    0  0.00000000000E+00 -0.00000000000E+00 -0.39648928994E+03  0.39648928994E+03  0.00000000000E+00 0. -1.
         23    2    1    2    0    0 -0.80456752749E+03 -0.46338322001E+03  0.55176700399E+03  0.10842691220E+04  0.95602235030E+02 0.  0.
         11    1    3    3    0    0 -0.34893715661E+03 -0.15192320267E+03  0.20202380328E+03  0.43087285348E+03  0.00000000000E+00 0. -1.
        -11    1    3    3    0    0 -0.45563037088E+03 -0.31146001734E+03  0.34974320071E+03  0.65339626852E+03  0.00000000000E+00 0.  1.
         22    1    1    2    0    0  0.80456752749E+03  0.46338322001E+03  0.15245234098E+04  0.17849998717E+04  0.00000000000E+00 0.  1.
<mgrwt>
<rscale>  0 0.19803340E+04</rscale>
<asrwt>0</asrwt>
<pdfrwt beam="1">  1        1 0.60998353E-01 0.19803340E+04</pdfrwt>
<pdfrwt beam="2">  1       -1 0.38042764E+00 0.19803340E+04</pdfrwt>
<totfact> 0.54932474E-01</totfact>
</mgrwt>
</event>
<event>
 6    1  0.1831439E-005  0.2609761E+04  0.7818608E-02  0.8364893E-01
          2   -1    0    0  501    0  0.00000000000E+00  0.00000000000E+00  0.77721639799E+03  0.77721639799E+03  0.00000000000E+00 0. -1.
         -2   -1    0    0    0  501 -0.00000000000E+00 -0.00000000000E+00 -0.21907842697E+04  0.21907842697E+04  0.00000000000E+00 0.  1.
         23    2    1    2    0    0 -0.19676030275E+03  0.50410862542E+03 -0.20555557479E+04  0.21283647012E+04  0.10856677856E+03 0.  0.
         11    1    3    3    0    0 -0.99132701707E+02  0.34232522473E+03 -0.11797022910E+04  0.12323600721E+04  0.00000000000E+00 0.  1.
        -11    1    3    3    0    0 -0.97627601046E+02  0.16178340068E+03 -0.87585345694E+03  0.89600462904E+03  0.00000000000E+00 0. -1.
         22    1    1    2    0    0  0.19676030275E+03 -0.50410862542E+03  0.64198787625E+03  0.83963596648E+03  0.00000000000E+00 0. -1.
<mgrwt>
<rscale>  0 0.26097613E+04</rscale>
<asrwt>0</asrwt>
<pdfrwt beam="1">  1        2 0.11957175E+00 0.26097613E+04</pdfrwt>
<pdfrwt beam="2">  1       -2 0.33704373E+00 0.26097613E+04</pdfrwt>
<totfact> 0.59368248E-01</totfact>
</mgrwt>
</event>
<event>
 6    1  0.1831439E-005  0.1566473E+04  0.7818608E-02  0.8841414E-01
         -1   -1    0    0    0  501 -0.00000000000E+00  0.00000000000E+00  0.13079743722E+04  0.13079743722E+04  0.00000000000E+00 0.  1.
          1   -1    0    0  501    0  0.00000000000E+00 -0.00000000000E+00 -0.46901485468E+03  0.46901485468E+03  0.00000000000E+00 0. -1.
         23    2    1    2    0    0 -0.74352507830E+03  0.16084156644E+03  0.61690906963E+03  0.98452096064E+03  0.10002584758E+03 0.  0.
         11    1    3    3    0    0 -0.34650172244E+03  0.24056206270E+02  0.27686566418E+03  0.44418097743E+03  0.00000000000E+00 0.  1.
        -11    1    3    3    0    0 -0.39702335586E+03  0.13678536017E+03  0.34004340545E+03  0.54033998320E+03  0.00000000000E+00 0. -1.
         22    1    1    2    0    0  0.74352507830E+03 -0.16084156644E+03  0.22205044785E+03  0.79246826621E+03  0.00000000000E+00 0.  1.
<mgrwt>
<rscale>  0 0.15664730E+04</rscale>
<asrwt>0</asrwt>
<pdfrwt beam="1">  1        1 0.72156132E-01 0.15664730E+04</pdfrwt>
<pdfrwt beam="2">  1       -1 0.20122682E+00 0.15664730E+04</pdfrwt>
<totfact> 0.68720020E+00</totfact>
</mgrwt>
</event>
<event>
 6    1  0.1831439E-005  0.2957636E+04  0.7818608E-02  0.8255933E-01
          2   -1    0    0  501    0  0.00000000000E+00  0.00000000000E+00  0.15976363629E+04  0.15976363629E+04  0.00000000000E+00 0. -1.
         -2   -1    0    0    0  501 -0.00000000000E+00 -0.00000000000E+00 -0.13688365924E+04  0.13688365924E+04  0.00000000000E+00 0.  1.
         23    2    1    2    0    0  0.27405399040E+03  0.71926307859E+03 -0.11503209366E+04  0.13871000130E+04  0.91450658342E+02 0.  0.
         13    1    3    3    0    0  0.23479462233E+03  0.68072357349E+03 -0.10657704928E+04  0.12862269790E+04  0.00000000000E+00 0.  1.
        -13    1    3    3    0    0  0.39259368075E+02  0.38539505099E+02 -0.84550443837E+02  0.10087303400E+03  0.00000000000E+00 0. -1.
         22    1    1    2    0    0 -0.27405399040E+03 -0.71926307859E+03  0.13791207071E+04  0.15793729422E+04  0.00000000000E+00 0. -1.
<mgrwt>
<rscale>  0 0.29576363E+04</rscale>
<asrwt>0</asrwt>
<pdfrwt beam="1">  1        2 0.24579021E+00 0.29576363E+04</pdfrwt>
<pdfrwt beam="2">  1       -2 0.21059025E+00 0.29576363E+04</pdfrwt>
<totfact> 0.10908023E+00</totfact>
</mgrwt>
</event>
<event>
 6    1  0.1831439E-005  0.5351835E+04  0.7818608E-02  0.7776412E-01
         -1   -1    0    0    0  501 -0.00000000000E+00  0.00000000000E+00  0.39125515476E+04  0.39125515476E+04  0.00000000000E+00 0.  1.
          1   -1    0    0  501    0  0.00000000000E+00 -0.00000000000E+00 -0.18301447686E+04  0.18301447686E+04  0.00000000000E+00 0. -1.
         23    2    1    2    0    0 -0.20819875922E+03 -0.23644299366E+04  0.23655091449E+04  0.33522941329E+04  0.91470160787E+02 0.  0.
         13    1    3    3    0    0 -0.81476322663E+02 -0.13768820115E+04  0.13432188452E+04  0.19252738327E+04  0.00000000000E+00 0. -1.
        -13    1    3    3    0    0 -0.12672243655E+03 -0.98754792513E+03  0.10222902997E+04  0.14270203002E+04  0.00000000000E+00 0.  1.
         22    1    1    2    0    0  0.20819875922E+03  0.23644299366E+04 -0.28310236594E+03  0.23904021833E+04  0.00000000000E+00 0. -1.
<mgrwt>
<rscale>  0 0.53518355E+04</rscale>
<asrwt>0</asrwt>
<pdfrwt beam="1">  1        1 0.28156073E+00 0.53518355E+04</pdfrwt>
<pdfrwt beam="2">  1       -1 0.60193101E+00 0.53518355E+04</pdfrwt>
<totfact> 0.11996969E-03</totfact>
</mgrwt>
</event>
<event>
 6    1  0.1831439E-005  0.3496318E+04  0.7818608E-02  0.8114663E-01
         -4   -1    0    0    0  501 -0.00000000000E+00  0.00000000000E+00  0.19174604236E+04  0.19174604236E+04  0.00000000000E+00 0.  1.
          4   -1    0    0  501    0  0.00000000000E+00 -0.00000000000E+00 -0.15938055875E+04  0.15938055875E+04  0.00000000000E+00 0. -1.
         23    2    1    2    0    0 -0.32217339941E+03 -0.13044410259E+04 -0.95921028560E+03  0.16535510142E+04  0.93725637989E+02 0.  0.
         13    1    3    3    0    0 -0.82425552787E+01 -0.41279405717E+01 -0.59970743225E+01  0.10997477498E+02  0.00000000000E+00 0.  1.
        -13    1    3    3    0    0 -0.31393084413E+03 -0.13003130853E+04 -0.95321321128E+03  0.16425535367E+04  0.00000000000E+00 0. -1.
         22    1    1    2    0    0  0.32217339941E+03  0.13044410259E+04  0.12828651218E+04  0.18577149970E+04  0.00000000000E+00 0.  1.
<mgrwt>
<rscale>  0 0.34963176E+04</rscale>
<asrwt>0</asrwt>
<pdfrwt beam="1">  1        4 0.24520086E+00 0.34963176E+04</pdfrwt>
<pdfrwt beam="2">  1       -4 0.29499391E+00 0.34963176E+04</pdfrwt>
<totfact> 0.36392870E-03</totfact>
</mgrwt>
</event>
<event>
 6    1  0.1831439E-005  0.1168805E+04  0.7818608E-02  0.9140609E-01
          2   -1    0    0  501    0  0.00000000000E+00  0.00000000000E+00  0.13011787957E+04  0.13011787957E+04  0.00000000000E+00 0. -1.
         -2   -1    0    0    0  501 -0.00000000000E+00 -0.00000000000E+00 -0.26247441698E+03  0.26247441698E+03  0.00000000000E+00 0.  1.
         23    2    1    2    0    0 -0.34155093244E+03 -0.36499079028E+03  0.91821698444E+03  0.10494620726E+04  0.91503523269E+02 0.  0.
         11    1    3    3    0    0 -0.65192402402E+02 -0.12934494591E+03  0.25034527315E+03  0.28922814550E+03  0.00000000000E+00 0.  1.
        -11    1    3    3    0    0 -0.27635853004E+03 -0.23564584438E+03  0.66787171129E+03  0.76023392705E+03  0.00000000000E+00 0. -1.
         22    1    1    2    0    0  0.34155093244E+03  0.36499079028E+03  0.12048739433E+03  0.51419114018E+03  0.00000000000E+00 0.  1.
<mgrwt>
<rscale>  0 0.11688048E+04</rscale>
<asrwt>0</asrwt>
<pdfrwt beam="1">  1        2 0.20018135E+00 0.11688048E+04</pdfrwt>
<pdfrwt beam="2">  1       -2 0.40380680E-01 0.11688048E+04</pdfrwt>
<totfact> 0.94673556E+01</totfact>
</mgrwt>
</event>
<event>
 6    1  0.1831439E-005  0.3443163E+04  0.7818608E-02  0.8127393E-01
         -2   -1    0    0    0  501 -0.00000000000E+00  0.00000000000E+00  0.17246773726E+04  0.17246773726E+04  0.00000000000E+00 0.  1.
          2   -1    0    0  501    0  0.00000000000E+00 -0.00000000000E+00 -0.17184914056E+04  0.17184914056E+04  0.00000000000E+00 0. -1.
         23    2    1    2    0    0  0.12583664868E+04 -0.10262040707E+04  0.57111476492E+03  0.17239464085E+04  0.96115216309E+02 0.  0.
         11    1    3    3    0    0  0.62467747988E+03 -0.56996468890E+03  0.28607551913E+03  0.89270426408E+03  0.00000000000E+00 0. -1.
        -11    1    3    3    0    0  0.63368900695E+03 -0.45623938180E+03  0.28503924579E+03  0.83124214443E+03  0.00000000000E+00 0.  1.
         22    1    1    2    0    0 -0.12583664868E+04  0.10262040707E+04 -0.56492879787E+03  0.17192223697E+04  0.00000000000E+00 0. -1.
<mgrwt>
<rscale>  0 0.34431632E+04</rscale>
<asrwt>0</asrwt>
<pdfrwt beam="1">  1        2 0.26438329E+00 0.34431632E+04</pdfrwt>
<pdfrwt beam="2">  1       -2 0.26533498E+00 0.34431632E+04</pdfrwt>
<totfact> 0.40920507E-01</totfact>
</mgrwt>
</event>
<event>
 6    1  0.1831439E-005  0.2001347E+04  0.7818608E-02  0.8605991E-01
         -2   -1    0    0    0  501 -0.00000000000E+00  0.00000000000E+00  0.77182322370E+03  0.77182322370E+03  0.00000000000E+00 0.  1.
          2   -1    0    0  501    0  0.00000000000E+00 -0.00000000000E+00 -0.12973796873E+04  0.12973796873E+04  0.00000000000E+00 0. -1.
         23    2    1    2    0    0  0.19168969570E+03  0.65820274075E+03 -0.10141236028E+04  0.12273753534E+04  0.89597928864E+02 0.  0.
         13    1    3    3    0    0  0.88426083958E+02  0.30833397946E+03 -0.39571049533E+03  0.50938768274E+03  0.00000000000E+00 0. -1.
        -13    1    3    3    0    0  0.10326361174E+03  0.34986876129E+03 -0.61841310750E+03  0.71798767062E+03  0.00000000000E+00 0.  1.
         22    1    1    2    0    0 -0.19168969570E+03 -0.65820274075E+03  0.48856713919E+03  0.84182755768E+03  0.00000000000E+00 0.  1.
<mgrwt>
<rscale>  0 0.20013473E+04</rscale>
<asrwt>0</asrwt>
<pdfrwt beam="1">  1        2 0.19959688E+00 0.20013473E+04</pdfrwt>
<pdfrwt beam="2">  1       -2 0.11874203E+00 0.20013473E+04</pdfrwt>
<totfact> 0.84020003E+00</totfact>
</mgrwt>
</event>
<event>
 6    1  0.1831439E-005  0.1924795E+04  0.7818608E-02  0.8642612E-01
          1   -1    0    0  501    0  0.00000000000E+00  0.00000000000E+00  0.17545044038E+04  0.17545044038E+04  0.00000000000E+00 0. -1.
         -1   -1    0    0    0  501 -0.00000000000E+00 -0.00000000000E+00 -0.52790369075E+03  0.52790369075E+03  0.00000000000E+00 0.  1.
         23    2    1    2    0    0 -0.95020490756E+03  0.10316015890E+03  0.72458206044E+03  0.12027997803E+04  0.90425462874E+02 0.  0.
         11    1    3    3    0    0 -0.70068366568E+03  0.67912149009E+02  0.48319298834E+03  0.85384139236E+03  0.00000000000E+00 0. -1.
        -11    1    3    3    0    0 -0.24952124189E+03  0.35248009887E+02  0.24138907210E+03  0.34895838790E+03  0.00000000000E+00 0.  1.
         22    1    1    2    0    0  0.95020490756E+03 -0.10316015890E+03  0.50201865264E+03  0.10796083143E+04  0.00000000000E+00 0.  1.
<mgrwt>
<rscale>  0 0.19247954E+04</rscale>
<asrwt>0</asrwt>
<pdfrwt beam="1">  1        1 0.26992375E+00 0.19247954E+04</pdfrwt>
<pdfrwt beam="2">  1       -1 0.81215953E-01 0.19247954E+04</pdfrwt>
<totfact> 0.61690242E+00</totfact>
</mgrwt>
</event>
<event>
 6    1  0.1831439E-005  0.3140055E+04  0.7818608E-02  0.8204830E-01
         -1   -1    0    0    0  501 -0.00000000000E+00  0.00000000000E+00  0.16105703904E+04  0.16105703904E+04  0.00000000000E+00 0.  1.
          1   -1    0    0  501    0  0.00000000000E+00 -0.00000000000E+00 -0.15305056487E+04  0.15305056487E+04  0.00000000000E+00 0. -1.
         23    2    1    2    0    0 -0.51955577555E+03 -0.17036865907E+03  0.15103674989E+04  0.16098250273E+04  0.10659715175E+03 0.  0.
         13    1    3    3    0    0 -0.35730370806E+03 -0.13154898482E+03  0.90366110247E+03  0.98059903289E+03  0.00000000000E+00 0. -1.
        -13    1    3    3    0    0 -0.16225206749E+03 -0.38819674250E+02  0.60670639643E+03  0.62922599437E+03  0.00000000000E+00 0.  1.
         22    1    1    2    0    0  0.51955577555E+03  0.17036865907E+03 -0.14303027572E+04  0.15312510118E+04  0.00000000000E+00 0. -1.
<mgrwt>
<rscale>  0 0.31400555E+04</rscale>
<asrwt>0</asrwt>
<pdfrwt beam="1">  1        1 0.23546241E+00 0.31400555E+04</pdfrwt>
<pdfrwt beam="2">  1       -1 0.24778006E+00 0.31400555E+04</pdfrwt>
<totfact> 0.37774381E-01</totfact>
</mgrwt>
</event>
<event>
 6    1  0.1831439E-005  0.2881821E+04  0.7818608E-02  0.8278307E-01
          2   -1    0    0  501    0  0.00000000000E+00  0.00000000000E+00  0.25872308027E+04  0.25872308027E+04  0.00000000000E+00 0. -1.
         -2   -1    0    0    0  501 -0.00000000000E+00 -0.00000000000E+00 -0.80248866825E+03  0.80248866825E+03  0.00000000000E+00 0.  1.
         23    2    1    2    0    0  0.85291720140E+03 -0.11578042648E+04  0.81825051005E+03  0.16570670164E+04  0.91426099914E+02 0.  0.
         13    1    3    3    0    0  0.38890236554E+03 -0.48129594422E+03  0.39317424260E+03  0.73312810673E+03  0.00000000000E+00 0. -1.
        -13    1    3    3    0    0  0.46401483586E+03 -0.67650832060E+03  0.42507626745E+03  0.92393890971E+03  0.00000000000E+00 0.  1.
         22    1    1    2    0    0 -0.85291720140E+03  0.11578042648E+04  0.96649162441E+03  0.17326524545E+04  0.00000000000E+00 0. -1.
<mgrwt>
<rscale>  0 0.28818212E+04</rscale>
<asrwt>0</asrwt>
<pdfrwt beam="1">  1        2 0.39803550E+00 0.28818212E+04</pdfrwt>
<pdfrwt beam="2">  1       -2 0.12345980E+00 0.28818212E+04</pdfrwt>
<totfact> 0.13233627E+00</totfact>
</mgrwt>
</event>
<event>
 6    1  0.1831439E-005  0.2540319E+04  0.7818608E-02  0.8388761E-01
          4   -1    0    0  501    0  0.00000000000E+00  0.00000000000E+00  0.10890793056E+04  0.10890793056E+04  0.00000000000E+00 0.  1.
         -4   -1    0    0    0  501 -0.00000000000E+00 -0.00000000000E+00 -0.14813481682E+04  0.14813481682E+04  0.00000000000E+00 0. -1.
         23    2    1    2    0    0  0.25232188669E+03  0.37931373331E+03 -0.13942136965E+04  0.14697737168E+04  0.94115376947E+02 0.  0.
         11    1    3    3    0    0  0.17097318052E+03  0.20245451218E+03 -0.91291176081E+03  0.95059325739E+03  0.00000000000E+00 0.  1.
        -11    1    3    3    0    0  0.81348706166E+02  0.17685922113E+03 -0.48130193570E+03  0.51918045938E+03  0.00000000000E+00 0. -1.
         22    1    1    2    0    0 -0.25232188669E+03 -0.37931373331E+03  0.10019448339E+04  0.11006537571E+04  0.00000000000E+00 0.  1.
<mgrwt>
<rscale>  0 0.25403194E+04</rscale>
<asrwt>0</asrwt>
<pdfrwt beam="1">  1        4 0.16755066E+00 0.25403194E+04</pdfrwt>
<pdfrwt beam="2">  1       -4 0.22789972E+00 0.25403194E+04</pdfrwt>
<totfact> 0.33922964E-02</totfact>
</mgrwt>
</event>
<event>
 6    1  0.1831439E-005  0.3269002E+04  0.7818608E-02  0.8170828E-01
         -2   -1    0    0    0  501 -0.00000000000E+00  0.00000000000E+00  0.76457715700E+03  0.76457715700E+03  0.00000000000E+00 0.  1.
          2   -1    0    0  501    0  0.00000000000E+00 -0.00000000000E+00 -0.34942100293E+04  0.34942100293E+04  0.00000000000E+00 0. -1.
         23    2    1    2    0    0 -0.32928121557E+02  0.64404723102E+03  0.58885014464E+03  0.87822353052E+03  0.93010643169E+02 0.  0.
         13    1    3    3    0    0 -0.12301013383E+02  0.51083302013E+02  0.19881486700E+02  0.56179108112E+02  0.00000000000E+00 0. -1.
        -13    1    3    3    0    0 -0.20627108174E+02  0.59296392901E+03  0.56896865794E+03  0.82204442241E+03  0.00000000000E+00 0.  1.
         22    1    1    2    0    0  0.32928121557E+02 -0.64404723102E+03 -0.33184830169E+04  0.33805636557E+04  0.00000000000E+00 0. -1.
<mgrwt>
<rscale>  0 0.32690018E+04</rscale>
<asrwt>0</asrwt>
<pdfrwt beam="1">  1        2 0.53757078E+00 0.32690018E+04</pdfrwt>
<pdfrwt beam="2">  1       -2 0.11762725E+00 0.32690018E+04</pdfrwt>
<totfact> 0.38281659E-01</totfact>
</mgrwt>
</event>
<event>
 6    1  0.1831439E-005  0.4758170E+04  0.7818608E-02  0.7866935E-01
         -2   -1    0    0    0  501 -0.00000000000E+00  0.00000000000E+00  0.15418298854E+04  0.15418298854E+04  0.00000000000E+00 0.  1.
          2   -1    0    0  501    0  0.00000000000E+00 -0.00000000000E+00 -0.36709920969E+04  0.36709920969E+04  0.00000000000E+00 0. -1.
         23    2    1    2    0    0  0.18826872694E+04  0.11830878350E+04 -0.19889814645E+04  0.29848500747E+04  0.95260288489E+02 0.  0.
         11    1    3    3    0    0  0.14963684231E+04  0.98120234788E+03 -0.16195506046E+04  0.24134665247E+04  0.00000000000E+00 0. -1.
        -11    1    3    3    0    0  0.38631884630E+03  0.20188548712E+03 -0.36943085991E+03  0.57138354997E+03  0.00000000000E+00 0.  1.
         22    1    1    2    0    0 -0.18826872694E+04 -0.11830878350E+04 -0.14018074707E+03  0.22279719077E+04  0.00000000000E+00 0.  1.
<mgrwt>
<rscale>  0 0.47581700E+04</rscale>
<asrwt>0</asrwt>
<pdfrwt beam="1">  1        2 0.56476801E+00 0.47581700E+04</pdfrwt>
<pdfrwt beam="2">  1       -2 0.23720460E+00 0.47581700E+04</pdfrwt>
<totfact> 0.34984836E-02</totfact>
</mgrwt>
</event>
<event>
 6    1  0.1831439E-005  0.3105688E+04  0.7818608E-02  0.8214179E-01
         -2   -1    0    0    0  501 -0.00000000000E+00  0.00000000000E+00  0.14253501308E+04  0.14253501308E+04  0.00000000000E+00 0.  1.
          2   -1    0    0  501    0  0.00000000000E+00 -0.00000000000E+00 -0.16917419558E+04  0.16917419558E+04  0.00000000000E+00 0. -1.
         23    2    1    2    0    0  0.78158404123E+03  0.11655348362E+04 -0.79562759064E+03  0.16172802438E+04  0.11500893885E+03 0.  0.
         13    1    3    3    0    0  0.44217435413E+03  0.74428462049E+03 -0.45512593500E+03  0.97806818395E+03  0.00000000000E+00 0. -1.
        -13    1    3    3    0    0  0.33940968711E+03  0.42125021576E+03 -0.34050165564E+03  0.63921205986E+03  0.00000000000E+00 0.  1.
         22    1    1    2    0    0 -0.78158404123E+03 -0.11655348362E+04  0.52923576569E+03  0.14998118428E+04  0.00000000000E+00 0.  1.
<mgrwt>
<rscale>  0 0.31056881E+04</rscale>
<asrwt>0</asrwt>
<pdfrwt beam="1">  1        2 0.26026799E+00 0.31056881E+04</pdfrwt>
<pdfrwt beam="2">  1       -2 0.21928464E+00 0.31056881E+04</pdfrwt>
<totfact> 0.84009939E-01</totfact>
</mgrwt>
</event>
<event>
 6    1  0.1831439E-005  0.2114924E+04  0.7818608E-02  0.8554698E-01
         -1   -1    0    0    0  501 -0.00000000000E+00  0.00000000000E+00  0.71339446958E+03  0.71339446958E+03  0.00000000000E+00 0. -1.
          1   -1    0    0  501    0  0.00000000000E+00 -0.00000000000E+00 -0.15674714774E+04  0.15674714774E+04  0.00000000000E+00 0.  1.
         23    2    1    2    0    0  0.10909977130E+03  0.71748907637E+02 -0.15574423122E+04  0.15654825413E+04  0.89768398230E+02 0.  0.
         13    1    3    3    0    0  0.10708182705E+03  0.59750871471E+02 -0.94540840829E+03  0.95332772056E+03  0.00000000000E+00 0.  1.
        -13    1    3    3    0    0  0.20179442447E+01  0.11998036167E+02 -0.61203390390E+03  0.61215482069E+03  0.00000000000E+00 0. -1.
         22    1    1    2    0    0 -0.10909977130E+03 -0.71748907637E+02  0.70336530435E+03  0.71538340574E+03  0.00000000000E+00 0. -1.
<mgrwt>
<rscale>  0 0.21149236E+04</rscale>
<asrwt>0</asrwt>
<pdfrwt beam="1">  1        1 0.24114945E+00 0.21149236E+04</pdfrwt>
<pdfrwt beam="2">  1       -1 0.10975300E+00 0.21149236E+04</pdfrwt>
<totfact> 0.41402171E+00</totfact>
</mgrwt>
</event>
<event>
 6    1  0.1831439E-005  0.1485828E+04  0.7818608E-02  0.8893932E-01
         -2   -1    0    0    0  501 -0.00000000000E+00  0.00000000000E+00  0.72053715501E+03  0.72053715501E+03  0.00000000000E+00 0.  1.
          2   -1    0    0  501    0  0.00000000000E+00 -0.00000000000E+00 -0.76598590217E+03  0.76598590217E+03  0.00000000000E+00 0. -1.
         23    2    1    2    0    0  0.14625938073E+03 -0.67952114862E+03 -0.27718163736E+03  0.75382876195E+03  0.91034852576E+02 0.  0.
         11    1    3    3    0    0  0.11831436918E+03 -0.52903145289E+03 -0.17441451761E+03  0.56946728796E+03  0.00000000000E+00 0. -1.
        -11    1    3    3    0    0  0.27945011555E+02 -0.15048969572E+03 -0.10276711975E+03  0.18436147399E+03  0.00000000000E+00 0.  1.
         22    1    1    2    0    0 -0.14625938073E+03  0.67952114862E+03  0.23173289019E+03  0.73269429523E+03  0.00000000000E+00 0.  1.
<mgrwt>
<rscale>  0 0.14858281E+04</rscale>
<asrwt>0</asrwt>
<pdfrwt beam="1">  1        2 0.11784398E+00 0.14858281E+04</pdfrwt>
<pdfrwt beam="2">  1       -2 0.11085187E+00 0.14858281E+04</pdfrwt>
<totfact> 0.22755339E+01</totfact>
</mgrwt>
</event>
<event>
 6    1  0.1831439E-005  0.1000831E+04  0.7818608E-02  0.9307634E-01
          4   -1    0    0  501    0  0.00000000000E+00  0.00000000000E+00  0.25453111861E+03  0.25453111861E+03  0.00000000000E+00 0. -1.
         -4   -1    0    0    0  501 -0.00000000000E+00 -0.00000000000E+00 -0.98383090137E+03  0.98383090137E+03  0.00000000000E+00 0.  1.
         23    2    1    2    0    0 -0.33727314406E+03 -0.15390324599E+03  0.40344327137E+02  0.38408370542E+03  0.91941531480E+02 0.  0.
         11    1    3    3    0    0 -0.98849912972E+02 -0.15808768799E+02  0.41976801245E+02  0.10855079138E+03  0.00000000000E+00 0. -1.
        -11    1    3    3    0    0 -0.23842323109E+03 -0.13809447719E+03 -0.16324741086E+01  0.27553291405E+03  0.00000000000E+00 0.  1.
         22    1    1    2    0    0  0.33727314406E+03  0.15390324599E+03 -0.76964410990E+03  0.85427831456E+03  0.00000000000E+00 0.  1.
<mgrwt>
<rscale>  0 0.10008308E+04</rscale>
<asrwt>0</asrwt>
<pdfrwt beam="1">  1        4 0.39158634E-01 0.10008308E+04</pdfrwt>
<pdfrwt beam="2">  1       -4 0.15135860E+00 0.10008308E+04</pdfrwt>
<totfact> 0.36754873E+00</totfact>
</mgrwt>
</event>
<event>
 6    1  0.1831439E-005  0.3309125E+04  0.7818608E-02  0.8160578E-01
         -2   -1    0    0    0  501 -0.00000000000E+00  0.00000000000E+00  0.15917772382E+04  0.15917772382E+04  0.00000000000E+00 0.  1.
          2   -1    0    0  501    0  0.00000000000E+00 -0.00000000000E+00 -0.17198237802E+04  0.17198237802E+04  0.00000000000E+00 0. -1.
         23    2    1    2    0    0  0.96256454194E+03 -0.38818321633E+03 -0.13519453948E+04  0.17068751513E+04  0.91922383536E+02 0.  0.
         13    1    3    3    0    0  0.38883756183E+03 -0.10985753105E+03 -0.54156883466E+03  0.67569233331E+03  0.00000000000E+00 0. -1.
        -13    1    3    3    0    0  0.57372698011E+03 -0.27832568528E+03 -0.81037656014E+03  0.10311828179E+04  0.00000000000E+00 0.  1.
         22    1    1    2    0    0 -0.96256454194E+03  0.38818321633E+03  0.12238988528E+04  0.16047258672E+04  0.00000000000E+00 0.  1.
<mgrwt>
<rscale>  0 0.33091246E+04</rscale>
<asrwt>0</asrwt>
<pdfrwt beam="1">  1        2 0.26458827E+00 0.33091246E+04</pdfrwt>
<pdfrwt beam="2">  1       -2 0.24488881E+00 0.33091246E+04</pdfrwt>
<totfact> 0.55137440E-01</totfact>
</mgrwt>
</event>
<event>
 6    1  0.1831439E-005  0.2544428E+04  0.7818608E-02  0.8387327E-01
         -2   -1    0    0    0  501 -0.00000000000E+00  0.00000000000E+00  0.16902146881E+04  0.16902146881E+04  0.00000000000E+00 0.  1.
          2   -1    0    0  501    0  0.00000000000E+00 -0.00000000000E+00 -0.95758718555E+03  0.95758718555E+03  0.00000000000E+00 0. -1.
         23    2    1    2    0    0  0.10552414915E+04  0.12473908059E+03 -0.35814554702E+03  0.11250148599E+04  0.91081055667E+02 0.  0.
         13    1    3    3    0    0  0.92806293227E+03  0.89668853803E+02 -0.28947689414E+03  0.97628796051E+03  0.00000000000E+00 0.  1.
        -13    1    3    3    0    0  0.12717855918E+03  0.35070226783E+02 -0.68668652879E+02  0.14872689942E+03  0.00000000000E+00 0. -1.
         22    1    1    2    0    0 -0.10552414915E+04 -0.12473908059E+03  0.10907730496E+04  0.15227870137E+04  0.00000000000E+00 0.  1.
<mgrwt>
<rscale>  0 0.25444276E+04</rscale>
<asrwt>0</asrwt>
<pdfrwt beam="1">  1        2 0.14732111E+00 0.25444276E+04</pdfrwt>
<pdfrwt beam="2">  1       -2 0.26003303E+00 0.25444276E+04</pdfrwt>
<totfact> 0.13299458E+00</totfact>
</mgrwt>
</event>
<event>
 6    1  0.1831439E-005  0.5775016E+04  0.7818608E-02  0.7718940E-01
         -1   -1    0    0    0  501 -0.00000000000E+00  0.00000000000E+00  0.35140612077E+04  0.35140612077E+04  0.00000000000E+00 0.  1.
          1   -1    0    0  501    0  0.00000000000E+00 -0.00000000000E+00 -0.23726682271E+04  0.23726682271E+04  0.00000000000E+00 0. -1.
         23    2    1    2    0    0  0.17328259636E+04  0.18031687627E+04  0.20406926482E+04  0.32291283927E+04  0.93489492678E+02 0.  0.
         13    1    3    3    0    0  0.13026293173E+04  0.12960738020E+04  0.15022315793E+04  0.23734679598E+04  0.00000000000E+00 0.  1.
        -13    1    3    3    0    0  0.43019664631E+03  0.50709496070E+03  0.53846106887E+03  0.85566043285E+03  0.00000000000E+00 0. -1.
         22    1    1    2    0    0 -0.17328259636E+04 -0.18031687627E+04 -0.89929966759E+03  0.26576010421E+04  0.00000000000E+00 0. -1.
<mgrwt>
<rscale>  0 0.57750156E+04</rscale>
<asrwt>0</asrwt>
<pdfrwt beam="1">  1        1 0.36502588E+00 0.57750156E+04</pdfrwt>
<pdfrwt beam="2">  1       -1 0.54062480E+00 0.57750156E+04</pdfrwt>
<totfact> 0.96671275E-04</totfact>
</mgrwt>
</event>
<event>
 6    1  0.1831439E-005  0.4076622E+04  0.7818608E-02  0.7989265E-01
          2   -1    0    0  501    0  0.00000000000E+00  0.00000000000E+00  0.17631687559E+04  0.17631687559E+04  0.00000000000E+00 0. -1.
         -2   -1    0    0    0  501 -0.00000000000E+00 -0.00000000000E+00 -0.23563885984E+04  0.23563885984E+04  0.00000000000E+00 0.  1.
         23    2    1    2    0    0  0.13035674733E+04 -0.13236839987E+04 -0.11417042751E+04  0.21824815534E+04  0.91156971459E+02 0.  0.
         13    1    3    3    0    0  0.65090971464E+03 -0.72583181132E+03 -0.59899298264E+03  0.11442499151E+04  0.00000000000E+00 0. -1.
        -13    1    3    3    0    0  0.65265775862E+03 -0.59785218734E+03 -0.54271129249E+03  0.10382316383E+04  0.00000000000E+00 0.  1.
         22    1    1    2    0    0 -0.13035674733E+04  0.13236839987E+04  0.54848443255E+03  0.19370758009E+04  0.00000000000E+00 0. -1.
<mgrwt>
<rscale>  0 0.40766215E+04</rscale>
<asrwt>0</asrwt>
<pdfrwt beam="1">  1        2 0.27125673E+00 0.40766215E+04</pdfrwt>
<pdfrwt beam="2">  1       -2 0.36252132E+00 0.40766215E+04</pdfrwt>
<totfact> 0.91877311E-02</totfact>
</mgrwt>
</event>
<event>
 6    1  0.1831439E-005  0.1451991E+04  0.7818608E-02  0.8917021E-01
          2   -1    0    0  501    0  0.00000000000E+00  0.00000000000E+00  0.77897652713E+03  0.77897652713E+03  0.00000000000E+00 0. -1.
         -2   -1    0    0    0  501 -0.00000000000E+00 -0.00000000000E+00 -0.67661812535E+03  0.67661812535E+03  0.00000000000E+00 0.  1.
         23    2    1    2    0    0  0.62581940429E+02 -0.66670149231E+03 -0.22207344730E+03  0.71150903657E+03  0.92309880364E+02 0.  0.
         13    1    3    3    0    0  0.52628528135E+02 -0.36283687698E+03 -0.76954828722E+02  0.37462301976E+03  0.00000000000E+00 0. -1.
        -13    1    3    3    0    0  0.99534122941E+01 -0.30386461533E+03 -0.14511861858E+03  0.33688601681E+03  0.00000000000E+00 0.  1.
         22    1    1    2    0    0 -0.62581940429E+02  0.66670149231E+03  0.32443184909E+03  0.74408561592E+03  0.00000000000E+00 0. -1.
<mgrwt>
<rscale>  0 0.14519912E+04</rscale>
<asrwt>0</asrwt>
<pdfrwt beam="1">  1        2 0.11984254E+00 0.14519912E+04</pdfrwt>
<pdfrwt beam="2">  1       -2 0.10409510E+00 0.14519912E+04</pdfrwt>
<totfact> 0.25972945E+01</totfact>
</mgrwt>
</event>
<event>
 6    1  0.1831439E-005  0.2173151E+04  0.7818608E-02  0.8529687E-01
         -2   -1    0    0    0  501 -0.00000000000E+00  0.00000000000E+00  0.12254959824E+04  0.12254959824E+04  0.00000000000E+00 0.  1.
          2   -1    0    0  501    0  0.00000000000E+00 -0.00000000000E+00 -0.96340301562E+03  0.96340301562E+03  0.00000000000E+00 0. -1.
         23    2    1    2    0    0  0.30789082337E+03  0.10240896022E+04 -0.51435123553E+02  0.10745130075E+04  0.91522450765E+02 0.  0.
         13    1    3    3    0    0  0.26241487884E+03  0.80749871109E+03 -0.72732705456E+02  0.85217708459E+03  0.00000000000E+00 0. -1.
        -13    1    3    3    0    0  0.45475944531E+02  0.21659089110E+03  0.21297581903E+02  0.22233592295E+03  0.00000000000E+00 0.  1.
         22    1    1    2    0    0 -0.30789082337E+03 -0.10240896022E+04  0.31352809037E+03  0.11143859905E+04  0.00000000000E+00 0.  1.
<mgrwt>
<rscale>  0 0.21731512E+04</rscale>
<asrwt>0</asrwt>
<pdfrwt beam="1">  1        2 0.14821585E+00 0.21731512E+04</pdfrwt>
<pdfrwt beam="2">  1       -2 0.18853784E+00 0.21731512E+04</pdfrwt>
<totfact> 0.38631250E+00</totfact>
</mgrwt>
</event>
<event>
 6    1  0.1831439E-005  0.2813023E+04  0.7818608E-02  0.8299237E-01
          2   -1    0    0  501    0  0.00000000000E+00  0.00000000000E+00  0.76333083455E+03  0.76333083455E+03  0.00000000000E+00 0. -1.
         -2   -1    0    0    0  501 -0.00000000000E+00 -0.00000000000E+00 -0.25916343266E+04  0.25916343266E+04  0.00000000000E+00 0.  1.
         23    2    1    2    0    0 -0.89235715331E+03  0.91588641136E+03 -0.16093297399E+04  0.20576222182E+04  0.93369017542E+02 0.  0.
         11    1    3    3    0    0 -0.64386819490E+03  0.67090194959E+03 -0.11024848601E+04  0.14422720080E+04  0.00000000000E+00 0.  1.
        -11    1    3    3    0    0 -0.24848895841E+03  0.24498446177E+03 -0.50684487983E+03  0.61535021018E+03  0.00000000000E+00 0. -1.
         22    1    1    2    0    0  0.89235715331E+03 -0.91588641136E+03 -0.21897375217E+03  0.12973429430E+04  0.00000000000E+00 0. -1.
<mgrwt>
<rscale>  0 0.28130229E+04</rscale>
<asrwt>0</asrwt>
<pdfrwt beam="1">  1        2 0.11743551E+00 0.28130229E+04</pdfrwt>
<pdfrwt beam="2">  1       -2 0.39871298E+00 0.28130229E+04</pdfrwt>
<totfact> 0.24096824E-01</totfact>
</mgrwt>
</event>
<event>
 6    1  0.1831439E-005  0.3100571E+04  0.7818608E-02  0.8215581E-01
         -2   -1    0    0    0  501 -0.00000000000E+00  0.00000000000E+00  0.17802625109E+04  0.17802625109E+04  0.00000000000E+00 0.  1.
          2   -1    0    0  501    0  0.00000000000E+00 -0.00000000000E+00 -0.13500176674E+04  0.13500176674E+04  0.00000000000E+00 0. -1.
         23    2    1    2    0    0 -0.15037432049E+04 -0.25263326346E+03  0.49035556439E+03  0.16042787069E+04  0.90522912276E+02 0.  0.
         13    1    3    3    0    0 -0.95583822917E+03 -0.11754866717E+03  0.32005400496E+03  0.10148295303E+04  0.00000000000E+00 0. -1.
        -13    1    3    3    0    0 -0.54790497573E+03 -0.13508459629E+03  0.17030155943E+03  0.58944917654E+03  0.00000000000E+00 0.  1.
         22    1    1    2    0    0  0.15037432049E+04  0.25263326346E+03 -0.60110720952E+02  0.15260014714E+04  0.00000000000E+00 0.  1.
<mgrwt>
<rscale>  0 0.31005715E+04</rscale>
<asrwt>0</asrwt>
<pdfrwt beam="1">  1        2 0.20769503E+00 0.31005715E+04</pdfrwt>
<pdfrwt beam="2">  1       -2 0.27388654E+00 0.31005715E+04</pdfrwt>
<totfact> 0.60235163E-01</totfact>
</mgrwt>
</event>
<event>
 6    1  0.1831439E-005  0.3347336E+04  0.7818608E-02  0.8150954E-01
          1   -1    0    0  501    0  0.00000000000E+00  0.00000000000E+00  0.99098880220E+03  0.99098880220E+03  0.00000000000E+00 0. -1.
         -1   -1    0    0    0  501 -0.00000000000E+00 -0.00000000000E+00 -0.28266358944E+04  0.28266358944E+04  0.00000000000E+00 0.  1.
         23    2    1    2    0    0  0.54501870019E+03 -0.15572080843E+04 -0.12307254050E+04  0.20603903215E+04  0.92632893013E+02 0.  0.
         11    1    3    3    0    0  0.28398956893E+03 -0.68094487116E+03 -0.52940569724E+03  0.90807840250E+03  0.00000000000E+00 0. -1.
        -11    1    3    3    0    0  0.26102913126E+03 -0.87626321316E+03 -0.70131970779E+03  0.11523119190E+04  0.00000000000E+00 0.  1.
         22    1    1    2    0    0 -0.54501870019E+03  0.15572080843E+04 -0.60492168714E+03  0.17572343751E+04  0.00000000000E+00 0.  1.
<mgrwt>
<rscale>  0 0.33473360E+04</rscale>
<asrwt>0</asrwt>
<pdfrwt beam="1">  1        1 0.15245982E+00 0.33473360E+04</pdfrwt>
<pdfrwt beam="2">  1       -1 0.43486706E+00 0.33473360E+04</pdfrwt>
<totfact> 0.52258443E-02</totfact>
</mgrwt>
</event>
<event>
 6    1  0.1831439E-005  0.1357932E+04  0.7818608E-02  0.8984845E-01
          2   -1    0    0  501    0  0.00000000000E+00  0.00000000000E+00  0.21895764358E+03  0.21895764358E+03  0.00000000000E+00 0. -1.
         -2   -1    0    0    0  501 -0.00000000000E+00 -0.00000000000E+00 -0.21054078653E+04  0.21054078653E+04  0.00000000000E+00 0.  1.
         23    2    1    2    0    0  0.65951992206E+03  0.57560821479E+02 -0.71504818733E+03  0.97883122767E+03  0.92395271966E+02 0.  0.
         13    1    3    3    0    0  0.27693043547E+03  0.69919821337E+02 -0.30070047469E+03  0.41472885478E+03  0.00000000000E+00 0.  1.
        -13    1    3    3    0    0  0.38258948659E+03 -0.12358999858E+02 -0.41434771264E+03  0.56410237289E+03  0.00000000000E+00 0. -1.
         22    1    1    2    0    0 -0.65951992206E+03 -0.57560821479E+02 -0.11714020344E+04  0.13455342812E+04  0.00000000000E+00 0.  1.
<mgrwt>
<rscale>  0 0.13579325E+04</rscale>
<asrwt>0</asrwt>
<pdfrwt beam="1">  1        2 0.33685791E-01 0.13579325E+04</pdfrwt>
<pdfrwt beam="2">  1       -2 0.32390891E+00 0.13579325E+04</pdfrwt>
<totfact> 0.34800227E+00</totfact>
</mgrwt>
</event>
<event>
 6    1  0.1831439E-005  0.2050956E+04  0.7818608E-02  0.8583161E-01
         -2   -1    0    0    0  501 -0.00000000000E+00  0.00000000000E+00  0.36594034994E+03  0.36594034994E+03  0.00000000000E+00 0.  1.
          2   -1    0    0  501    0  0.00000000000E+00 -0.00000000000E+00 -0.28737063575E+04  0.28737063575E+04  0.00000000000E+00 0. -1.
         23    2    1    2    0    0 -0.50430926882E+03  0.83627123424E+03 -0.17400188165E+04  0.19974256461E+04  0.91467558038E+02 0.  0.
         11    1    3    3    0    0 -0.11456996444E+02  0.60849425479E+02 -0.10227297266E+03  0.11955616373E+03  0.00000000000E+00 0.  1.
        -11    1    3    3    0    0 -0.49285227237E+03  0.77542180876E+03 -0.16377458438E+04  0.18778694824E+04  0.00000000000E+00 0. -1.
         22    1    1    2    0    0  0.50430926882E+03 -0.83627123424E+03 -0.76774719109E+03  0.12422210614E+04  0.00000000000E+00 0. -1.
<mgrwt>
<rscale>  0 0.20509560E+04</rscale>
<asrwt>0</asrwt>
<pdfrwt beam="1">  1        2 0.44210867E+00 0.20509560E+04</pdfrwt>
<pdfrwt beam="2">  1       -2 0.56298515E-01 0.20509560E+04</pdfrwt>
<totfact> 0.57219993E+00</totfact>
</mgrwt>
</event>
<event>
 6    1  0.1831439E-005  0.4744272E+04  0.7818608E-02  0.7869214E-01
          2   -1    0    0  501    0  0.00000000000E+00  0.00000000000E+00  0.23960013019E+04  0.23960013019E+04  0.00000000000E+00 0. -1.
         -2   -1    0    0    0  501 -0.00000000000E+00 -0.00000000000E+00 -0.23485083889E+04  0.23485083889E+04  0.00000000000E+00 0.  1.
         23    2    1    2    0    0 -0.48125069015E+03  0.23182600832E+04  0.15437588962E+03  0.23744134880E+04  0.89863544549E+02 0.  0.
         13    1    3    3    0    0 -0.66101787366E+02  0.23761898496E+03  0.38184506171E+02  0.24958021720E+03  0.00000000000E+00 0. -1.
        -13    1    3    3    0    0 -0.41514890279E+03  0.20806410982E+04  0.11619138344E+03  0.21248332708E+04  0.00000000000E+00 0.  1.
         22    1    1    2    0    0  0.48125069015E+03 -0.23182600832E+04 -0.10688297663E+03  0.23700962028E+04  0.00000000000E+00 0.  1.
<mgrwt>
<rscale>  0 0.47442720E+04</rscale>
<asrwt>0</asrwt>
<pdfrwt beam="1">  1        2 0.36861559E+00 0.47442720E+04</pdfrwt>
<pdfrwt beam="2">  1       -2 0.36130898E+00 0.47442720E+04</pdfrwt>
<totfact> 0.39174002E-02</totfact>
</mgrwt>
</event>
<event>
 6    1  0.1831439E-005  0.4070031E+04  0.7818608E-02  0.7990566E-01
          2   -1    0    0  501    0  0.00000000000E+00  0.00000000000E+00  0.24942703326E+04  0.24942703326E+04  0.00000000000E+00 0.  1.
         -2   -1    0    0    0  501 -0.00000000000E+00 -0.00000000000E+00 -0.16603201049E+04  0.16603201049E+04  0.00000000000E+00 0. -1.
         23    2    1    2    0    0  0.16733422255E+04 -0.37091809806E+03 -0.70003004741E+03  0.18544274164E+04  0.10585148103E+03 0.  0.
         11    1    3    3    0    0  0.14491802146E+04 -0.34900125352E+03 -0.58259197648E+03  0.16004182517E+04  0.00000000000E+00 0.  1.
        -11    1    3    3    0    0  0.22416201091E+03 -0.21916844541E+02 -0.11743807093E+03  0.25400916462E+03  0.00000000000E+00 0. -1.
         22    1    1    2    0    0 -0.16733422255E+04  0.37091809806E+03  0.15339802751E+04  0.23001630211E+04  0.00000000000E+00 0.  1.
<mgrwt>
<rscale>  0 0.40700306E+04</rscale>
<asrwt>0</asrwt>
<pdfrwt beam="1">  1        2 0.38373390E+00 0.40700306E+04</pdfrwt>
<pdfrwt beam="2">  1       -2 0.25543386E+00 0.40700306E+04</pdfrwt>
<totfact> 0.16374428E-01</totfact>
</mgrwt>
</event>
<event>
 6    1  0.1831439E-005  0.2564840E+04  0.7818608E-02  0.8380243E-01
         -2   -1    0    0    0  501 -0.00000000000E+00  0.00000000000E+00  0.11757504808E+04  0.11757504808E+04  0.00000000000E+00 0. -1.
          2   -1    0    0  501    0  0.00000000000E+00 -0.00000000000E+00 -0.13987671683E+04  0.13987671683E+04  0.00000000000E+00 0.  1.
         23    2    1    2    0    0 -0.57257612454E+02  0.44416018483E+03 -0.13160998263E+04  0.13932524577E+04  0.92070375194E+02 0.  0.
         11    1    3    3    0    0  0.24403475451E+02  0.12613121083E+03 -0.34487530723E+03  0.36802661520E+03  0.00000000000E+00 0.  1.
        -11    1    3    3    0    0 -0.81661087906E+02  0.31802897400E+03 -0.97122451909E+03  0.10252258425E+04  0.00000000000E+00 0. -1.
         22    1    1    2    0    0  0.57257612454E+02 -0.44416018483E+03  0.10930831389E+04  0.11812651914E+04  0.00000000000E+00 0. -1.
<mgrwt>
<rscale>  0 0.25648401E+04</rscale>
<asrwt>0</asrwt>
<pdfrwt beam="1">  1        2 0.21519495E+00 0.25648401E+04</pdfrwt>
<pdfrwt beam="2">  1       -2 0.18088469E+00 0.25648401E+04</pdfrwt>
<totfact> 0.22992367E+00</totfact>
</mgrwt>
</event>
<event>
 6    1  0.1831439E-005  0.1377337E+04  0.7818608E-02  0.8970389E-01
          3   -1    0    0  501    0  0.00000000000E+00  0.00000000000E+00  0.85846770588E+03  0.85846770588E+03  0.00000000000E+00 0. -1.
         -3   -1    0    0    0  501 -0.00000000000E+00 -0.00000000000E+00 -0.55245412318E+03  0.55245412318E+03  0.00000000000E+00 0.  1.
         23    2    1    2    0    0  0.41442270129E+02  0.52516707561E+03 -0.29599926892E+03  0.61096095965E+03  0.90220884276E+02 0.  0.
         13    1    3    3    0    0  0.56793651947E+02  0.37969181873E+03 -0.17875501068E+03  0.42349114507E+03  0.00000000000E+00 0. -1.
        -13    1    3    3    0    0 -0.15351381819E+02  0.14547525688E+03 -0.11724425824E+03  0.18746981458E+03  0.00000000000E+00 0.  1.
         22    1    1    2    0    0 -0.41442270129E+02 -0.52516707561E+03  0.60201285162E+03  0.79996086941E+03  0.00000000000E+00 0. -1.
<mgrwt>
<rscale>  0 0.13773366E+04</rscale>
<asrwt>0</asrwt>
<pdfrwt beam="1">  1        3 0.13207195E+00 0.13773366E+04</pdfrwt>
<pdfrwt beam="2">  1       -3 0.84992942E-01 0.13773366E+04</pdfrwt>
<totfact> 0.14502005E+00</totfact>
</mgrwt>
</event>
<event>
 6    1  0.1831439E-005  0.1433349E+04  0.7818608E-02  0.8930027E-01
          1   -1    0    0  501    0  0.00000000000E+00  0.00000000000E+00  0.62558654527E+03  0.62558654527E+03  0.00000000000E+00 0. -1.
         -1   -1    0    0    0  501 -0.00000000000E+00 -0.00000000000E+00 -0.82102505604E+03  0.82102505604E+03  0.00000000000E+00 0.  1.
         23    2    1    2    0    0  0.56096668410E+03  0.41888995713E+03  0.41995014641E+02  0.70733689199E+03  0.91703220537E+02 0.  0.
         11    1    3    3    0    0  0.14554473734E+03  0.62443530127E+02  0.18464546087E+02  0.15944718399E+03  0.00000000000E+00 0. -1.
        -11    1    3    3    0    0  0.41542194677E+03  0.35644642700E+03  0.23530468554E+02  0.54788970800E+03  0.00000000000E+00 0.  1.
         22    1    1    2    0    0 -0.56096668410E+03 -0.41888995713E+03 -0.23743352541E+03  0.73927470933E+03  0.00000000000E+00 0.  1.
<mgrwt>
<rscale>  0 0.14333488E+04</rscale>
<asrwt>0</asrwt>
<pdfrwt beam="1">  1        1 0.96244084E-01 0.14333488E+04</pdfrwt>
<pdfrwt beam="2">  1       -1 0.12631155E+00 0.14333488E+04</pdfrwt>
<totfact> 0.17092882E+01</totfact>
</mgrwt>
</event>
<event>
 6    1  0.1831439E-005  0.2171220E+04  0.7818608E-02  0.8530503E-01
         -2   -1    0    0    0  501 -0.00000000000E+00  0.00000000000E+00  0.52194450548E+03  0.52194450548E+03  0.00000000000E+00 0.  1.
          2   -1    0    0  501    0  0.00000000000E+00 -0.00000000000E+00 -0.22579970406E+04  0.22579970406E+04  0.00000000000E+00 0. -1.
         23    2    1    2    0    0  0.47846309223E+03 -0.55563621525E+03 -0.18912844794E+04  0.20304380499E+04  0.89795088632E+02 0.  0.
         11    1    3    3    0    0  0.14096032563E+03 -0.18953466108E+03 -0.71835067566E+03  0.75618839873E+03  0.00000000000E+00 0. -1.
        -11    1    3    3    0    0  0.33750276661E+03 -0.36610155417E+03 -0.11729338038E+04  0.12742496511E+04  0.00000000000E+00 0.  1.
         22    1    1    2    0    0 -0.47846309223E+03  0.55563621525E+03  0.15523194429E+03  0.74950349623E+03  0.00000000000E+00 0.  1.
<mgrwt>
<rscale>  0 0.21712201E+04</rscale>
<asrwt>0</asrwt>
<pdfrwt beam="1">  1        2 0.34738416E+00 0.21712201E+04</pdfrwt>
<pdfrwt beam="2">  1       -2 0.80299154E-01 0.21712201E+04</pdfrwt>
<totfact> 0.60138581E+00</totfact>
</mgrwt>
</event>
<event>
 6    1  0.1831439E-005  0.3511582E+04  0.7818608E-02  0.8111051E-01
          2   -1    0    0  501    0  0.00000000000E+00  0.00000000000E+00  0.34303640719E+04  0.34303640719E+04  0.00000000000E+00 0.  1.
         -2   -1    0    0    0  501 -0.00000000000E+00 -0.00000000000E+00 -0.89868096354E+03  0.89868096354E+03  0.00000000000E+00 0. -1.
         23    2    1    2    0    0  0.89988408605E+03 -0.40843004984E+03 -0.52067868787E+03  0.11206935882E+04  0.90781874352E+02 0.  0.
         13    1    3    3    0    0  0.70790419618E+03 -0.30456090479E+03 -0.44367385888E+03  0.88923123469E+03  0.00000000000E+00 0.  1.
        -13    1    3    3    0    0  0.19197988987E+03 -0.10386914505E+03 -0.77004828984E+02  0.23146235351E+03  0.00000000000E+00 0. -1.
         22    1    1    2    0    0 -0.89988408605E+03  0.40843004984E+03  0.30523617963E+04  0.32083514473E+04  0.00000000000E+00 0.  1.
<mgrwt>
<rscale>  0 0.35115825E+04</rscale>
<asrwt>0</asrwt>
<pdfrwt beam="1">  1        2 0.52774831E+00 0.35115825E+04</pdfrwt>
<pdfrwt beam="2">  1       -2 0.13825861E+00 0.35115825E+04</pdfrwt>
<totfact> 0.27638614E-01</totfact>
</mgrwt>
</event>
<event>
 6    1  0.1831439E-005  0.2822825E+04  0.7818608E-02  0.8296217E-01
          1   -1    0    0  501    0  0.00000000000E+00  0.00000000000E+00  0.14167030060E+04  0.14167030060E+04  0.00000000000E+00 0. -1.
         -1   -1    0    0    0  501 -0.00000000000E+00 -0.00000000000E+00 -0.14061414366E+04  0.14061414366E+04  0.00000000000E+00 0.  1.
         23    2    1    2    0    0  0.12452604323E+04  0.24008626578E+03 -0.61086544911E+03  0.14105815426E+04  0.90932568003E+02 0.  0.
         13    1    3    3    0    0  0.35861301455E+03  0.28116014158E+02 -0.18093757074E+03  0.40265644036E+03  0.00000000000E+00 0.  1.
        -13    1    3    3    0    0  0.88664741779E+03  0.21197025162E+03 -0.42992787837E+03  0.10079251022E+04  0.00000000000E+00 0. -1.
         22    1    1    2    0    0 -0.12452604323E+04 -0.24008626578E+03  0.62142701857E+03  0.14122629000E+04  0.00000000000E+00 0.  1.
<mgrwt>
<rscale>  0 0.28228247E+04</rscale>
<asrwt>0</asrwt>
<pdfrwt beam="1">  1        1 0.21795431E+00 0.28228247E+04</pdfrwt>
<pdfrwt beam="2">  1       -1 0.21632945E+00 0.28228247E+04</pdfrwt>
<totfact> 0.75266672E-01</totfact>
</mgrwt>
</event>
<event>
 6    1  0.1831439E-005  0.2751050E+04  0.7818608E-02  0.8318629E-01
          2   -1    0    0  501    0  0.00000000000E+00  0.00000000000E+00  0.27515045341E+04  0.27515045341E+04  0.00000000000E+00 0. -1.
         -2   -1    0    0    0  501 -0.00000000000E+00 -0.00000000000E+00 -0.68764879432E+03  0.68764879432E+03  0.00000000000E+00 0.  1.
         23    2    1    2    0    0  0.12306665521E+04 -0.42362166727E+03  0.48261576971E+03  0.13911505642E+04  0.91577461734E+02 0.  0.
         13    1    3    3    0    0  0.49717663580E+03 -0.17516209351E+03  0.24344709141E+03  0.58063142569E+03  0.00000000000E+00 0. -1.
        -13    1    3    3    0    0  0.73348991632E+03 -0.24845957376E+03  0.23916867830E+03  0.81051913846E+03  0.00000000000E+00 0.  1.
         22    1    1    2    0    0 -0.12306665521E+04  0.42362166727E+03  0.15812399700E+04  0.20480027642E+04  0.00000000000E+00 0. -1.
<mgrwt>
<rscale>  0 0.27510498E+04</rscale>
<asrwt>0</asrwt>
<pdfrwt beam="1">  1        2 0.42330838E+00 0.27510498E+04</pdfrwt>
<pdfrwt beam="2">  1       -2 0.10579212E+00 0.27510498E+04</pdfrwt>
<totfact> 0.15595401E+00</totfact>
</mgrwt>
</event>
<event>
 6    1  0.1831439E-005  0.1576307E+04  0.7818608E-02  0.8835237E-01
          2   -1    0    0  501    0  0.00000000000E+00  0.00000000000E+00  0.12924278791E+04  0.12924278791E+04  0.00000000000E+00 0. -1.
         -2   -1    0    0    0  501 -0.00000000000E+00 -0.00000000000E+00 -0.48063486238E+03  0.48063486238E+03  0.00000000000E+00 0.  1.
         23    2    1    2    0    0 -0.37724653969E+03  0.90983372928E+02 -0.36086652572E+03  0.53786100559E+03  0.92070006509E+02 0.  0.
         13    1    3    3    0    0 -0.55055971363E+02  0.49134523855E+02 -0.61225424253E+02  0.95884899708E+02  0.00000000000E+00 0.  1.
        -13    1    3    3    0    0 -0.32219056832E+03  0.41848849073E+02 -0.29964110147E+03  0.44197610589E+03  0.00000000000E+00 0. -1.
         22    1    1    2    0    0  0.37724653969E+03 -0.90983372928E+02  0.11726595425E+04  0.12352017359E+04  0.00000000000E+00 0. -1.
<mgrwt>
<rscale>  0 0.15763069E+04</rscale>
<asrwt>0</asrwt>
<pdfrwt beam="1">  1        2 0.19883506E+00 0.15763069E+04</pdfrwt>
<pdfrwt beam="2">  1       -2 0.73943825E-01 0.15763069E+04</pdfrwt>
<totfact> 0.26438135E+01</totfact>
</mgrwt>
</event>
<event>
 6    1  0.1831439E-005  0.6651258E+03  0.7818608E-02  0.9778803E-01
          2   -1    0    0  501    0  0.00000000000E+00  0.00000000000E+00  0.12763272998E+04  0.12763272998E+04  0.00000000000E+00 0. -1.
         -2   -1    0    0    0  501 -0.00000000000E+00 -0.00000000000E+00 -0.86653394078E+02  0.86653394078E+02  0.00000000000E+00 0.  1.
         23    2    1    2    0    0  0.11020614247E+03 -0.85339199482E+02  0.12106605269E+04  0.12220246331E+04  0.90648329901E+02 0.  0.
         11    1    3    3    0    0  0.59605856213E+02 -0.94250053063E+02  0.93399381741E+03  0.94062765298E+03  0.00000000000E+00 0.  1.
        -11    1    3    3    0    0  0.50600286260E+02  0.89108535805E+01  0.27666670946E+03  0.28139698009E+03  0.00000000000E+00 0. -1.
         22    1    1    2    0    0 -0.11020614247E+03  0.85339199482E+02 -0.20986621157E+02  0.14095606079E+03  0.00000000000E+00 0.  1.
<mgrwt>
<rscale>  0 0.66512583E+03</rscale>
<asrwt>0</asrwt>
<pdfrwt beam="1">  1        2 0.19635803E+00 0.66512583E+03</pdfrwt>
<pdfrwt beam="2">  1       -2 0.13331292E-01 0.66512583E+03</pdfrwt>
<totfact> 0.73784176E+02</totfact>
</mgrwt>
</event>
<event>
 6    1  0.1831439E-005  0.2051443E+04  0.7818608E-02  0.8582940E-01
          2   -1    0    0  501    0  0.00000000000E+00  0.00000000000E+00  0.20101557349E+04  0.20101557349E+04  0.00000000000E+00 0. -1.
         -2   -1    0    0    0  501 -0.00000000000E+00 -0.00000000000E+00 -0.52339432308E+03  0.52339432308E+03  0.00000000000E+00 0.  1.
         23    2    1    2    0    0 -0.78706374283E+03  0.61637998176E+02 -0.59629225949E+02  0.79729184484E+03  0.94074774284E+02 0.  0.
         13    1    3    3    0    0 -0.18254959956E+03  0.54448217401E+02 -0.15538037623E+02  0.19112926330E+03  0.00000000000E+00 0. -1.
        -13    1    3    3    0    0 -0.60451414328E+03  0.71897807748E+01 -0.44091188326E+02  0.60616258154E+03  0.00000000000E+00 0.  1.
         22    1    1    2    0    0  0.78706374283E+03 -0.61637998176E+02  0.15463906377E+04  0.17362582131E+04  0.00000000000E+00 0. -1.
<mgrwt>
<rscale>  0 0.20514425E+04</rscale>
<asrwt>0</asrwt>
<pdfrwt beam="1">  1        2 0.30925472E+00 0.20514425E+04</pdfrwt>
<pdfrwt beam="2">  1       -2 0.80522205E-01 0.20514425E+04</pdfrwt>
<totfact> 0.83106209E+00</totfact>
</mgrwt>
</event>
<event>
 6    1  0.1831439E-005  0.3956730E+04  0.7818608E-02  0.8013333E-01
         -2   -1    0    0    0  501 -0.00000000000E+00  0.00000000000E+00  0.12105396225E+04  0.12105396225E+04  0.00000000000E+00 0.  1.
          2   -1    0    0  501    0  0.00000000000E+00 -0.00000000000E+00 -0.32332090053E+04  0.32332090053E+04  0.00000000000E+00 0. -1.
         23    2    1    2    0    0  0.58162151536E+03 -0.18149540901E+04 -0.16032758308E+04  0.24922792102E+04  0.92845762828E+02 0.  0.
         13    1    3    3    0    0  0.30288236692E+03 -0.10853025607E+04 -0.92600076746E+03  0.14584569921E+04  0.00000000000E+00 0. -1.
        -13    1    3    3    0    0  0.27873914844E+03 -0.72965152940E+03 -0.67727506334E+03  0.10338222181E+04  0.00000000000E+00 0.  1.
         22    1    1    2    0    0 -0.58162151536E+03  0.18149540901E+04 -0.41939355200E+03  0.19514694176E+04  0.00000000000E+00 0.  1.
<mgrwt>
<rscale>  0 0.39567298E+04</rscale>
<asrwt>0</asrwt>
<pdfrwt beam="1">  1        2 0.49741677E+00 0.39567298E+04</pdfrwt>
<pdfrwt beam="2">  1       -2 0.18623687E+00 0.39567298E+04</pdfrwt>
<totfact> 0.16028125E-01</totfact>
</mgrwt>
</event>
<event>
 6    1  0.1831439E-005  0.1093710E+04  0.7818608E-02  0.9211344E-01
         -1   -1    0    0    0  501 -0.00000000000E+00  0.00000000000E+00  0.32823961748E+03  0.32823961748E+03  0.00000000000E+00 0.  1.
          1   -1    0    0  501    0  0.00000000000E+00 -0.00000000000E+00 -0.91107313120E+03  0.91107313120E+03  0.00000000000E+00 0. -1.
         23    2    1    2    0    0  0.33169777855E+03  0.15544213638E+03  0.16385317297E+03  0.40761167129E+03  0.71510406429E+02 0.  0.
         11    1    3    3    0    0  0.27636473056E+03  0.15580476231E+03  0.13084908083E+03  0.34318226966E+03  0.00000000000E+00 0. -1.
        -11    1    3    3    0    0  0.55333047988E+02 -0.36262592643E+00  0.33004092131E+02  0.64429401632E+02  0.00000000000E+00 0.  1.
         22    1    1    2    0    0 -0.33169777855E+03 -0.15544213638E+03 -0.74668668668E+03  0.83170107738E+03  0.00000000000E+00 0. -1.
<mgrwt>
<rscale>  0 0.10937098E+04</rscale>
<asrwt>0</asrwt>
<pdfrwt beam="1">  1        1 0.14016510E+00 0.10937098E+04</pdfrwt>
<pdfrwt beam="2">  1       -1 0.50498402E-01 0.10937098E+04</pdfrwt>
<totfact> 0.69947159E+01</totfact>
</mgrwt>
</event>
<event>
 6    1  0.1831439E-005  0.3359145E+04  0.7818608E-02  0.8148007E-01
         -1   -1    0    0    0  501 -0.00000000000E+00  0.00000000000E+00  0.97513939214E+03  0.97513939214E+03  0.00000000000E+00 0.  1.
          1   -1    0    0  501    0  0.00000000000E+00 -0.00000000000E+00 -0.28928819043E+04  0.28928819043E+04  0.00000000000E+00 0. -1.
         23    2    1    2    0    0 -0.72558048289E+03  0.19382070942E+03 -0.26879083466E+04  0.27922941391E+04  0.89564361632E+02 0.  0.
         11    1    3    3    0    0 -0.21903005514E+03  0.94933830501E+02 -0.93413327857E+03  0.96415329661E+03  0.00000000000E+00 0. -1.
        -11    1    3    3    0    0 -0.50655042775E+03  0.98886878917E+02 -0.17537750681E+04  0.18281408425E+04  0.00000000000E+00 0.  1.
         22    1    1    2    0    0  0.72558048289E+03 -0.19382070942E+03  0.77016583444E+03  0.10757271574E+04  0.00000000000E+00 0.  1.
<mgrwt>
<rscale>  0 0.33591446E+04</rscale>
<asrwt>0</asrwt>
<pdfrwt beam="1">  1        1 0.44505875E+00 0.33591446E+04</pdfrwt>
<pdfrwt beam="2">  1       -1 0.15002145E+00 0.33591446E+04</pdfrwt>
<totfact> 0.20568444E-01</totfact>
</mgrwt>
</event>
<event>
 6    1  0.1831439E-005  0.3239145E+04  0.7818608E-02  0.8178555E-01
         -1   -1    0    0    0  501 -0.00000000000E+00  0.00000000000E+00  0.12013501886E+04  0.12013501886E+04  0.00000000000E+00 0.  1.
          1   -1    0    0  501    0  0.00000000000E+00 -0.00000000000E+00 -0.21833897168E+04  0.21833897168E+04  0.00000000000E+00 0. -1.
         23    2    1    2    0    0 -0.12457657737E+04  0.25740681566E+02  0.58755234241E+03  0.13806906082E+04  0.92162111828E+02 0.  0.
         13    1    3    3    0    0 -0.66273905725E+03  0.54538632270E+02  0.28950747377E+03  0.72526691486E+03  0.00000000000E+00 0.  1.
        -13    1    3    3    0    0 -0.58302671644E+03 -0.28797950704E+02  0.29804486864E+03  0.65542369332E+03  0.00000000000E+00 0. -1.
         22    1    1    2    0    0  0.12457657737E+04 -0.25740681566E+02 -0.15695918706E+04  0.20040492972E+04  0.00000000000E+00 0. -1.
<mgrwt>
<rscale>  0 0.32391453E+04</rscale>
<asrwt>0</asrwt>
<pdfrwt beam="1">  1        1 0.33590611E+00 0.32391453E+04</pdfrwt>
<pdfrwt beam="2">  1       -1 0.18482311E+00 0.32391453E+04</pdfrwt>
<totfact> 0.35841656E-01</totfact>
</mgrwt>
</event>
<event>
 6    1  0.1831439E-005  0.2152617E+04  0.7818608E-02  0.8538413E-01
         -1   -1    0    0    0  501 -0.00000000000E+00  0.00000000000E+00  0.15129241623E+04  0.15129241623E+04  0.00000000000E+00 0.  1.
          1   -1    0    0  501    0  0.00000000000E+00 -0.00000000000E+00 -0.76569587868E+03  0.76569587868E+03  0.00000000000E+00 0. -1.
         23    2    1    2    0    0  0.54967086422E+03  0.91439775920E+03  0.23984559320E+03  0.10972231917E+04  0.90063881486E+02 0.  0.
         11    1    3    3    0    0  0.51656604500E+02  0.45278090167E+02  0.90339856044E+01  0.69282920937E+02  0.00000000000E+00 0.  1.
        -11    1    3    3    0    0  0.49801425972E+03  0.86911966904E+03  0.23081160759E+03  0.10279402707E+04  0.00000000000E+00 0. -1.
         22    1    1    2    0    0 -0.54967086422E+03 -0.91439775920E+03  0.50738269041E+03  0.11813968493E+04  0.00000000000E+00 0. -1.
<mgrwt>
<rscale>  0 0.21526168E+04</rscale>
<asrwt>0</asrwt>
<pdfrwt beam="1">  1        1 0.11779937E+00 0.21526168E+04</pdfrwt>
<pdfrwt beam="2">  1       -1 0.23275756E+00 0.21526168E+04</pdfrwt>
<totfact> 0.19641722E+00</totfact>
</mgrwt>
</event>
<event>
 6    1  0.1831439E-005  0.1216028E+04  0.7818608E-02  0.9098942E-01
          2   -1    0    0  501    0  0.00000000000E+00  0.00000000000E+00  0.52977133726E+03  0.52977133726E+03  0.00000000000E+00 0. -1.
         -2   -1    0    0    0  501 -0.00000000000E+00 -0.00000000000E+00 -0.69781194748E+03  0.69781194748E+03  0.00000000000E+00 0.  1.
         23    2    1    2    0    0  0.54065824733E+03 -0.20751660584E+03  0.89699287905E+02  0.59370290392E+03  0.95198181517E+02 0.  0.
         11    1    3    3    0    0  0.24701362544E+03 -0.44482492556E+02  0.41470969666E+02  0.25438998531E+03  0.00000000000E+00 0. -1.
        -11    1    3    3    0    0  0.29364462189E+03 -0.16303411328E+03  0.48228318239E+02  0.33931291861E+03  0.00000000000E+00 0.  1.
         22    1    1    2    0    0 -0.54065824733E+03  0.20751660584E+03 -0.25773989812E+03  0.63388038082E+03  0.00000000000E+00 0.  1.
<mgrwt>
<rscale>  0 0.12160276E+04</rscale>
<asrwt>0</asrwt>
<pdfrwt beam="1">  1        2 0.81503283E-01 0.12160276E+04</pdfrwt>
<pdfrwt beam="2">  1       -2 0.10735568E+00 0.12160276E+04</pdfrwt>
<totfact> 0.39530191E+01</totfact>
</mgrwt>
</event>
<event>
 6    1  0.1831439E-005  0.3028123E+04  0.7818608E-02  0.8235745E-01
         -1   -1    0    0    0  501 -0.00000000000E+00  0.00000000000E+00  0.17114145552E+04  0.17114145552E+04  0.00000000000E+00 0.  1.
          1   -1    0    0  501    0  0.00000000000E+00 -0.00000000000E+00 -0.13394664535E+04  0.13394664535E+04  0.00000000000E+00 0. -1.
         23    2    1    2    0    0 -0.10749451100E+04 -0.71857093154E+03 -0.60468095946E+03  0.14304935562E+04  0.93923258919E+02 0.  0.
         11    1    3    3    0    0 -0.50456743574E+03 -0.35207867591E+03 -0.23780287017E+03  0.65961950873E+03  0.00000000000E+00 0. -1.
        -11    1    3    3    0    0 -0.57037767423E+03 -0.36649225563E+03 -0.36687808929E+03  0.77087404749E+03  0.00000000000E+00 0.  1.
         22    1    1    2    0    0  0.10749451100E+04  0.71857093154E+03  0.97662906109E+03  0.16203874525E+04  0.00000000000E+00 0.  1.
<mgrwt>
<rscale>  0 0.30281231E+04</rscale>
<asrwt>0</asrwt>
<pdfrwt beam="1">  1        1 0.20607176E+00 0.30281231E+04</pdfrwt>
<pdfrwt beam="2">  1       -1 0.26329455E+00 0.30281231E+04</pdfrwt>
<totfact> 0.41110636E-01</totfact>
</mgrwt>
</event>
<event>
 6    1  0.1831439E-005  0.1252754E+04  0.7818608E-02  0.9067894E-01
         -2   -1    0    0    0  501 -0.00000000000E+00  0.00000000000E+00  0.35879107000E+03  0.35879107000E+03  0.00000000000E+00 0.  1.
          2   -1    0    0  501    0  0.00000000000E+00 -0.00000000000E+00 -0.10935277462E+04  0.10935277462E+04  0.00000000000E+00 0. -1.
         23    2    1    2    0    0  0.28950018542E+03  0.20836027067E+03  0.22295912623E+03  0.43035716833E+03  0.90951418943E+02 0.  0.
         13    1    3    3    0    0  0.16219056752E+03  0.12659603771E+03  0.17921471512E+03  0.27285573308E+03  0.00000000000E+00 0.  1.
        -13    1    3    3    0    0  0.12730961791E+03  0.81764232960E+02  0.43744411101E+02  0.15750143525E+03  0.00000000000E+00 0. -1.
         22    1    1    2    0    0 -0.28950018542E+03 -0.20836027067E+03 -0.95769580241E+03  0.10219616479E+04  0.00000000000E+00 0. -1.
<mgrwt>
<rscale>  0 0.12527538E+04</rscale>
<asrwt>0</asrwt>
<pdfrwt beam="1">  1        2 0.16823503E+00 0.12527538E+04</pdfrwt>
<pdfrwt beam="2">  1       -2 0.55198628E-01 0.12527538E+04</pdfrwt>
<totfact> 0.66713143E+01</totfact>
</mgrwt>
</event>
<event>
 6    1  0.1831439E-005  0.1491889E+04  0.7818608E-02  0.8889865E-01
         -2   -1    0    0    0  501 -0.00000000000E+00  0.00000000000E+00  0.55428549641E+03  0.55428549641E+03  0.00000000000E+00 0.  1.
          2   -1    0    0  501    0  0.00000000000E+00 -0.00000000000E+00 -0.10038747656E+04  0.10038747656E+04  0.00000000000E+00 0. -1.
         23    2    1    2    0    0  0.68982148117E+02  0.42953843539E+03  0.40380132693E+03  0.60027858153E+03  0.89538034272E+02 0.  0.
         11    1    3    3    0    0  0.33655540329E+02  0.10815440097E+03  0.59425965567E+02  0.12791213871E+03  0.00000000000E+00 0. -1.
        -11    1    3    3    0    0  0.35326607787E+02  0.32138403442E+03  0.34437536136E+03  0.47236644283E+03  0.00000000000E+00 0.  1.
         22    1    1    2    0    0 -0.68982148117E+02 -0.42953843539E+03 -0.85339059610E+03  0.95788168046E+03  0.00000000000E+00 0. -1.
<mgrwt>
<rscale>  0 0.14918890E+04</rscale>
<asrwt>0</asrwt>
<pdfrwt beam="1">  1        2 0.15444227E+00 0.14918890E+04</pdfrwt>
<pdfrwt beam="2">  1       -2 0.85274691E-01 0.14918890E+04</pdfrwt>
<totfact> 0.28966924E+01</totfact>
</mgrwt>
</event>
<event>
 6    1  0.1831439E-005  0.3554223E+04  0.7818608E-02  0.8101059E-01
          2   -1    0    0  501    0  0.00000000000E+00  0.00000000000E+00  0.19866329278E+04  0.19866329278E+04  0.00000000000E+00 0.  1.
         -2   -1    0    0    0  501 -0.00000000000E+00 -0.00000000000E+00 -0.15896877246E+04  0.15896877246E+04  0.00000000000E+00 0. -1.
         23    2    1    2    0    0 -0.17752886632E+04  0.53808141179E+02  0.21719486610E+03  0.17911440960E+04  0.80488566271E+02 0.  0.
         11    1    3    3    0    0 -0.24051479111E+03  0.34133026324E+02  0.23095367278E+02  0.24402013077E+03  0.00000000000E+00 0. -1.
        -11    1    3    3    0    0 -0.15347738720E+04  0.19675114855E+02  0.19409949883E+03  0.15471239653E+04  0.00000000000E+00 0.  1.
         22    1    1    2    0    0  0.17752886632E+04 -0.53808141179E+02  0.17975033708E+03  0.17851765563E+04  0.00000000000E+00 0.  1.
<mgrwt>
<rscale>  0 0.35542234E+04</rscale>
<asrwt>0</asrwt>
<pdfrwt beam="1">  1        2 0.30563583E+00 0.35542234E+04</pdfrwt>
<pdfrwt beam="2">  1       -2 0.24456734E+00 0.35542234E+04</pdfrwt>
<totfact> 0.38597244E-01</totfact>
</mgrwt>
</event>
<event>
 6    1  0.1831439E-005  0.3446147E+04  0.7818608E-02  0.8126672E-01
         -1   -1    0    0    0  501 -0.00000000000E+00  0.00000000000E+00  0.36920097825E+04  0.36920097825E+04  0.00000000000E+00 0.  1.
          1   -1    0    0  501    0  0.00000000000E+00 -0.00000000000E+00 -0.80416401939E+03  0.80416401939E+03  0.00000000000E+00 0. -1.
         23    2    1    2    0    0 -0.28103955906E+03 -0.93810251767E+03 -0.40289323044E+03  0.10628106270E+04  0.90685755325E+02 0.  0.
         11    1    3    3    0    0 -0.18294503398E+03 -0.73972217350E+03 -0.30397039332E+03  0.82039976806E+03  0.00000000000E+00 0. -1.
        -11    1    3    3    0    0 -0.98094525081E+02 -0.19838034416E+03 -0.98922837125E+02  0.24241085889E+03  0.00000000000E+00 0.  1.
         22    1    1    2    0    0  0.28103955906E+03  0.93810251767E+03  0.32907389936E+04  0.34333631750E+04  0.00000000000E+00 0.  1.
<mgrwt>
<rscale>  0 0.34461465E+04</rscale>
<asrwt>0</asrwt>
<pdfrwt beam="1">  1        1 0.12371754E+00 0.34461465E+04</pdfrwt>
<pdfrwt beam="2">  1       -1 0.56800150E+00 0.34461465E+04</pdfrwt>
<totfact> 0.10886428E-02</totfact>
</mgrwt>
</event>
<event>
 6    1  0.1831439E-005  0.1323433E+04  0.7818608E-02  0.9011186E-01
         -2   -1    0    0    0  501 -0.00000000000E+00  0.00000000000E+00  0.42575539311E+03  0.42575539311E+03  0.00000000000E+00 0.  1.
          2   -1    0    0  501    0  0.00000000000E+00 -0.00000000000E+00 -0.10284512913E+04  0.10284512913E+04  0.00000000000E+00 0. -1.
         23    2    1    2    0    0  0.60012236272E+03 -0.18899946397E+03 -0.90002218311E+02  0.64258949815E+03  0.94621436320E+02 0.  0.
         11    1    3    3    0    0  0.13976637482E+03 -0.18284430304E+02  0.10757566080E+02  0.14136719969E+03  0.00000000000E+00 0. -1.
        -11    1    3    3    0    0  0.46035598791E+03 -0.17071503367E+03 -0.10075978439E+03  0.50122229846E+03  0.00000000000E+00 0.  1.
         22    1    1    2    0    0 -0.60012236272E+03  0.18899946397E+03 -0.51269367987E+03  0.81161718624E+03  0.00000000000E+00 0. -1.
<mgrwt>
<rscale>  0 0.13234329E+04</rscale>
<asrwt>0</asrwt>
<pdfrwt beam="1">  1        2 0.15822327E+00 0.13234329E+04</pdfrwt>
<pdfrwt beam="2">  1       -2 0.65500830E-01 0.13234329E+04</pdfrwt>
<totfact> 0.50767582E+01</totfact>
</mgrwt>
</event>
<event>
 6    1  0.1831439E-005  0.1975585E+04  0.7818608E-02  0.8618121E-01
          1   -1    0    0  501    0  0.00000000000E+00  0.00000000000E+00  0.41228585050E+04  0.41228585050E+04  0.00000000000E+00 0. -1.
         -1   -1    0    0    0  501 -0.00000000000E+00 -0.00000000000E+00 -0.23666445815E+03  0.23666445815E+03  0.00000000000E+00 0.  1.
         23    2    1    2    0    0  0.30200885812E+01 -0.69841151764E+03  0.41271730787E+03  0.81652586674E+03  0.92688434799E+02 0.  0.
         11    1    3    3    0    0 -0.37892336388E+02 -0.16589287401E+03  0.10980913860E+03  0.20251992920E+03  0.00000000000E+00 0. -1.
        -11    1    3    3    0    0  0.40912424969E+02 -0.53251864363E+03  0.30290816928E+03  0.61400593754E+03  0.00000000000E+00 0.  1.
         22    1    1    2    0    0 -0.30200885812E+01  0.69841151764E+03  0.34734767390E+04  0.35429970964E+04  0.00000000000E+00 0. -1.
<mgrwt>
<rscale>  0 0.19755851E+04</rscale>
<asrwt>0</asrwt>
<pdfrwt beam="1">  1        1 0.63428587E+00 0.19755851E+04</pdfrwt>
<pdfrwt beam="2">  1       -1 0.36409920E-01 0.19755851E+04</pdfrwt>
<totfact> 0.50535958E-01</totfact>
</mgrwt>
</event>
<event>
 6    1  0.1831439E-005  0.3194432E+04  0.7818608E-02  0.8190289E-01
          2   -1    0    0  501    0  0.00000000000E+00  0.00000000000E+00  0.19292244473E+04  0.19292244473E+04  0.00000000000E+00 0. -1.
         -2   -1    0    0    0  501 -0.00000000000E+00 -0.00000000000E+00 -0.13223446414E+04  0.13223446414E+04  0.00000000000E+00 0.  1.
         23    2    1    2    0    0 -0.12916975725E+04 -0.93725694691E+03  0.30211792480E+03  0.16268189518E+04  0.91276821302E+02 0.  0.
         13    1    3    3    0    0 -0.39583932998E+03 -0.34007147577E+03  0.99826878559E+02  0.53132173819E+03  0.00000000000E+00 0.  1.
        -13    1    3    3    0    0 -0.89585824248E+03 -0.59718547114E+03  0.20229104624E+03  0.10954972136E+04  0.00000000000E+00 0. -1.
         22    1    1    2    0    0  0.12916975725E+04  0.93725694691E+03  0.30476188113E+03  0.16247501369E+04  0.00000000000E+00 0.  1.
<mgrwt>
<rscale>  0 0.31944324E+04</rscale>
<asrwt>0</asrwt>
<pdfrwt beam="1">  1        2 0.29680376E+00 0.31944324E+04</pdfrwt>
<pdfrwt beam="2">  1       -2 0.20343764E+00 0.31944324E+04</pdfrwt>
<totfact> 0.77827951E-01</totfact>
</mgrwt>
</event>
<event>
 6    1  0.1831439E-005  0.2171382E+04  0.7818608E-02  0.8530435E-01
         -2   -1    0    0    0  501 -0.00000000000E+00  0.00000000000E+00  0.69052053507E+03  0.69052053507E+03  0.00000000000E+00 0.  1.
          2   -1    0    0  501    0  0.00000000000E+00 -0.00000000000E+00 -0.17070094400E+04  0.17070094400E+04  0.00000000000E+00 0. -1.
         23    2    1    2    0    0 -0.61583226155E+03  0.87150110780E+03 -0.71757429645E+03  0.12893271514E+04  0.93209855327E+02 0.  0.
         11    1    3    3    0    0 -0.18416019200E+03  0.33793048347E+03 -0.25442011050E+03  0.46134757027E+03  0.00000000000E+00 0.  1.
        -11    1    3    3    0    0 -0.43167206955E+03  0.53357062433E+03 -0.46315418596E+03  0.82797958112E+03  0.00000000000E+00 0. -1.
         22    1    1    2    0    0  0.61583226155E+03 -0.87150110780E+03 -0.29891460850E+03  0.11082028237E+04  0.00000000000E+00 0. -1.
<mgrwt>
<rscale>  0 0.21713821E+04</rscale>
<asrwt>0</asrwt>
<pdfrwt beam="1">  1        2 0.26261683E+00 0.21713821E+04</pdfrwt>
<pdfrwt beam="2">  1       -2 0.10623393E+00 0.21713821E+04</pdfrwt>
<totfact> 0.63646516E+00</totfact>
</mgrwt>
</event>
<event>
 6    1  0.1831439E-005  0.1625114E+04  0.7818608E-02  0.8805266E-01
         -1   -1    0    0    0  501 -0.00000000000E+00  0.00000000000E+00  0.69994748860E+03  0.69994748860E+03  0.00000000000E+00 0.  1.
          1   -1    0    0  501    0  0.00000000000E+00 -0.00000000000E+00 -0.94328369862E+03  0.94328369862E+03  0.00000000000E+00 0. -1.
         23    2    1    2    0    0 -0.35522877472E+03 -0.89498389064E+02  0.60884602778E+03  0.71564722312E+03  0.85205741479E+02 0.  0.
         13    1    3    3    0    0 -0.29954429321E+03 -0.10579983890E+03  0.50232271381E+03  0.59434711938E+03  0.00000000000E+00 0.  1.
        -13    1    3    3    0    0 -0.55684481512E+02  0.16301449839E+02  0.10652331397E+03  0.12130010374E+03  0.00000000000E+00 0. -1.
         22    1    1    2    0    0  0.35522877472E+03  0.89498389064E+02 -0.85218223780E+03  0.92758396410E+03  0.00000000000E+00 0. -1.
<mgrwt>
<rscale>  0 0.16251142E+04</rscale>
<asrwt>0</asrwt>
<pdfrwt beam="1">  1        1 0.14512057E+00 0.16251142E+04</pdfrwt>
<pdfrwt beam="2">  1       -1 0.10768423E+00 0.16251142E+04</pdfrwt>
<totfact> 0.12898558E+01</totfact>
</mgrwt>
</event>
<event>
 6    1  0.1831439E-005  0.1200142E+04  0.7818608E-02  0.9112733E-01
         -1   -1    0    0    0  501 -0.00000000000E+00  0.00000000000E+00  0.21664373674E+03  0.21664373674E+03  0.00000000000E+00 0.  1.
          1   -1    0    0  501    0  0.00000000000E+00 -0.00000000000E+00 -0.16621064925E+04  0.16621064925E+04  0.00000000000E+00 0. -1.
         23    2    1    2    0    0  0.49442372533E+02  0.57745615105E+03 -0.49640202694E+03  0.76671766605E+03  0.74436902754E+02 0.  0.
         13    1    3    3    0    0 -0.11743434416E+02  0.65823228017E+02 -0.79697340750E+02  0.10403014814E+03  0.00000000000E+00 0. -1.
        -13    1    3    3    0    0  0.61185806948E+02  0.51163292304E+03 -0.41670468619E+03  0.66268751791E+03  0.00000000000E+00 0.  1.
         22    1    1    2    0    0 -0.49442372533E+02 -0.57745615105E+03 -0.94906072877E+03  0.11120325631E+04  0.00000000000E+00 0.  1.
<mgrwt>
<rscale>  0 0.12001416E+04</rscale>
<asrwt>0</asrwt>
<pdfrwt beam="1">  1        1 0.25570868E+00 0.12001416E+04</pdfrwt>
<pdfrwt beam="2">  1       -1 0.33329807E-01 0.12001416E+04</pdfrwt>
<totfact> 0.42412525E+01</totfact>
</mgrwt>
</event>
<event>
 6    1  0.1831439E-005  0.1238462E+04  0.7818608E-02  0.9079841E-01
         -2   -1    0    0    0  501 -0.00000000000E+00  0.00000000000E+00  0.73328875310E+03  0.73328875310E+03  0.00000000000E+00 0. -1.
          2   -1    0    0  501    0  0.00000000000E+00 -0.00000000000E+00 -0.52291416761E+03  0.52291416761E+03  0.00000000000E+00 0.  1.
         23    2    1    2    0    0 -0.10354058411E+03 -0.24495622347E+03 -0.45756905526E+03  0.53726418118E+03  0.92515707151E+02 0.  0.
         11    1    3    3    0    0 -0.67594158369E+02 -0.13675839101E+03 -0.17270843102E+03  0.23043443732E+03  0.00000000000E+00 0. -1.
        -11    1    3    3    0    0 -0.35946425736E+02 -0.10819783246E+03 -0.28486062424E+03  0.30682974386E+03  0.00000000000E+00 0.  1.
         22    1    1    2    0    0  0.10354058411E+03  0.24495622347E+03  0.66794364075E+03  0.71893873953E+03  0.00000000000E+00 0. -1.
<mgrwt>
<rscale>  0 0.12384621E+04</rscale>
<asrwt>0</asrwt>
<pdfrwt beam="1">  1        2 0.80448333E-01 0.12384621E+04</pdfrwt>
<pdfrwt beam="2">  1       -2 0.11281365E+00 0.12384621E+04</pdfrwt>
<totfact> 0.35536408E+01</totfact>
</mgrwt>
</event>
<event>
 6    1  0.1831439E-005  0.1144062E+04  0.7818608E-02  0.9163279E-01
          2   -1    0    0  501    0  0.00000000000E+00  0.00000000000E+00  0.12837189504E+04  0.12837189504E+04  0.00000000000E+00 0. -1.
         -2   -1    0    0    0  501 -0.00000000000E+00 -0.00000000000E+00 -0.25489979930E+03  0.25489979930E+03  0.00000000000E+00 0.  1.
         23    2    1    2    0    0  0.54155447822E+03  0.11296537954E+03  0.69387287229E+03  0.89191059330E+03  0.89456769928E+02 0.  0.
         13    1    3    3    0    0  0.38873364964E+02  0.33815089465E+02  0.63734881471E+02  0.81955682507E+02  0.00000000000E+00 0. -1.
        -13    1    3    3    0    0  0.50268111326E+03  0.79150290071E+02  0.63013799082E+03  0.80995491080E+03  0.00000000000E+00 0.  1.
         22    1    1    2    0    0 -0.54155447822E+03 -0.11296537954E+03  0.33494627881E+03  0.64670815639E+03  0.00000000000E+00 0.  1.
<mgrwt>
<rscale>  0 0.11440624E+04</rscale>
<asrwt>0</asrwt>
<pdfrwt beam="1">  1        2 0.19749522E+00 0.11440624E+04</pdfrwt>
<pdfrwt beam="2">  1       -2 0.39215354E-01 0.11440624E+04</pdfrwt>
<totfact> 0.10279800E+02</totfact>
</mgrwt>
</event>
<event>
 6    1  0.1831439E-005  0.3043951E+04  0.7818608E-02  0.8231291E-01
          2   -1    0    0  501    0  0.00000000000E+00  0.00000000000E+00  0.68304271244E+03  0.68304271244E+03  0.00000000000E+00 0. -1.
         -2   -1    0    0    0  501 -0.00000000000E+00 -0.00000000000E+00 -0.33913101867E+04  0.33913101867E+04  0.00000000000E+00 0.  1.
         23    2    1    2    0    0 -0.14727984430E+03 -0.86662723099E+03 -0.30161558070E+04  0.31429403507E+04  0.90244589127E+02 0.  0.
         11    1    3    3    0    0 -0.15832964803E+03 -0.75448084560E+03 -0.26444107093E+04  0.27544904471E+04  0.00000000000E+00 0.  1.
        -11    1    3    3    0    0  0.11049803733E+02 -0.11214638540E+03 -0.37174509772E+03  0.38844990359E+03  0.00000000000E+00 0. -1.
         22    1    1    2    0    0  0.14727984430E+03  0.86662723099E+03  0.30788833271E+03  0.93141254847E+03  0.00000000000E+00 0. -1.
<mgrwt>
<rscale>  0 0.30439512E+04</rscale>
<asrwt>0</asrwt>
<pdfrwt beam="1">  1        2 0.10508349E+00 0.30439512E+04</pdfrwt>
<pdfrwt beam="2">  1       -2 0.52174004E+00 0.30439512E+04</pdfrwt>
<totfact> 0.43792937E-02</totfact>
</mgrwt>
</event>
<event>
 6    1  0.1831439E-005  0.3362071E+04  0.7818608E-02  0.8147279E-01
         -1   -1    0    0    0  501 -0.00000000000E+00  0.00000000000E+00  0.77808479688E+03  0.77808479688E+03  0.00000000000E+00 0.  1.
          1   -1    0    0  501    0  0.00000000000E+00 -0.00000000000E+00 -0.36318400503E+04  0.36318400503E+04  0.00000000000E+00 0. -1.
         23    2    1    2    0    0  0.92383288774E+02 -0.16509418397E+04 -0.18156616301E+04  0.24575462975E+04  0.93611000554E+02 0.  0.
         11    1    3    3    0    0 -0.13790621565E+02 -0.46786937975E+03 -0.49328561158E+03  0.68001664122E+03  0.00000000000E+00 0. -1.
        -11    1    3    3    0    0  0.10617391034E+03 -0.11830724600E+04 -0.13223760185E+04  0.17775296563E+04  0.00000000000E+00 0.  1.
         22    1    1    2    0    0 -0.92383288774E+02  0.16509418397E+04 -0.10380936233E+04  0.19523785496E+04  0.00000000000E+00 0. -1.
<mgrwt>
<rscale>  0 0.33620705E+04</rscale>
<asrwt>0</asrwt>
<pdfrwt beam="1">  1        1 0.55874462E+00 0.33620705E+04</pdfrwt>
<pdfrwt beam="2">  1       -1 0.11970535E+00 0.33620705E+04</pdfrwt>
<totfact> 0.10062508E-01</totfact>
</mgrwt>
</event>
<event>
 6    1  0.1831439E-005  0.1647312E+04  0.7818608E-02  0.8791998E-01
          1   -1    0    0  501    0  0.00000000000E+00  0.00000000000E+00  0.10492717394E+04  0.10492717394E+04  0.00000000000E+00 0. -1.
         -1   -1    0    0    0  501 -0.00000000000E+00 -0.00000000000E+00 -0.64655271032E+03  0.64655271032E+03  0.00000000000E+00 0.  1.
         23    2    1    2    0    0  0.93120106507E+02  0.73151014776E+03  0.56966632444E+03  0.93974915584E+03  0.12177973630E+03 0.  0.
         11    1    3    3    0    0  0.10339418759E+03  0.38485154040E+03  0.33952347065E+03  0.52352388035E+03  0.00000000000E+00 0. -1.
        -11    1    3    3    0    0 -0.10274081080E+02  0.34665860736E+03  0.23014285380E+03  0.41622527549E+03  0.00000000000E+00 0.  1.
         22    1    1    2    0    0 -0.93120106507E+02 -0.73151014776E+03 -0.16694729541E+03  0.75607529385E+03  0.00000000000E+00 0. -1.
<mgrwt>
<rscale>  0 0.16473123E+04</rscale>
<asrwt>0</asrwt>
<pdfrwt beam="1">  1        1 0.16142642E+00 0.16473123E+04</pdfrwt>
<pdfrwt beam="2">  1       -1 0.99469648E-01 0.16473123E+04</pdfrwt>
<totfact> 0.12780744E+01</totfact>
</mgrwt>
</event>
<event>
 6    1  0.1831439E-005  0.1597607E+04  0.7818608E-02  0.8822019E-01
          2   -1    0    0  501    0  0.00000000000E+00  0.00000000000E+00  0.47020382039E+03  0.47020382039E+03  0.00000000000E+00 0. -1.
         -2   -1    0    0    0  501 -0.00000000000E+00 -0.00000000000E+00 -0.13570439051E+04  0.13570439051E+04  0.00000000000E+00 0.  1.
         23    2    1    2    0    0 -0.54595124299E+03  0.37225204849E+03  0.63475250942E+02  0.66977911491E+03  0.89110088957E+02 0.  0.
         11    1    3    3    0    0 -0.23414946792E+03  0.19298456293E+03 -0.59029710608E+01  0.30348617748E+03  0.00000000000E+00 0. -1.
        -11    1    3    3    0    0 -0.31180177508E+03  0.17926748555E+03  0.69378222003E+02  0.36629293742E+03  0.00000000000E+00 0.  1.
         22    1    1    2    0    0  0.54595124299E+03 -0.37225204849E+03 -0.95031533569E+03  0.11574686106E+04  0.00000000000E+00 0.  1.
<mgrwt>
<rscale>  0 0.15976072E+04</rscale>
<asrwt>0</asrwt>
<pdfrwt beam="1">  1        2 0.72339050E-01 0.15976072E+04</pdfrwt>
<pdfrwt beam="2">  1       -2 0.20877598E+00 0.15976072E+04</pdfrwt>
<totfact> 0.73887443E+00</totfact>
</mgrwt>
</event>
<event>
 6    1  0.1831439E-005  0.2136051E+04  0.7818608E-02  0.8545527E-01
          2   -1    0    0  501    0  0.00000000000E+00  0.00000000000E+00  0.22785672926E+04  0.22785672926E+04  0.00000000000E+00 0. -1.
         -2   -1    0    0    0  501 -0.00000000000E+00 -0.00000000000E+00 -0.50061207450E+03  0.50061207450E+03  0.00000000000E+00 0.  1.
         23    2    1    2    0    0  0.23636591484E+03 -0.31755937685E+03  0.21785279946E+04  0.22159996864E+04  0.89205288980E+02 0.  0.
         11    1    3    3    0    0  0.16416796224E+03 -0.27943893428E+03  0.17549544693E+04  0.17846294929E+04  0.00000000000E+00 0.  1.
        -11    1    3    3    0    0  0.72197952602E+02 -0.38120442568E+02  0.42357352530E+03  0.43137019350E+03  0.00000000000E+00 0. -1.
         22    1    1    2    0    0 -0.23636591484E+03  0.31755937685E+03 -0.40057277645E+03  0.56317968070E+03  0.00000000000E+00 0.  1.
<mgrwt>
<rscale>  0 0.21360508E+04</rscale>
<asrwt>0</asrwt>
<pdfrwt beam="1">  1        2 0.35054881E+00 0.21360508E+04</pdfrwt>
<pdfrwt beam="2">  1       -2 0.77017244E-01 0.21360508E+04</pdfrwt>
<totfact> 0.64479290E+00</totfact>
</mgrwt>
</event>
<event>
 6    1  0.1831439E-005  0.4658666E+04  0.7818608E-02  0.7883433E-01
          1   -1    0    0  501    0  0.00000000000E+00  0.00000000000E+00  0.23788899568E+04  0.23788899568E+04  0.00000000000E+00 0. -1.
         -1   -1    0    0    0  501 -0.00000000000E+00 -0.00000000000E+00 -0.22808082539E+04  0.22808082539E+04  0.00000000000E+00 0.  1.
         23    2    1    2    0    0  0.17389661873E+04  0.15228708067E+04 -0.23141259743E+03  0.23248094793E+04  0.89713046986E+02 0.  0.
         13    1    3    3    0    0  0.97020302715E+03  0.86081181341E+03 -0.85886799657E+02  0.12998720838E+04  0.00000000000E+00 0.  1.
        -13    1    3    3    0    0  0.76876316010E+03  0.66205899325E+03 -0.14552579777E+03  0.10249373955E+04  0.00000000000E+00 0. -1.
         22    1    1    2    0    0 -0.17389661873E+04 -0.15228708067E+04  0.32949430033E+03  0.23348887314E+04  0.00000000000E+00 0. -1.
<mgrwt>
<rscale>  0 0.46586658E+04</rscale>
<asrwt>0</asrwt>
<pdfrwt beam="1">  1        1 0.36598307E+00 0.46586658E+04</pdfrwt>
<pdfrwt beam="2">  1       -1 0.35089358E+00 0.46586658E+04</pdfrwt>
<totfact> 0.18679094E-02</totfact>
</mgrwt>
</event>
<event>
 6    1  0.1831439E-005  0.1587710E+04  0.7818608E-02  0.8828134E-01
         -1   -1    0    0    0  501 -0.00000000000E+00  0.00000000000E+00  0.68602569028E+03  0.68602569028E+03  0.00000000000E+00 0.  1.
          1   -1    0    0  501    0  0.00000000000E+00 -0.00000000000E+00 -0.91863331048E+03  0.91863331048E+03  0.00000000000E+00 0. -1.
         23    2    1    2    0    0 -0.33645289459E+03  0.65193202484E+02 -0.83743711959E+03  0.90948317605E+03  0.91695225204E+02 0.  0.
         13    1    3    3    0    0 -0.25506014939E+03  0.87709329933E+02 -0.61453948828E+03  0.67112397440E+03  0.00000000000E+00 0. -1.
        -13    1    3    3    0    0 -0.81392745200E+02 -0.22516127449E+02 -0.22289763131E+03  0.23835920165E+03  0.00000000000E+00 0.  1.
         22    1    1    2    0    0  0.33645289459E+03 -0.65193202484E+02  0.60482949939E+03  0.69517582471E+03  0.00000000000E+00 0.  1.
<mgrwt>
<rscale>  0 0.15877104E+04</rscale>
<asrwt>0</asrwt>
<pdfrwt beam="1">  1        1 0.14132820E+00 0.15877104E+04</pdfrwt>
<pdfrwt beam="2">  1       -1 0.10554241E+00 0.15877104E+04</pdfrwt>
<totfact> 0.14199238E+01</totfact>
</mgrwt>
</event>
<event>
 6    1  0.1831439E-005  0.6272971E+03  0.7818608E-02  0.9850338E-01
         -2   -1    0    0    0  501 -0.00000000000E+00  0.00000000000E+00  0.35500353529E+03  0.35500353529E+03  0.00000000000E+00 0.  1.
          2   -1    0    0  501    0  0.00000000000E+00 -0.00000000000E+00 -0.27711107583E+03  0.27711107583E+03  0.00000000000E+00 0. -1.
         23    2    1    2    0    0  0.13906259161E+03 -0.19406625789E+03 -0.15522095738E+03  0.29843515124E+03  0.89274167854E+02 0.  0.
         13    1    3    3    0    0  0.76193220176E+02 -0.12387072480E+03 -0.42495161491E+02  0.15150974230E+03  0.00000000000E+00 0.  1.
        -13    1    3    3    0    0  0.62869371439E+02 -0.70195533092E+02 -0.11272579589E+03  0.14692540894E+03  0.00000000000E+00 0. -1.
         22    1    1    2    0    0 -0.13906259161E+03  0.19406625789E+03  0.23311341684E+03  0.33367945989E+03  0.00000000000E+00 0.  1.
<mgrwt>
<rscale>  0 0.62729710E+03</rscale>
<asrwt>0</asrwt>
<pdfrwt beam="1">  1        2 0.42632473E-01 0.62729710E+03</pdfrwt>
<pdfrwt beam="2">  1       -2 0.54615929E-01 0.62729710E+03</pdfrwt>
<totfact> 0.38204034E+02</totfact>
</mgrwt>
</event>
<event>
 6    1  0.1831439E-005  0.1294148E+04  0.7818608E-02  0.9034218E-01
         -1   -1    0    0    0  501 -0.00000000000E+00  0.00000000000E+00  0.68851757617E+03  0.68851757617E+03  0.00000000000E+00 0.  1.
          1   -1    0    0  501    0  0.00000000000E+00 -0.00000000000E+00 -0.60812532304E+03  0.60812532304E+03  0.00000000000E+00 0. -1.
         23    2    1    2    0    0 -0.87878781062E+02 -0.41028767456E+03 -0.44898653699E+03  0.62114267013E+03  0.90391648977E+02 0.  0.
         13    1    3    3    0    0 -0.76036710898E+02 -0.24448493726E+03 -0.32516785221E+03  0.41387026719E+03  0.00000000000E+00 0. -1.
        -13    1    3    3    0    0 -0.11842070164E+02 -0.16580273730E+03 -0.12381868478E+03  0.20727240294E+03  0.00000000000E+00 0.  1.
         22    1    1    2    0    0  0.87878781062E+02  0.41028767456E+03  0.52937879012E+03  0.67550022908E+03  0.00000000000E+00 0.  1.
<mgrwt>
<rscale>  0 0.12941483E+04</rscale>
<asrwt>0</asrwt>
<pdfrwt beam="1">  1        1 0.93557742E-01 0.12941483E+04</pdfrwt>
<pdfrwt beam="2">  1       -1 0.10592578E+00 0.12941483E+04</pdfrwt>
<totfact> 0.27549965E+01</totfact>
</mgrwt>
</event>
<event>
 6    1  0.1831439E-005  0.2686151E+04  0.7818608E-02  0.8339513E-01
          2   -1    0    0  501    0  0.00000000000E+00  0.00000000000E+00  0.12754578986E+04  0.12754578986E+04  0.00000000000E+00 0. -1.
         -2   -1    0    0    0  501 -0.00000000000E+00 -0.00000000000E+00 -0.14142775927E+04  0.14142775927E+04  0.00000000000E+00 0.  1.
         23    2    1    2    0    0 -0.62650096797E+03  0.12779812184E+03 -0.12504264515E+04  0.14073527848E+04  0.90772943492E+02 0.  0.
         11    1    3    3    0    0 -0.45233711736E+03  0.66428482265E+02 -0.81684402192E+03  0.93608534181E+03  0.00000000000E+00 0.  1.
        -11    1    3    3    0    0 -0.17416385061E+03  0.61369639573E+02 -0.43358242961E+03  0.47126744295E+03  0.00000000000E+00 0. -1.
         22    1    1    2    0    0  0.62650096797E+03 -0.12779812184E+03  0.11116067574E+04  0.12823827065E+04  0.00000000000E+00 0. -1.
<mgrwt>
<rscale>  0 0.26861508E+04</rscale>
<asrwt>0</asrwt>
<pdfrwt beam="1">  1        2 0.19622429E+00 0.26861508E+04</pdfrwt>
<pdfrwt beam="2">  1       -2 0.21758117E+00 0.26861508E+04</pdfrwt>
<totfact> 0.15367406E+00</totfact>
</mgrwt>
</event>
<event>
 6    1  0.1831439E-005  0.1666643E+04  0.7818608E-02  0.8780621E-01
          2   -1    0    0  501    0  0.00000000000E+00  0.00000000000E+00  0.66253330346E+03  0.66253330346E+03  0.00000000000E+00 0. -1.
         -2   -1    0    0    0  501 -0.00000000000E+00 -0.00000000000E+00 -0.10481357559E+04  0.10481357559E+04  0.00000000000E+00 0.  1.
         23    2    1    2    0    0 -0.53877238177E+02  0.45100054992E+03  0.52050595625E+03  0.69709286532E+03  0.93315376857E+02 0.  0.
         11    1    3    3    0    0 -0.44647475811E+02  0.97800763407E+02  0.90346817289E+02  0.14043124230E+03  0.00000000000E+00 0.  1.
        -11    1    3    3    0    0 -0.92297623662E+01  0.35319978651E+03  0.43015913896E+03  0.55666162302E+03  0.00000000000E+00 0. -1.
         22    1    1    2    0    0  0.53877238177E+02 -0.45100054992E+03 -0.90610840867E+03  0.10135761940E+04  0.00000000000E+00 0.  1.
<mgrwt>
<rscale>  0 0.16666431E+04</rscale>
<asrwt>0</asrwt>
<pdfrwt beam="1">  1        2 0.10192820E+00 0.16666431E+04</pdfrwt>
<pdfrwt beam="2">  1       -2 0.16125165E+00 0.16666431E+04</pdfrwt>
<totfact> 0.10321951E+01</totfact>
</mgrwt>
</event>
<event>
 6    1  0.1831439E-005  0.1114510E+04  0.7818608E-02  0.9191163E-01
         -1   -1    0    0    0  501 -0.00000000000E+00  0.00000000000E+00  0.14536980361E+03  0.14536980361E+03  0.00000000000E+00 0.  1.
          1   -1    0    0  501    0  0.00000000000E+00 -0.00000000000E+00 -0.21361611189E+04  0.21361611189E+04  0.00000000000E+00 0. -1.
         23    2    1    2    0    0  0.41759281308E+02 -0.12139673808E+03 -0.21032864543E+04  0.21108377419E+04  0.12385902513E+03 0.  0.
         13    1    3    3    0    0  0.30049025376E+02  0.48131020707E+01 -0.97136537631E+03  0.97184196461E+03  0.00000000000E+00 0.  1.
        -13    1    3    3    0    0  0.11710255933E+02 -0.12620984015E+03 -0.11319210780E+04  0.11389957773E+04  0.00000000000E+00 0. -1.
         22    1    1    2    0    0 -0.41759281308E+02  0.12139673808E+03  0.11249513905E+03  0.17069318059E+03  0.00000000000E+00 0.  1.
<mgrwt>
<rscale>  0 0.11145103E+04</rscale>
<asrwt>0</asrwt>
<pdfrwt beam="1">  1        1 0.32864016E+00 0.11145103E+04</pdfrwt>
<pdfrwt beam="2">  1       -1 0.22364586E-01 0.11145103E+04</pdfrwt>
<totfact> 0.40778567E+01</totfact>
</mgrwt>
</event>
<event>
 6    1  0.1831439E-005  0.3957155E+04  0.7818608E-02  0.8013246E-01
          2   -1    0    0  501    0  0.00000000000E+00  0.00000000000E+00  0.26754222714E+04  0.26754222714E+04  0.00000000000E+00 0. -1.
         -2   -1    0    0    0  501 -0.00000000000E+00 -0.00000000000E+00 -0.14632340509E+04  0.14632340509E+04  0.00000000000E+00 0.  1.
         23    2    1    2    0    0  0.15760170285E+04 -0.97520201011E+02 -0.63861154754E+03  0.17057979941E+04  0.92640295628E+02 0.  0.
         11    1    3    3    0    0  0.66075935228E+03 -0.87297414835E+00 -0.24298771893E+03  0.70402181448E+03  0.00000000000E+00 0. -1.
        -11    1    3    3    0    0  0.91525767620E+03 -0.96647226863E+02 -0.39562382861E+03  0.10017761796E+04  0.00000000000E+00 0.  1.
         22    1    1    2    0    0 -0.15760170285E+04  0.97520201011E+02  0.18507997680E+04  0.24328583282E+04  0.00000000000E+00 0. -1.
<mgrwt>
<rscale>  0 0.39571550E+04</rscale>
<asrwt>0</asrwt>
<pdfrwt beam="1">  1        2 0.41160342E+00 0.39571550E+04</pdfrwt>
<pdfrwt beam="2">  1       -2 0.22511293E+00 0.39571550E+04</pdfrwt>
<totfact> 0.19945592E-01</totfact>
</mgrwt>
</event>
<event>
 6    1  0.1831439E-005  0.9007488E+03  0.7818608E-02  0.9424646E-01
          1   -1    0    0  501    0  0.00000000000E+00  0.00000000000E+00  0.11569137327E+04  0.11569137327E+04  0.00000000000E+00 0. -1.
         -1   -1    0    0    0  501 -0.00000000000E+00 -0.00000000000E+00 -0.17532601825E+03  0.17532601825E+03  0.00000000000E+00 0.  1.
         23    2    1    2    0    0 -0.20121454029E+03  0.39792902055E+03  0.50267114722E+03  0.67787297691E+03  0.89435417777E+02 0.  0.
         11    1    3    3    0    0 -0.68186710222E+01  0.64295700213E+02  0.43517736367E+02  0.77937312752E+02  0.00000000000E+00 0.  1.
        -11    1    3    3    0    0 -0.19439586927E+03  0.33363332034E+03  0.45915341085E+03  0.59993566416E+03  0.00000000000E+00 0. -1.
         22    1    1    2    0    0  0.20121454029E+03 -0.39792902055E+03  0.47891656727E+03  0.65436677408E+03  0.00000000000E+00 0.  1.
<mgrwt>
<rscale>  0 0.90074875E+03</rscale>
<asrwt>0</asrwt>
<pdfrwt beam="1">  1        1 0.17798672E+00 0.90074875E+03</pdfrwt>
<pdfrwt beam="2">  1       -1 0.26973234E-01 0.90074875E+03</pdfrwt>
<totfact> 0.14214381E+02</totfact>
</mgrwt>
</event>
<event>
 6    1  0.1831439E-005  0.2991811E+04  0.7818608E-02  0.8246073E-01
          2   -1    0    0  501    0  0.00000000000E+00  0.00000000000E+00  0.16151528681E+04  0.16151528681E+04  0.00000000000E+00 0. -1.
         -2   -1    0    0    0  501 -0.00000000000E+00 -0.00000000000E+00 -0.13854623610E+04  0.13854623610E+04  0.00000000000E+00 0.  1.
         23    2    1    2    0    0  0.62673849337E+03 -0.12788810230E+04 -0.33932403346E+03  0.14669544591E+04  0.92069405521E+02 0.  0.
         13    1    3    3    0    0  0.18741320734E+03 -0.29301578237E+03 -0.86283108214E+02  0.35836675873E+03  0.00000000000E+00 0.  1.
        -13    1    3    3    0    0  0.43932528603E+03 -0.98586524065E+03 -0.25304092525E+03  0.11085877004E+04  0.00000000000E+00 0. -1.
         22    1    1    2    0    0 -0.62673849337E+03  0.12788810230E+04  0.56901454050E+03  0.15336607700E+04  0.00000000000E+00 0. -1.
<mgrwt>
<rscale>  0 0.29918112E+04</rscale>
<asrwt>0</asrwt>
<pdfrwt beam="1">  1        2 0.24848506E+00 0.29918112E+04</pdfrwt>
<pdfrwt beam="2">  1       -2 0.21314805E+00 0.29918112E+04</pdfrwt>
<totfact> 0.10239583E+00</totfact>
</mgrwt>
</event>
<event>
 6    1  0.1831439E-005  0.5868188E+04  0.7818608E-02  0.7706963E-01
          2   -1    0    0  501    0  0.00000000000E+00  0.00000000000E+00  0.32614583529E+04  0.32614583529E+04  0.00000000000E+00 0. -1.
         -2   -1    0    0    0  501 -0.00000000000E+00 -0.00000000000E+00 -0.26395880079E+04  0.26395880079E+04  0.00000000000E+00 0.  1.
         23    2    1    2    0    0 -0.20462461351E+04 -0.56773816719E+03 -0.17239925195E+04  0.27367893468E+04  0.91737939165E+02 0.  0.
         13    1    3    3    0    0 -0.50228266562E+03 -0.11478777510E+03 -0.45910091918E+03  0.69009982139E+03  0.00000000000E+00 0.  1.
        -13    1    3    3    0    0 -0.15439634695E+04 -0.45295039210E+03 -0.12648916003E+04  0.20466895254E+04  0.00000000000E+00 0. -1.
         22    1    1    2    0    0  0.20462461351E+04  0.56773816719E+03  0.23458628645E+04  0.31642570140E+04  0.00000000000E+00 0. -1.
<mgrwt>
<rscale>  0 0.58681876E+04</rscale>
<asrwt>0</asrwt>
<pdfrwt beam="1">  1        2 0.50176282E+00 0.58681876E+04</pdfrwt>
<pdfrwt beam="2">  1       -2 0.40609046E+00 0.58681876E+04</pdfrwt>
<totfact> 0.54415913E-03</totfact>
</mgrwt>
</event>
<event>
 6    1  0.1831439E-005  0.3293836E+04  0.7818608E-02  0.8164466E-01
          2   -1    0    0  501    0  0.00000000000E+00  0.00000000000E+00  0.22285281058E+04  0.22285281058E+04  0.00000000000E+00 0. -1.
         -2   -1    0    0    0  501 -0.00000000000E+00 -0.00000000000E+00 -0.12170987148E+04  0.12170987148E+04  0.00000000000E+00 0.  1.
         23    2    1    2    0    0 -0.14521227161E+04 -0.33067758399E+03 -0.22614181383E+03  0.15092408740E+04  0.93058307530E+02 0.  0.
         11    1    3    3    0    0 -0.46304267248E+03 -0.73351130095E+02 -0.10132531645E+03  0.47964124570E+03  0.00000000000E+00 0. -1.
        -11    1    3    3    0    0 -0.98908004358E+03 -0.25732645389E+03 -0.12481649739E+03  0.10295996282E+04  0.00000000000E+00 0.  1.
         22    1    1    2    0    0  0.14521227161E+04  0.33067758399E+03  0.12375712048E+04  0.19363859466E+04  0.00000000000E+00 0. -1.
<mgrwt>
<rscale>  0 0.32938359E+04</rscale>
<asrwt>0</asrwt>
<pdfrwt beam="1">  1        2 0.34285048E+00 0.32938359E+04</pdfrwt>
<pdfrwt beam="2">  1       -2 0.18724596E+00 0.32938359E+04</pdfrwt>
<totfact> 0.67267564E-01</totfact>
</mgrwt>
</event>
<event>
 6    1  0.1831439E-005  0.2409961E+04  0.7818608E-02  0.8435784E-01
         -2   -1    0    0    0  501 -0.00000000000E+00  0.00000000000E+00  0.73128270757E+03  0.73128270757E+03  0.00000000000E+00 0.  1.
          2   -1    0    0  501    0  0.00000000000E+00 -0.00000000000E+00 -0.19855217439E+04  0.19855217439E+04  0.00000000000E+00 0. -1.
         23    2    1    2    0    0  0.92090905002E+03 -0.18387749192E+03 -0.14760943183E+04  0.17518670563E+04  0.91100691177E+02 0.  0.
         11    1    3    3    0    0  0.62400669652E+03 -0.89049629715E+02 -0.10332125840E+04  0.12103067535E+04  0.00000000000E+00 0. -1.
        -11    1    3    3    0    0  0.29690235349E+03 -0.94827862209E+02 -0.44288173429E+03  0.54156030276E+03  0.00000000000E+00 0.  1.
         22    1    1    2    0    0 -0.92090905002E+03  0.18387749192E+03  0.22185528200E+03  0.96493739517E+03  0.00000000000E+00 0.  1.
<mgrwt>
<rscale>  0 0.24099608E+04</rscale>
<asrwt>0</asrwt>
<pdfrwt beam="1">  1        2 0.30546488E+00 0.24099608E+04</pdfrwt>
<pdfrwt beam="2">  1       -2 0.11250503E+00 0.24099608E+04</pdfrwt>
<totfact> 0.38040472E+00</totfact>
</mgrwt>
</event>
<event>
 6    1  0.1831439E-005  0.8377841E+03  0.7818608E-02  0.9506881E-01
         -2   -1    0    0    0  501 -0.00000000000E+00  0.00000000000E+00  0.20540954577E+03  0.20540954577E+03  0.00000000000E+00 0.  1.
          2   -1    0    0  501    0  0.00000000000E+00 -0.00000000000E+00 -0.85424723911E+03  0.85424723911E+03  0.00000000000E+00 0. -1.
         23    2    1    2    0    0 -0.80935982940E+01 -0.23722871664E+03 -0.75712307322E+03  0.79875700753E+03  0.91839200462E+02 0.  0.
         11    1    3    3    0    0 -0.36503716942E+02 -0.10591404544E+03 -0.24664779044E+03  0.27089746935E+03  0.00000000000E+00 0. -1.
        -11    1    3    3    0    0  0.28410118648E+02 -0.13131467119E+03 -0.51047528278E+03  0.52785953818E+03  0.00000000000E+00 0.  1.
         22    1    1    2    0    0  0.80935982940E+01  0.23722871664E+03  0.10828537988E+03  0.26089977736E+03  0.00000000000E+00 0.  1.
<mgrwt>
<rscale>  0 0.83778407E+03</rscale>
<asrwt>0</asrwt>
<pdfrwt beam="1">  1        2 0.13142265E+00 0.83778407E+03</pdfrwt>
<pdfrwt beam="2">  1       -2 0.31601469E-01 0.83778407E+03</pdfrwt>
<totfact> 0.29421353E+02</totfact>
</mgrwt>
</event>
<event>
 6    1  0.1831439E-005  0.4086327E+04  0.7818608E-02  0.7987355E-01
         -2   -1    0    0    0  501 -0.00000000000E+00  0.00000000000E+00  0.75523519044E+03  0.75523519044E+03  0.00000000000E+00 0.  1.
          2   -1    0    0  501    0  0.00000000000E+00 -0.00000000000E+00 -0.55274385760E+04  0.55274385760E+04  0.00000000000E+00 0. -1.
         23    2    1    2    0    0  0.11146689358E+04  0.48055537111E+03  0.13758522241E+03  0.12250612392E+04  0.91788044564E+02 0.  0.
         11    1    3    3    0    0  0.45126375909E+03  0.17418110747E+03  0.13744569835E+02  0.48390799918E+03  0.00000000000E+00 0. -1.
        -11    1    3    3    0    0  0.66340517672E+03  0.30637426364E+03  0.12384065258E+03  0.74115323999E+03  0.00000000000E+00 0.  1.
         22    1    1    2    0    0 -0.11146689358E+04 -0.48055537111E+03 -0.49097886080E+04  0.50576125273E+04  0.00000000000E+00 0. -1.
<mgrwt>
<rscale>  0 0.40863265E+04</rscale>
<asrwt>0</asrwt>
<pdfrwt beam="1">  1        2 0.85037518E+00 0.40863265E+04</pdfrwt>
<pdfrwt beam="2">  1       -2 0.11619003E+00 0.40863265E+04</pdfrwt>
<totfact> 0.23483407E-03</totfact>
</mgrwt>
</event>
<event>
 6    1  0.1831439E-005  0.2051598E+04  0.7818608E-02  0.8582870E-01
          2   -1    0    0  501    0  0.00000000000E+00  0.00000000000E+00  0.13327161144E+04  0.13327161144E+04  0.00000000000E+00 0. -1.
         -2   -1    0    0    0  501 -0.00000000000E+00 -0.00000000000E+00 -0.78956351900E+03  0.78956351900E+03  0.00000000000E+00 0.  1.
         23    2    1    2    0    0 -0.60011672997E+03  0.80448592770E+03  0.48086097632E+03  0.11166863044E+04  0.91778682261E+02 0.  0.
         11    1    3    3    0    0 -0.10802169522E+02  0.24560160489E+00  0.49248944643E+01  0.11874416702E+02  0.00000000000E+00 0. -1.
        -11    1    3    3    0    0 -0.58931456045E+03  0.80424032609E+03  0.47593608186E+03  0.11048118877E+04  0.00000000000E+00 0.  1.
         22    1    1    2    0    0  0.60011672997E+03 -0.80448592770E+03  0.62291619078E+02  0.10055933290E+04  0.00000000000E+00 0.  1.
<mgrwt>
<rscale>  0 0.20515984E+04</rscale>
<asrwt>0</asrwt>
<pdfrwt beam="1">  1        2 0.20503325E+00 0.20515984E+04</pdfrwt>
<pdfrwt beam="2">  1       -2 0.12147131E+00 0.20515984E+04</pdfrwt>
<totfact> 0.75420104E+00</totfact>
</mgrwt>
</event>
<event>
 6    1  0.1831439E-005  0.2830426E+04  0.7818608E-02  0.8293884E-01
         -2   -1    0    0    0  501 -0.00000000000E+00  0.00000000000E+00  0.84271147338E+03  0.84271147338E+03  0.00000000000E+00 0.  1.
          2   -1    0    0  501    0  0.00000000000E+00 -0.00000000000E+00 -0.23766473354E+04  0.23766473354E+04  0.00000000000E+00 0. -1.
         23    2    1    2    0    0 -0.14052605392E+03 -0.11036833815E+04 -0.17599890939E+04  0.20840330220E+04  0.88133124193E+02 0.  0.
         13    1    3    3    0    0 -0.48335422635E+02 -0.59438293165E+03 -0.10065678582E+04  0.11699599291E+04  0.00000000000E+00 0. -1.
        -13    1    3    3    0    0 -0.92190631286E+02 -0.50930044989E+03 -0.75342123565E+03  0.91407309286E+03  0.00000000000E+00 0.  1.
         22    1    1    2    0    0  0.14052605392E+03  0.11036833815E+04  0.22605323187E+03  0.11353257868E+04  0.00000000000E+00 0.  1.
<mgrwt>
<rscale>  0 0.28304261E+04</rscale>
<asrwt>0</asrwt>
<pdfrwt beam="1">  1        2 0.36563804E+00 0.28304261E+04</pdfrwt>
<pdfrwt beam="2">  1       -2 0.12964792E+00 0.28304261E+04</pdfrwt>
<totfact> 0.15559352E+00</totfact>
</mgrwt>
</event>
<event>
 6    1  0.1831439E-005  0.2707152E+04  0.7818608E-02  0.8332688E-01
         -2   -1    0    0    0  501 -0.00000000000E+00  0.00000000000E+00  0.10652532646E+04  0.10652532646E+04  0.00000000000E+00 0.  1.
          2   -1    0    0  501    0  0.00000000000E+00 -0.00000000000E+00 -0.17199369073E+04  0.17199369073E+04  0.00000000000E+00 0. -1.
         23    2    1    2    0    0 -0.97912444445E+03 -0.92765122709E+03 -0.23110118168E+03  0.13714562584E+04  0.90901241372E+02 0.  0.
         11    1    3    3    0    0 -0.33973302477E+03 -0.38227485667E+03 -0.82864426816E+02  0.51809179437E+03  0.00000000000E+00 0.  1.
        -11    1    3    3    0    0 -0.63939141968E+03 -0.54537637042E+03 -0.14823675486E+03  0.85336446402E+03  0.00000000000E+00 0. -1.
         22    1    1    2    0    0  0.97912444445E+03  0.92765122709E+03 -0.42358246107E+03  0.14137339135E+04  0.00000000000E+00 0. -1.
<mgrwt>
<rscale>  0 0.27071523E+04</rscale>
<asrwt>0</asrwt>
<pdfrwt beam="1">  1        2 0.26460568E+00 0.27071523E+04</pdfrwt>
<pdfrwt beam="2">  1       -2 0.16388512E+00 0.27071523E+04</pdfrwt>
<totfact> 0.19773794E+00</totfact>
</mgrwt>
</event>
<event>
 6    1  0.1831439E-005  0.2078832E+04  0.7818608E-02  0.8570626E-01
          2   -1    0    0  501    0  0.00000000000E+00  0.00000000000E+00  0.67129629044E+03  0.67129629044E+03  0.00000000000E+00 0. -1.
         -2   -1    0    0    0  501 -0.00000000000E+00 -0.00000000000E+00 -0.16094027391E+04  0.16094027391E+04  0.00000000000E+00 0.  1.
         23    2    1    2    0    0 -0.70079898112E+03 -0.36286831091E+03 -0.12087162531E+04  0.14464195264E+04  0.91333689976E+02 0.  0.
         11    1    3    3    0    0 -0.31046700696E+03 -0.17589853126E+03 -0.46785648078E+03  0.58840440371E+03  0.00000000000E+00 0. -1.
        -11    1    3    3    0    0 -0.39033197416E+03 -0.18696977965E+03 -0.74085977232E+03  0.85801512271E+03  0.00000000000E+00 0.  1.
         22    1    1    2    0    0  0.70079898112E+03  0.36286831091E+03  0.27060980446E+03  0.83427950309E+03  0.00000000000E+00 0. -1.
<mgrwt>
<rscale>  0 0.20788324E+04</rscale>
<asrwt>0</asrwt>
<pdfrwt beam="1">  1        2 0.10327635E+00 0.20788324E+04</pdfrwt>
<pdfrwt beam="2">  1       -2 0.24760042E+00 0.20788324E+04</pdfrwt>
<totfact> 0.26504033E+00</totfact>
</mgrwt>
</event>
<event>
 6    1  0.1831439E-005  0.1650336E+04  0.7818608E-02  0.8790208E-01
          2   -1    0    0  501    0  0.00000000000E+00  0.00000000000E+00  0.91237744343E+03  0.91237744343E+03  0.00000000000E+00 0. -1.
         -2   -1    0    0    0  501 -0.00000000000E+00 -0.00000000000E+00 -0.74629415244E+03  0.74629415244E+03  0.00000000000E+00 0.  1.
         23    2    1    2    0    0  0.30850694876E+03  0.75033727531E+03 -0.54234287521E+02  0.81800376637E+03  0.89477593323E+02 0.  0.
         11    1    3    3    0    0  0.21468003286E+03  0.59170537517E+03 -0.68428920314E+02  0.63315502419E+03  0.00000000000E+00 0. -1.
        -11    1    3    3    0    0  0.93826915899E+02  0.15863190014E+03  0.14194632792E+02  0.18484874219E+03  0.00000000000E+00 0.  1.
         22    1    1    2    0    0 -0.30850694876E+03 -0.75033727531E+03  0.22031757851E+03  0.84066782950E+03  0.00000000000E+00 0.  1.
<mgrwt>
<rscale>  0 0.16503357E+04</rscale>
<asrwt>0</asrwt>
<pdfrwt beam="1">  1        2 0.14036576E+00 0.16503357E+04</pdfrwt>
<pdfrwt beam="2">  1       -2 0.11481449E+00 0.16503357E+04</pdfrwt>
<totfact> 0.16265630E+01</totfact>
</mgrwt>
</event>
<event>
 6    1  0.1831439E-005  0.2039686E+04  0.7818608E-02  0.8588288E-01
          2   -1    0    0  501    0  0.00000000000E+00  0.00000000000E+00  0.17077430612E+04  0.17077430612E+04  0.00000000000E+00 0. -1.
         -2   -1    0    0    0  501 -0.00000000000E+00 -0.00000000000E+00 -0.60903745378E+03  0.60903745378E+03  0.00000000000E+00 0.  1.
         23    2    1    2    0    0 -0.86774988564E+03  0.53094889274E+03  0.51158672157E+03  0.11422145625E+04  0.89646763836E+02 0.  0.
         13    1    3    3    0    0 -0.27958081908E+03  0.18660020151E+03  0.12478719882E+03  0.35854834345E+03  0.00000000000E+00 0.  1.
        -13    1    3    3    0    0 -0.58816906656E+03  0.34434869123E+03  0.38679952275E+03  0.78366621901E+03  0.00000000000E+00 0. -1.
         22    1    1    2    0    0  0.86774988564E+03 -0.53094889274E+03  0.58711888587E+03  0.11745659525E+04  0.00000000000E+00 0.  1.
<mgrwt>
<rscale>  0 0.20396857E+04</rscale>
<asrwt>0</asrwt>
<pdfrwt beam="1">  1        2 0.26272970E+00 0.20396857E+04</pdfrwt>
<pdfrwt beam="2">  1       -2 0.93698071E-01 0.20396857E+04</pdfrwt>
<totfact> 0.86554613E+00</totfact>
</mgrwt>
</event>
<event>
 6    1  0.1831439E-005  0.4058833E+04  0.7818608E-02  0.7992782E-01
          2   -1    0    0  501    0  0.00000000000E+00  0.00000000000E+00  0.26404882927E+04  0.26404882927E+04  0.00000000000E+00 0. -1.
         -2   -1    0    0    0  501 -0.00000000000E+00 -0.00000000000E+00 -0.15597610833E+04  0.15597610833E+04  0.00000000000E+00 0.  1.
         23    2    1    2    0    0  0.12567220027E+04 -0.13352273575E+04  0.14381937621E+04  0.23321046749E+04  0.90158908867E+02 0.  0.
         11    1    3    3    0    0  0.11330289113E+04 -0.11713270448E+04  0.12991628968E+04  0.20841271055E+04  0.00000000000E+00 0.  1.
        -11    1    3    3    0    0  0.12369309134E+03 -0.16390031277E+03  0.13903086537E+03  0.24797756934E+03  0.00000000000E+00 0. -1.
         22    1    1    2    0    0 -0.12567220027E+04  0.13352273575E+04 -0.35746655272E+03  0.18681447012E+04  0.00000000000E+00 0.  1.
<mgrwt>
<rscale>  0 0.40588328E+04</rscale>
<asrwt>0</asrwt>
<pdfrwt beam="1">  1        2 0.40622897E+00 0.40588328E+04</pdfrwt>
<pdfrwt beam="2">  1       -2 0.23996324E+00 0.40588328E+04</pdfrwt>
<totfact> 0.16760496E-01</totfact>
</mgrwt>
</event>
<event>
 6    1  0.2108061E-005  0.3350566E+04  0.7818608E-02  0.8150147E-01
          2   -1    0    0  501    0  0.00000000000E+00  0.00000000000E+00  0.38139196472E+04  0.38139196472E+04  0.00000000000E+00 0. -1.
         -2   -1    0    0    0  501 -0.00000000000E+00 -0.00000000000E+00 -0.73587626441E+03  0.73587626441E+03  0.00000000000E+00 0.  1.
         23    2    1    2    0    0  0.12137481335E+04  0.95019347617E+03  0.24269011802E+04  0.28764644018E+04  0.90254876906E+02 0.  0.
         11    1    3    3    0    0  0.51307835975E+03  0.44156820669E+03  0.10056746797E+04  0.12122761425E+04  0.00000000000E+00 0. -1.
        -11    1    3    3    0    0  0.70066977370E+03  0.50862526948E+03  0.14212265005E+04  0.16641882593E+04  0.00000000000E+00 0.  1.
         22    1    1    2    0    0 -0.12137481335E+04 -0.95019347617E+03  0.65114220256E+03  0.16733315098E+04  0.00000000000E+00 0.  1.
<mgrwt>
<rscale>  0 0.33505659E+04</rscale>
<asrwt>0</asrwt>
<pdfrwt beam="1">  1        2 0.58675686E+00 0.33505659E+04</pdfrwt>
<pdfrwt beam="2">  1       -2 0.11321173E+00 0.33505659E+04</pdfrwt>
<totfact> 0.24374454E-01</totfact>
</mgrwt>
</event>
<event>
 6    1  0.1831439E-005  0.3041995E+04  0.7818608E-02  0.8231840E-01
         -2   -1    0    0    0  501 -0.00000000000E+00  0.00000000000E+00  0.56155516157E+03  0.56155516157E+03  0.00000000000E+00 0.  1.
          2   -1    0    0  501    0  0.00000000000E+00 -0.00000000000E+00 -0.41196896747E+04  0.41196896747E+04  0.00000000000E+00 0. -1.
         23    2    1    2    0    0 -0.81771768071E+02  0.13709656004E+04 -0.77971396369E+03  0.15819136102E+04  0.90903824071E+02 0.  0.
         13    1    3    3    0    0 -0.62729742885E+02  0.92246731778E+03 -0.57252386192E+03  0.10875038140E+04  0.00000000000E+00 0. -1.
        -13    1    3    3    0    0 -0.19042025186E+02  0.44849828265E+03 -0.20719010177E+03  0.49440979615E+03  0.00000000000E+00 0.  1.
         22    1    1    2    0    0  0.81771768071E+02 -0.13709656004E+04 -0.27784205494E+04  0.30993312261E+04  0.00000000000E+00 0. -1.
<mgrwt>
<rscale>  0 0.30419947E+04</rscale>
<asrwt>0</asrwt>
<pdfrwt beam="1">  1        2 0.63379840E+00 0.30419947E+04</pdfrwt>
<pdfrwt beam="2">  1       -2 0.86393103E-01 0.30419947E+04</pdfrwt>
<totfact> 0.26956741E-01</totfact>
</mgrwt>
</event>
<event>
 6    1  0.1831439E-005  0.1154205E+04  0.7818608E-02  0.9153913E-01
         -2   -1    0    0    0  501 -0.00000000000E+00  0.00000000000E+00  0.18397550899E+03  0.18397550899E+03  0.00000000000E+00 0.  1.
          2   -1    0    0  501    0  0.00000000000E+00 -0.00000000000E+00 -0.18102797651E+04  0.18102797651E+04  0.00000000000E+00 0. -1.
         23    2    1    2    0    0 -0.56445714368E+03 -0.90582913715E+02 -0.74160116913E+03  0.94091929569E+03  0.92410473639E+02 0.  0.
         13    1    3    3    0    0 -0.35154103292E+03 -0.99976732101E+02 -0.48704780368E+03  0.60892693146E+03  0.00000000000E+00 0. -1.
        -13    1    3    3    0    0 -0.21291611076E+03  0.93938183861E+01 -0.25455336545E+03  0.33199236423E+03  0.00000000000E+00 0.  1.
         22    1    1    2    0    0  0.56445714368E+03  0.90582913715E+02 -0.88470308703E+03  0.10533359785E+04  0.00000000000E+00 0. -1.
<mgrwt>
<rscale>  0 0.11542047E+04</rscale>
<asrwt>0</asrwt>
<pdfrwt beam="1">  1        2 0.27850457E+00 0.11542047E+04</pdfrwt>
<pdfrwt beam="2">  1       -2 0.28303925E-01 0.11542047E+04</pdfrwt>
<totfact> 0.96338558E+01</totfact>
</mgrwt>
</event>
<event>
 6    1  0.1831439E-005  0.1261619E+04  0.7818608E-02  0.9060568E-01
         -2   -1    0    0    0  501 -0.00000000000E+00  0.00000000000E+00  0.58183467794E+03  0.58183467794E+03  0.00000000000E+00 0. -1.
          2   -1    0    0  501    0  0.00000000000E+00 -0.00000000000E+00 -0.68390653826E+03  0.68390653826E+03  0.00000000000E+00 0.  1.
         23    2    1    2    0    0 -0.58175158378E+03  0.83847163570E+02  0.16931331919E+03  0.61835016922E+03  0.90690019586E+02 0.  0.
         13    1    3    3    0    0 -0.19679003227E+03  0.62993672360E+02  0.31940568434E+02  0.20908065302E+03  0.00000000000E+00 0. -1.
        -13    1    3    3    0    0 -0.38496155151E+03  0.20853491210E+02  0.13737275075E+03  0.40926951620E+03  0.00000000000E+00 0.  1.
         22    1    1    2    0    0  0.58175158378E+03 -0.83847163570E+02 -0.27138517951E+03  0.64739104699E+03  0.00000000000E+00 0.  1.
<mgrwt>
<rscale>  0 0.12616189E+04</rscale>
<asrwt>0</asrwt>
<pdfrwt beam="1">  1        2 0.10521639E+00 0.12616189E+04</pdfrwt>
<pdfrwt beam="2">  1       -2 0.89513027E-01 0.12616189E+04</pdfrwt>
<totfact> 0.44392945E+01</totfact>
</mgrwt>
</event>
<event>
 6    1  0.1831439E-005  0.3100977E+04  0.7818608E-02  0.8215470E-01
         -1   -1    0    0    0  501 -0.00000000000E+00  0.00000000000E+00  0.61200107509E+03  0.61200107509E+03  0.00000000000E+00 0.  1.
          1   -1    0    0  501    0  0.00000000000E+00 -0.00000000000E+00 -0.39281217520E+04  0.39281217520E+04  0.00000000000E+00 0. -1.
         23    2    1    2    0    0 -0.14497806452E+04  0.14542585435E+03 -0.88904224875E+03  0.17092709597E+04  0.90545542849E+02 0.  0.
         13    1    3    3    0    0 -0.34631887635E+03  0.66517430096E+02 -0.24143033683E+03  0.42737564293E+03  0.00000000000E+00 0.  1.
        -13    1    3    3    0    0 -0.11034617689E+04  0.78908424253E+02 -0.64761191192E+03  0.12818953168E+04  0.00000000000E+00 0. -1.
         22    1    1    2    0    0  0.14497806452E+04 -0.14542585435E+03 -0.24270784282E+04  0.28308518674E+04  0.00000000000E+00 0. -1.
<mgrwt>
<rscale>  0 0.31009771E+04</rscale>
<asrwt>0</asrwt>
<pdfrwt beam="1">  1        1 0.60432641E+00 0.31009771E+04</pdfrwt>
<pdfrwt beam="2">  1       -1 0.94154014E-01 0.31009771E+04</pdfrwt>
<totfact> 0.10206786E-01</totfact>
</mgrwt>
</event>
<event>
 6    1  0.1831439E-005  0.1746796E+04  0.7818608E-02  0.8735116E-01
          1   -1    0    0  501    0  0.00000000000E+00  0.00000000000E+00  0.12363586803E+04  0.12363586803E+04  0.00000000000E+00 0. -1.
         -1   -1    0    0    0  501 -0.00000000000E+00 -0.00000000000E+00 -0.61699235517E+03  0.61699235517E+03  0.00000000000E+00 0.  1.
         23    2    1    2    0    0  0.29846658242E+03  0.66870944550E+03  0.81091258773E+03  0.10964199990E+04  0.91120612051E+02 0.  0.
         11    1    3    3    0    0  0.87890380880E+02  0.16533291610E+03  0.26586259925E+03  0.32518089408E+03  0.00000000000E+00 0.  1.
        -11    1    3    3    0    0  0.21057620154E+03  0.50337652941E+03  0.54504998848E+03  0.77123910492E+03  0.00000000000E+00 0. -1.
         22    1    1    2    0    0 -0.29846658242E+03 -0.66870944550E+03 -0.19154626257E+03  0.75693103651E+03  0.00000000000E+00 0.  1.
<mgrwt>
<rscale>  0 0.17467958E+04</rscale>
<asrwt>0</asrwt>
<pdfrwt beam="1">  1        1 0.19020903E+00 0.17467958E+04</pdfrwt>
<pdfrwt beam="2">  1       -1 0.94921901E-01 0.17467958E+04</pdfrwt>
<totfact> 0.10223084E+01</totfact>
</mgrwt>
</event>
<event>
 6    1  0.1831439E-005  0.2739732E+04  0.7818608E-02  0.8322227E-01
          2   -1    0    0  501    0  0.00000000000E+00  0.00000000000E+00  0.19060512534E+04  0.19060512534E+04  0.00000000000E+00 0. -1.
         -2   -1    0    0    0  501 -0.00000000000E+00 -0.00000000000E+00 -0.98451334098E+03  0.98451334098E+03  0.00000000000E+00 0.  1.
         23    2    1    2    0    0 -0.10597417175E+03  0.12459522035E+04 -0.12509353649E+03  0.12599006779E+04  0.89854920707E+02 0.  0.
         13    1    3    3    0    0  0.10286834253E+02  0.32702326166E+03 -0.21931667541E+02  0.32791924412E+03  0.00000000000E+00 0.  1.
        -13    1    3    3    0    0 -0.11626100600E+03  0.91892894188E+03 -0.10316186895E+03  0.93198143380E+03  0.00000000000E+00 0. -1.
         22    1    1    2    0    0  0.10597417175E+03 -0.12459522035E+04  0.10466314489E+04  0.16306639165E+04  0.00000000000E+00 0. -1.
<mgrwt>
<rscale>  0 0.27397320E+04</rscale>
<asrwt>0</asrwt>
<pdfrwt beam="1">  1        2 0.29323865E+00 0.27397320E+04</pdfrwt>
<pdfrwt beam="2">  1       -2 0.15146359E+00 0.27397320E+04</pdfrwt>
<totfact> 0.19240821E+00</totfact>
</mgrwt>
</event>
<event>
 6    1  0.1831439E-005  0.3722279E+04  0.7818608E-02  0.8063042E-01
         -2   -1    0    0    0  501 -0.00000000000E+00  0.00000000000E+00  0.22264865065E+04  0.22264865065E+04  0.00000000000E+00 0.  1.
          2   -1    0    0  501    0  0.00000000000E+00 -0.00000000000E+00 -0.15557430105E+04  0.15557430105E+04  0.00000000000E+00 0. -1.
         23    2    1    2    0    0 -0.23397899227E+03 -0.18450643381E+04  0.30576241300E+03  0.18869143000E+04  0.89142256721E+02 0.  0.
         13    1    3    3    0    0 -0.29380643045E+02 -0.36857156654E+03  0.92489316714E+02  0.38113317299E+03  0.00000000000E+00 0. -1.
        -13    1    3    3    0    0 -0.20459834923E+03 -0.14764927716E+04  0.21327309629E+03  0.15057811270E+04  0.00000000000E+00 0.  1.
         22    1    1    2    0    0  0.23397899227E+03  0.18450643381E+04  0.36498108295E+03  0.18953152169E+04  0.00000000000E+00 0. -1.
<mgrwt>
<rscale>  0 0.37222793E+04</rscale>
<asrwt>0</asrwt>
<pdfrwt beam="1">  1        2 0.23934508E+00 0.37222793E+04</pdfrwt>
<pdfrwt beam="2">  1       -2 0.34253639E+00 0.37222793E+04</pdfrwt>
<totfact> 0.16511385E-01</totfact>
</mgrwt>
</event>
<event>
 6    1  0.1831439E-005  0.1404661E+04  0.7818608E-02  0.8950452E-01
         -1   -1    0    0    0  501 -0.00000000000E+00  0.00000000000E+00  0.34870414149E+03  0.34870414149E+03  0.00000000000E+00 0.  1.
          1   -1    0    0  501    0  0.00000000000E+00 -0.00000000000E+00 -0.14145751205E+04  0.14145751205E+04  0.00000000000E+00 0. -1.
         23    2    1    2    0    0 -0.67641969515E+03  0.14814988052E+03 -0.65864217517E+03  0.95995660592E+03  0.90637625994E+02 0.  0.
         13    1    3    3    0    0 -0.34404880171E+03  0.31056888320E+02 -0.34455109670E+03  0.48790323478E+03  0.00000000000E+00 0. -1.
        -13    1    3    3    0    0 -0.33237089343E+03  0.11709299220E+03 -0.31409107847E+03  0.47205337114E+03  0.00000000000E+00 0.  1.
         22    1    1    2    0    0  0.67641969515E+03 -0.14814988052E+03 -0.40722880382E+03  0.80332265606E+03  0.00000000000E+00 0. -1.
<mgrwt>
<rscale>  0 0.14046611E+04</rscale>
<asrwt>0</asrwt>
<pdfrwt beam="1">  1        1 0.21762694E+00 0.14046611E+04</pdfrwt>
<pdfrwt beam="2">  1       -1 0.53646791E-01 0.14046611E+04</pdfrwt>
<totfact> 0.25643382E+01</totfact>
</mgrwt>
</event>
<event>
 6    1  0.1831439E-005  0.2764468E+04  0.7818608E-02  0.8314385E-01
         -2   -1    0    0    0  501 -0.00000000000E+00  0.00000000000E+00  0.11179379826E+04  0.11179379826E+04  0.00000000000E+00 0.  1.
          2   -1    0    0  501    0  0.00000000000E+00 -0.00000000000E+00 -0.17090133017E+04  0.17090133017E+04  0.00000000000E+00 0. -1.
         23    2    1    2    0    0  0.57337737047E+03 -0.27551083264E+02  0.98782187644E+03  0.11469402649E+04  0.10079305749E+03 0.  0.
         13    1    3    3    0    0  0.87971985744E+02 -0.23332387062E+02  0.22564618981E+03  0.24330983033E+03  0.00000000000E+00 0.  1.
        -13    1    3    3    0    0  0.48540538473E+03 -0.42186962028E+01  0.76217568663E+03  0.90363043453E+03  0.00000000000E+00 0. -1.
         22    1    1    2    0    0 -0.57337737047E+03  0.27551083264E+02 -0.15788971956E+04  0.16800110194E+04  0.00000000000E+00 0. -1.
<mgrwt>
<rscale>  0 0.27644680E+04</rscale>
<asrwt>0</asrwt>
<pdfrwt beam="1">  1        2 0.26292512E+00 0.27644680E+04</pdfrwt>
<pdfrwt beam="2">  1       -2 0.17199046E+00 0.27644680E+04</pdfrwt>
<totfact> 0.17457008E+00</totfact>
</mgrwt>
</event>
<event>
 6    1  0.1831439E-005  0.9142038E+03  0.7818608E-02  0.9407998E-01
          2   -1    0    0  501    0  0.00000000000E+00  0.00000000000E+00  0.19510243631E+04  0.19510243631E+04  0.00000000000E+00 0.  1.
         -2   -1    0    0    0  501 -0.00000000000E+00 -0.00000000000E+00 -0.10709356589E+03  0.10709356589E+03  0.00000000000E+00 0. -1.
         23    2    1    2    0    0 -0.30418418645E+03 -0.31560569201E+03  0.11839893568E+04  0.12658694346E+04  0.91976390055E+02 0.  0.
         13    1    3    3    0    0 -0.10000280382E+03 -0.16919447956E+03  0.53229368418E+03  0.56741862756E+03  0.00000000000E+00 0. -1.
        -13    1    3    3    0    0 -0.20418138264E+03 -0.14641121245E+03  0.65169567261E+03  0.69845080704E+03  0.00000000000E+00 0.  1.
         22    1    1    2    0    0  0.30418418645E+03  0.31560569201E+03  0.65994144046E+03  0.79224849445E+03  0.00000000000E+00 0.  1.
<mgrwt>
<rscale>  0 0.91420382E+03</rscale>
<asrwt>0</asrwt>
<pdfrwt beam="1">  1        2 0.30015757E+00 0.91420382E+03</pdfrwt>
<pdfrwt beam="2">  1       -2 0.16475935E-01 0.91420382E+03</pdfrwt>
<totfact> 0.21448921E+02</totfact>
</mgrwt>
</event>
<event>
 6    1  0.1831439E-005  0.4223483E+03  0.7818608E-02  0.1036305E+00
         -1   -1    0    0    0  501 -0.00000000000E+00  0.00000000000E+00  0.44754225364E+02  0.44754225364E+02  0.00000000000E+00 0.  1.
          1   -1    0    0  501    0  0.00000000000E+00 -0.00000000000E+00 -0.99643160671E+03  0.99643160671E+03  0.00000000000E+00 0. -1.
         23    2    1    2    0    0  0.13810072724E+03  0.11545491148E+03 -0.71926064081E+03  0.74721442406E+03  0.92692387252E+02 0.  0.
         13    1    3    3    0    0  0.58219040504E+02  0.10560795058E+03 -0.47321563500E+03  0.48833956742E+03  0.00000000000E+00 0. -1.
        -13    1    3    3    0    0  0.79881686733E+02  0.98469609070E+01 -0.24604500581E+03  0.25887485664E+03  0.00000000000E+00 0.  1.
         22    1    1    2    0    0 -0.13810072724E+03 -0.11545491148E+03 -0.23241674054E+03  0.29397140802E+03  0.00000000000E+00 0.  1.
<mgrwt>
<rscale>  0 0.42234831E+03</rscale>
<asrwt>0</asrwt>
<pdfrwt beam="1">  1        1 0.15329715E+00 0.42234831E+03</pdfrwt>
<pdfrwt beam="2">  1       -1 0.68852662E-02 0.42234831E+03</pdfrwt>
<totfact> 0.17438138E+03</totfact>
</mgrwt>
</event>
<event>
 6    1  0.1831439E-005  0.1840317E+04  0.7818608E-02  0.8685148E-01
         -1   -1    0    0    0  501 -0.00000000000E+00  0.00000000000E+00  0.29811902010E+03  0.29811902010E+03  0.00000000000E+00 0.  1.
          1   -1    0    0  501    0  0.00000000000E+00 -0.00000000000E+00 -0.28401127192E+04  0.28401127192E+04  0.00000000000E+00 0. -1.
         23    2    1    2    0    0  0.52780645792E+03 -0.13938129984E+03 -0.15403420355E+02  0.55334001228E+03  0.89112850155E+02 0.  0.
         13    1    3    3    0    0  0.26481709559E+03 -0.11222781928E+03 -0.25620467078E+02  0.28875523522E+03  0.00000000000E+00 0. -1.
        -13    1    3    3    0    0  0.26298936234E+03 -0.27153480569E+02  0.10217046723E+02  0.26458477706E+03  0.00000000000E+00 0.  1.
         22    1    1    2    0    0 -0.52780645792E+03  0.13938129984E+03 -0.25265902787E+04  0.25848917270E+04  0.00000000000E+00 0. -1.
<mgrwt>
<rscale>  0 0.18403170E+04</rscale>
<asrwt>0</asrwt>
<pdfrwt beam="1">  1        1 0.43694041E+00 0.18403170E+04</pdfrwt>
<pdfrwt beam="2">  1       -1 0.45864466E-01 0.18403170E+04</pdfrwt>
<totfact> 0.34742397E+00</totfact>
</mgrwt>
</event>
<event>
 6    1  0.1831439E-005  0.1069629E+04  0.7818608E-02  0.9235310E-01
          1   -1    0    0  501    0  0.00000000000E+00  0.00000000000E+00  0.45158204434E+03  0.45158204434E+03  0.00000000000E+00 0. -1.
         -1   -1    0    0    0  501 -0.00000000000E+00 -0.00000000000E+00 -0.63338724229E+03  0.63338724229E+03  0.00000000000E+00 0.  1.
         23    2    1    2    0    0 -0.40629725400E+03  0.33833006149E+03 -0.42323094262E+02  0.53816041110E+03  0.90998322258E+02 0.  0.
         13    1    3    3    0    0 -0.49719069241E+02  0.80065954981E+02  0.10017307278E+02  0.94778106323E+02  0.00000000000E+00 0. -1.
        -13    1    3    3    0    0 -0.35657818476E+03  0.25826410651E+03 -0.52340401540E+02  0.44338230478E+03  0.00000000000E+00 0.  1.
         22    1    1    2    0    0  0.40629725400E+03 -0.33833006149E+03 -0.13948210369E+03  0.54680887553E+03  0.00000000000E+00 0. -1.
<mgrwt>
<rscale>  0 0.10696285E+04</rscale>
<asrwt>0</asrwt>
<pdfrwt beam="1">  1        1 0.69474161E-01 0.10696285E+04</pdfrwt>
<pdfrwt beam="2">  1       -1 0.97444191E-01 0.10696285E+04</pdfrwt>
<totfact> 0.51472528E+01</totfact>
</mgrwt>
</event>
<event>
 6    1  0.1831439E-005  0.4951010E+03  0.7818608E-02  0.1015066E+00
          1   -1    0    0  501    0  0.00000000000E+00  0.00000000000E+00  0.24119903264E+03  0.24119903264E+03  0.00000000000E+00 0.  1.
         -1   -1    0    0    0  501 -0.00000000000E+00 -0.00000000000E+00 -0.25406923041E+03  0.25406923041E+03  0.00000000000E+00 0. -1.
         23    2    1    2    0    0 -0.86660583351E+02 -0.13173533176E+03  0.17361029324E+03  0.25105682216E+03  0.89580911426E+02 0.  0.
         11    1    3    3    0    0 -0.61543653048E+02 -0.55143014808E+02  0.14236145534E+03  0.16460606696E+03  0.00000000000E+00 0. -1.
        -11    1    3    3    0    0 -0.25116930304E+02 -0.76592316953E+02  0.31248837893E+02  0.86450755195E+02  0.00000000000E+00 0.  1.
         22    1    1    2    0    0  0.86660583351E+02  0.13173533176E+03 -0.18648049100E+03  0.24421144090E+03  0.00000000000E+00 0. -1.
<mgrwt>
<rscale>  0 0.49510101E+03</rscale>
<asrwt>0</asrwt>
<pdfrwt beam="1">  1        1 0.37107543E-01 0.49510101E+03</pdfrwt>
<pdfrwt beam="2">  1       -1 0.39087574E-01 0.49510101E+03</pdfrwt>
<totfact> 0.74508575E+02</totfact>
</mgrwt>
</event>
<event>
 6    1  0.1831439E-005  0.4552050E+04  0.7818608E-02  0.7901587E-01
          1   -1    0    0  501    0  0.00000000000E+00  0.00000000000E+00  0.24447270546E+04  0.24447270546E+04  0.00000000000E+00 0. -1.
         -1   -1    0    0    0  501 -0.00000000000E+00 -0.00000000000E+00 -0.21189647890E+04  0.21189647890E+04  0.00000000000E+00 0.  1.
         23    2    1    2    0    0 -0.14014622745E+04  0.55301457964E+01 -0.16337452702E+04  0.21545847741E+04  0.94788457547E+02 0.  0.
         11    1    3    3    0    0 -0.10068735377E+03  0.14668438059E+02 -0.15142914367E+03  0.18243873448E+03  0.00000000000E+00 0.  1.
        -11    1    3    3    0    0 -0.13007749207E+04 -0.91382922629E+01 -0.14823161265E+04  0.19721460396E+04  0.00000000000E+00 0. -1.
         22    1    1    2    0    0  0.14014622745E+04 -0.55301457964E+01  0.19595075358E+04  0.24091070694E+04  0.00000000000E+00 0. -1.
<mgrwt>
<rscale>  0 0.45520503E+04</rscale>
<asrwt>0</asrwt>
<pdfrwt beam="1">  1        1 0.37611185E+00 0.45520503E+04</pdfrwt>
<pdfrwt beam="2">  1       -1 0.32599458E+00 0.45520503E+04</pdfrwt>
<totfact> 0.24760574E-02</totfact>
</mgrwt>
</event>
<event>
 6    1  0.1831439E-005  0.4194654E+04  0.7818608E-02  0.7966390E-01
          1   -1    0    0  501    0  0.00000000000E+00  0.00000000000E+00  0.31925210627E+04  0.31925210627E+04  0.00000000000E+00 0. -1.
         -1   -1    0    0    0  501 -0.00000000000E+00 -0.00000000000E+00 -0.13778390240E+04  0.13778390240E+04  0.00000000000E+00 0.  1.
         23    2    1    2    0    0 -0.46143191626E+03  0.62575271541E+03 -0.12133714224E+04  0.14440853647E+04  0.92878724388E+02 0.  0.
         13    1    3    3    0    0 -0.28747606145E+03  0.44423118552E+03 -0.76768739816E+03  0.93237748438E+03  0.00000000000E+00 0. -1.
        -13    1    3    3    0    0 -0.17395585481E+03  0.18152152989E+03 -0.44568402428E+03  0.51170788027E+03  0.00000000000E+00 0.  1.
         22    1    1    2    0    0  0.46143191626E+03 -0.62575271541E+03  0.30280534611E+04  0.31262747220E+04  0.00000000000E+00 0. -1.
<mgrwt>
<rscale>  0 0.41946538E+04</rscale>
<asrwt>0</asrwt>
<pdfrwt beam="1">  1        1 0.49115708E+00 0.41946538E+04</pdfrwt>
<pdfrwt beam="2">  1       -1 0.21197524E+00 0.41946538E+04</pdfrwt>
<totfact> 0.41316283E-02</totfact>
</mgrwt>
</event>
<event>
 6    1  0.1831439E-005  0.1018812E+04  0.7818608E-02  0.9288149E-01
         -1   -1    0    0    0  501 -0.00000000000E+00  0.00000000000E+00  0.26798284977E+03  0.26798284977E+03  0.00000000000E+00 0.  1.
          1   -1    0    0  501    0  0.00000000000E+00 -0.00000000000E+00 -0.96832526194E+03  0.96832526194E+03  0.00000000000E+00 0. -1.
         23    2    1    2    0    0 -0.26236878080E+03  0.78648915672E+02  0.16293145796E+03  0.33062339618E+03  0.87989437071E+02 0.  0.
         13    1    3    3    0    0 -0.21611343905E+03  0.96346818131E+02  0.14716432740E+03  0.27864864464E+03  0.00000000000E+00 0. -1.
        -13    1    3    3    0    0 -0.46255341745E+02 -0.17697902459E+02  0.15767130567E+02  0.51974751540E+02  0.00000000000E+00 0.  1.
         22    1    1    2    0    0  0.26236878080E+03 -0.78648915672E+02 -0.86327387014E+03  0.90568471553E+03  0.00000000000E+00 0. -1.
<mgrwt>
<rscale>  0 0.10188122E+04</rscale>
<asrwt>0</asrwt>
<pdfrwt beam="1">  1        1 0.14897312E+00 0.10188122E+04</pdfrwt>
<pdfrwt beam="2">  1       -1 0.41228131E-01 0.10188122E+04</pdfrwt>
<totfact> 0.92398973E+01</totfact>
</mgrwt>
</event>
<event>
 6    1  0.1831439E-005  0.2657882E+04  0.7818608E-02  0.8348801E-01
          2   -1    0    0  501    0  0.00000000000E+00  0.00000000000E+00  0.12240567538E+04  0.12240567538E+04  0.00000000000E+00 0. -1.
         -2   -1    0    0    0  501 -0.00000000000E+00 -0.00000000000E+00 -0.14428126785E+04  0.14428126785E+04  0.00000000000E+00 0.  1.
         23    2    1    2    0    0  0.69027431693E+03 -0.33092848525E+03  0.97874465120E+03  0.12456024185E+04  0.87132071299E+02 0.  0.
         13    1    3    3    0    0  0.29462520321E+03 -0.14654583053E+03  0.35224063898E+03  0.48203024652E+03  0.00000000000E+00 0. -1.
        -13    1    3    3    0    0  0.39564911372E+03 -0.18438265472E+03  0.62650401222E+03  0.76357217201E+03  0.00000000000E+00 0.  1.
         22    1    1    2    0    0 -0.69027431693E+03  0.33092848525E+03 -0.11975005759E+04  0.14212670137E+04  0.00000000000E+00 0.  1.
<mgrwt>
<rscale>  0 0.26578823E+04</rscale>
<asrwt>0</asrwt>
<pdfrwt beam="1">  1        2 0.18831643E+00 0.26578823E+04</pdfrwt>
<pdfrwt beam="2">  1       -2 0.22197118E+00 0.26578823E+04</pdfrwt>
<totfact> 0.15492673E+00</totfact>
</mgrwt>
</event>
<event>
 6    1  0.1831439E-005  0.2105913E+04  0.7818608E-02  0.8558643E-01
         -2   -1    0    0    0  501 -0.00000000000E+00  0.00000000000E+00  0.61161935380E+03  0.61161935380E+03  0.00000000000E+00 0.  1.
          2   -1    0    0  501    0  0.00000000000E+00 -0.00000000000E+00 -0.18127568189E+04  0.18127568189E+04  0.00000000000E+00 0. -1.
         23    2    1    2    0    0 -0.13732001127E+03  0.25981384179E+03 -0.17633907387E+04  0.17899561529E+04  0.89644375409E+02 0.  0.
         11    1    3    3    0    0 -0.44766527880E+02  0.17499984870E+03 -0.96593008929E+03  0.98267488339E+03  0.00000000000E+00 0.  1.
        -11    1    3    3    0    0 -0.92553483390E+02  0.84813993095E+02 -0.79746064945E+03  0.80728126953E+03  0.00000000000E+00 0. -1.
         22    1    1    2    0    0  0.13732001127E+03 -0.25981384179E+03  0.56225327359E+03  0.63442001982E+03  0.00000000000E+00 0.  1.
<mgrwt>
<rscale>  0 0.21059128E+04</rscale>
<asrwt>0</asrwt>
<pdfrwt beam="1">  1        2 0.27888566E+00 0.21059128E+04</pdfrwt>
<pdfrwt beam="2">  1       -2 0.94095286E-01 0.21059128E+04</pdfrwt>
<totfact> 0.74524175E+00</totfact>
</mgrwt>
</event>
<event>
 6    1  0.1831439E-005  0.1820714E+04  0.7818608E-02  0.8695361E-01
         -2   -1    0    0    0  501 -0.00000000000E+00  0.00000000000E+00  0.34173022401E+03  0.34173022401E+03  0.00000000000E+00 0.  1.
          2   -1    0    0  501    0  0.00000000000E+00 -0.00000000000E+00 -0.24251576537E+04  0.24251576537E+04  0.00000000000E+00 0. -1.
         23    2    1    2    0    0 -0.51239733094E+03  0.12049724261E+03 -0.21686679831E+04  0.22336556936E+04  0.95006980348E+02 0.  0.
         13    1    3    3    0    0 -0.33663932699E+03  0.12224348606E+03 -0.13903162379E+04  0.14357049654E+04  0.00000000000E+00 0. -1.
        -13    1    3    3    0    0 -0.17575800395E+03 -0.17462434500E+01 -0.77835174528E+03  0.79795072824E+03  0.00000000000E+00 0.  1.
         22    1    1    2    0    0  0.51239733094E+03 -0.12049724261E+03  0.85240553420E+02  0.53323218411E+03  0.00000000000E+00 0.  1.
<mgrwt>
<rscale>  0 0.18207138E+04</rscale>
<asrwt>0</asrwt>
<pdfrwt beam="1">  1        2 0.37310117E+00 0.18207138E+04</pdfrwt>
<pdfrwt beam="2">  1       -2 0.52573881E-01 0.18207138E+04</pdfrwt>
<totfact> 0.12382641E+01</totfact>
</mgrwt>
</event>
<event>
 6    1  0.1831439E-005  0.1309240E+04  0.7818608E-02  0.9022270E-01
          2   -1    0    0  501    0  0.00000000000E+00  0.00000000000E+00  0.45574773271E+03  0.45574773271E+03  0.00000000000E+00 0. -1.
         -2   -1    0    0    0  501 -0.00000000000E+00 -0.00000000000E+00 -0.94027308353E+03  0.94027308353E+03  0.00000000000E+00 0.  1.
         23    2    1    2    0    0 -0.58630655962E+03 -0.28339598240E+03 -0.26943023432E+03  0.71021138656E+03  0.87971005160E+02 0.  0.
         13    1    3    3    0    0 -0.44647452644E+03 -0.24173109709E+03 -0.17794178038E+03  0.53799321861E+03  0.00000000000E+00 0. -1.
        -13    1    3    3    0    0 -0.13983203317E+03 -0.41664885305E+02 -0.91488453944E+02  0.17221816796E+03  0.00000000000E+00 0.  1.
         22    1    1    2    0    0  0.58630655962E+03  0.28339598240E+03 -0.21509511650E+03  0.68580942967E+03  0.00000000000E+00 0. -1.
<mgrwt>
<rscale>  0 0.13092400E+04</rscale>
<asrwt>0</asrwt>
<pdfrwt beam="1">  1        2 0.70115036E-01 0.13092400E+04</pdfrwt>
<pdfrwt beam="2">  1       -2 0.14465740E+00 0.13092400E+04</pdfrwt>
<totfact> 0.22118468E+01</totfact>
</mgrwt>
</event>
<event>
 6    1  0.1831439E-005  0.2511868E+04  0.7818608E-02  0.8398770E-01
         -2   -1    0    0    0  501 -0.00000000000E+00  0.00000000000E+00  0.57650120116E+03  0.57650120116E+03  0.00000000000E+00 0. -1.
          2   -1    0    0  501    0  0.00000000000E+00 -0.00000000000E+00 -0.27361093537E+04  0.27361093537E+04  0.00000000000E+00 0.  1.
         23    2    1    2    0    0 -0.48613181377E+03  0.16644527740E+03  0.42786526351E+03  0.67461001477E+03  0.89452879066E+02 0.  0.
         11    1    3    3    0    0 -0.17943528452E+03  0.17050869320E+02  0.13966678134E+03  0.22802316392E+03  0.00000000000E+00 0. -1.
        -11    1    3    3    0    0 -0.30669652925E+03  0.14939440808E+03  0.28819848217E+03  0.44658685084E+03  0.00000000000E+00 0.  1.
         22    1    1    2    0    0  0.48613181377E+03 -0.16644527740E+03 -0.25874734161E+04  0.26380005401E+04  0.00000000000E+00 0.  1.
<mgrwt>
<rscale>  0 0.25118681E+04</rscale>
<asrwt>0</asrwt>
<pdfrwt beam="1">  1        2 0.42093990E+00 0.25118681E+04</pdfrwt>
<pdfrwt beam="2">  1       -2 0.88692492E-01 0.25118681E+04</pdfrwt>
<totfact> 0.24606306E+00</totfact>
</mgrwt>
</event>
<event>
 6    1  0.1831439E-005  0.2731571E+04  0.7818608E-02  0.8324833E-01
          2   -1    0    0  501    0  0.00000000000E+00  0.00000000000E+00  0.19488227178E+04  0.19488227178E+04  0.00000000000E+00 0. -1.
         -2   -1    0    0    0  501 -0.00000000000E+00 -0.00000000000E+00 -0.95717790329E+03  0.95717790329E+03  0.00000000000E+00 0.  1.
         23    2    1    2    0    0  0.55963557220E+03 -0.27628184064E+03  0.17866926654E+04  0.18952460938E+04  0.10081392063E+03 0.  0.
         13    1    3    3    0    0  0.17840096997E+03 -0.12868081010E+03  0.72203036136E+03  0.75479368022E+03  0.00000000000E+00 0. -1.
        -13    1    3    3    0    0  0.38123460223E+03 -0.14760103054E+03  0.10646623040E+04  0.11404524136E+04  0.00000000000E+00 0.  1.
         22    1    1    2    0    0 -0.55963557220E+03  0.27628184064E+03 -0.79504785087E+03  0.10107545272E+04  0.00000000000E+00 0.  1.
<mgrwt>
<rscale>  0 0.27315710E+04</rscale>
<asrwt>0</asrwt>
<pdfrwt beam="1">  1        2 0.29981888E+00 0.27315710E+04</pdfrwt>
<pdfrwt beam="2">  1       -2 0.14725814E+00 0.27315710E+04</pdfrwt>
<totfact> 0.19640643E+00</totfact>
</mgrwt>
</event>
<event>
 6    1  0.1831439E-005  0.1989804E+04  0.7818608E-02  0.8611402E-01
          1   -1    0    0  501    0  0.00000000000E+00  0.00000000000E+00  0.81896245342E+03  0.81896245342E+03  0.00000000000E+00 0. -1.
         -1   -1    0    0    0  501 -0.00000000000E+00 -0.00000000000E+00 -0.12086392621E+04  0.12086392621E+04  0.00000000000E+00 0.  1.
         23    2    1    2    0    0  0.94894794551E+03 -0.13210202948E+03 -0.46032558075E+03  0.10669017632E+04  0.91796418595E+02 0.  0.
         13    1    3    3    0    0  0.65170486234E+03 -0.13176788830E+03 -0.33135122687E+03  0.74288332834E+03  0.00000000000E+00 0.  1.
        -13    1    3    3    0    0  0.29724308318E+03 -0.33414117599E+00 -0.12897435389E+03  0.32401843483E+03  0.00000000000E+00 0. -1.
         22    1    1    2    0    0 -0.94894794551E+03  0.13210202948E+03  0.70648772056E+02  0.96069995237E+03  0.00000000000E+00 0. -1.
<mgrwt>
<rscale>  0 0.19898042E+04</rscale>
<asrwt>0</asrwt>
<pdfrwt beam="1">  1        1 0.12599422E+00 0.19898042E+04</pdfrwt>
<pdfrwt beam="2">  1       -1 0.18594450E+00 0.19898042E+04</pdfrwt>
<totfact> 0.37300359E+00</totfact>
</mgrwt>
</event>
<event>
 6    1  0.1831439E-005  0.2143453E+04  0.7818608E-02  0.8542340E-01
          2   -1    0    0  501    0  0.00000000000E+00  0.00000000000E+00  0.62897200359E+03  0.62897200359E+03  0.00000000000E+00 0. -1.
         -2   -1    0    0    0  501 -0.00000000000E+00 -0.00000000000E+00 -0.18261515428E+04  0.18261515428E+04  0.00000000000E+00 0.  1.
         23    2    1    2    0    0 -0.27433010770E+03  0.22799904054E+03  0.55565398013E+03  0.66636254586E+03  0.89705776882E+02 0.  0.
         11    1    3    3    0    0 -0.22993055720E+03  0.15069063111E+03  0.45768434253E+03  0.53390138119E+03  0.00000000000E+00 0. -1.
        -11    1    3    3    0    0 -0.44399550495E+02  0.77308409428E+02  0.97969637601E+02  0.13246116466E+03  0.00000000000E+00 0.  1.
         22    1    1    2    0    0  0.27433010770E+03 -0.22799904054E+03 -0.17528335193E+04  0.17887610005E+04  0.00000000000E+00 0.  1.
<mgrwt>
<rscale>  0 0.21434535E+04</rscale>
<asrwt>0</asrwt>
<pdfrwt beam="1">  1        2 0.96764924E-01 0.21434535E+04</pdfrwt>
<pdfrwt beam="2">  1       -2 0.28094639E+00 0.21434535E+04</pdfrwt>
<totfact> 0.17873390E+00</totfact>
</mgrwt>
</event>
<event>
 6    1  0.1831439E-005  0.1511190E+04  0.7818608E-02  0.8877046E-01
         -2   -1    0    0    0  501 -0.00000000000E+00  0.00000000000E+00  0.18228944361E+04  0.18228944361E+04  0.00000000000E+00 0.  1.
          2   -1    0    0  501    0  0.00000000000E+00 -0.00000000000E+00 -0.31319633440E+03  0.31319633440E+03  0.00000000000E+00 0. -1.
         23    2    1    2    0    0 -0.42687606196E+02  0.63654116456E+03  0.13223168390E+04  0.14711707576E+04  0.93886577666E+02 0.  0.
         13    1    3    3    0    0 -0.38677535543E+02  0.16701108843E+03  0.42862734776E+03  0.46163845015E+03  0.00000000000E+00 0. -1.
        -13    1    3    3    0    0 -0.40100706529E+01  0.46953007613E+03  0.89368949122E+03  0.10095323074E+04  0.00000000000E+00 0.  1.
         22    1    1    2    0    0  0.42687606196E+02 -0.63654116456E+03  0.18738126268E+03  0.66492001286E+03  0.00000000000E+00 0. -1.
<mgrwt>
<rscale>  0 0.15111901E+04</rscale>
<asrwt>0</asrwt>
<pdfrwt beam="1">  1        2 0.48184053E-01 0.15111901E+04</pdfrwt>
<pdfrwt beam="2">  1       -2 0.28044529E+00 0.15111901E+04</pdfrwt>
<totfact> 0.42373277E+00</totfact>
</mgrwt>
</event>
<event>
 6    1  0.1831439E-005  0.7397746E+03  0.7818608E-02  0.9651530E-01
         -1   -1    0    0    0  501 -0.00000000000E+00  0.00000000000E+00  0.41167413033E+03  0.41167413033E+03  0.00000000000E+00 0.  1.
          1   -1    0    0  501    0  0.00000000000E+00 -0.00000000000E+00 -0.33234199471E+03  0.33234199471E+03  0.00000000000E+00 0. -1.
         23    2    1    2    0    0  0.26547740591E+03 -0.18850745271E+03  0.20462270211E+03  0.39514503305E+03  0.90861620886E+02 0.  0.
         11    1    3    3    0    0  0.85169913081E+02 -0.32048165708E+02  0.97862123592E+02  0.13363380655E+03  0.00000000000E+00 0.  1.
        -11    1    3    3    0    0  0.18030749283E+03 -0.15645928700E+03  0.10676057851E+03  0.26151122650E+03  0.00000000000E+00 0. -1.
         22    1    1    2    0    0 -0.26547740591E+03  0.18850745271E+03 -0.12529056649E+03  0.34887109199E+03  0.00000000000E+00 0.  1.
<mgrwt>
<rscale>  0 0.73977456E+03</rscale>
<asrwt>0</asrwt>
<pdfrwt beam="1">  1        1 0.51129537E-01 0.73977456E+03</pdfrwt>
<pdfrwt beam="2">  1       -1 0.63334482E-01 0.73977456E+03</pdfrwt>
<totfact> 0.19652833E+02</totfact>
</mgrwt>
</event>
<event>
 6    1  0.1831439E-005  0.2008153E+04  0.7818608E-02  0.8602818E-01
          1   -1    0    0  501    0  0.00000000000E+00  0.00000000000E+00  0.72578488968E+03  0.72578488968E+03  0.00000000000E+00 0. -1.
         -1   -1    0    0    0  501 -0.00000000000E+00 -0.00000000000E+00 -0.13890748602E+04  0.13890748602E+04  0.00000000000E+00 0.  1.
         23    2    1    2    0    0  0.73168806825E+03 -0.68060719789E+03 -0.25550473971E+03  0.10355625797E+04  0.92269157836E+02 0.  0.
         11    1    3    3    0    0  0.10380711090E+03 -0.14127272646E+03 -0.32091922630E+02  0.17822399113E+03  0.00000000000E+00 0. -1.
        -11    1    3    3    0    0  0.62788095735E+03 -0.53933447143E+03 -0.22341281708E+03  0.85733858860E+03  0.00000000000E+00 0.  1.
         22    1    1    2    0    0 -0.73168806825E+03  0.68060719789E+03 -0.40778523083E+03  0.10792971702E+04  0.00000000000E+00 0. -1.
<mgrwt>
<rscale>  0 0.20081529E+04</rscale>
<asrwt>0</asrwt>
<pdfrwt beam="1">  1        1 0.11165922E+00 0.20081529E+04</pdfrwt>
<pdfrwt beam="2">  1       -1 0.21370382E+00 0.20081529E+04</pdfrwt>
<totfact> 0.28985989E+00</totfact>
</mgrwt>
</event>
<event>
 6    1  0.1831439E-005  0.3863383E+04  0.7818608E-02  0.8032688E-01
          1   -1    0    0  501    0  0.00000000000E+00  0.00000000000E+00  0.18390054029E+04  0.18390054029E+04  0.00000000000E+00 0. -1.
         -1   -1    0    0    0  501 -0.00000000000E+00 -0.00000000000E+00 -0.20290493622E+04  0.20290493622E+04  0.00000000000E+00 0.  1.
         23    2    1    2    0    0 -0.41530510316E+03  0.70207913910E+03 -0.18470443995E+04  0.20211536024E+04  0.89974578332E+02 0.  0.
         11    1    3    3    0    0 -0.90248587065E+02  0.92940782371E+02 -0.32270215764E+03  0.34773478261E+03  0.00000000000E+00 0. -1.
        -11    1    3    3    0    0 -0.32505651609E+03  0.60913835673E+03 -0.15243422418E+04  0.16734188198E+04  0.00000000000E+00 0.  1.
         22    1    1    2    0    0  0.41530510316E+03 -0.70207913910E+03  0.16570004402E+04  0.18469011628E+04  0.00000000000E+00 0. -1.
<mgrwt>
<rscale>  0 0.38633834E+04</rscale>
<asrwt>0</asrwt>
<pdfrwt beam="1">  1        1 0.28292391E+00 0.38633834E+04</pdfrwt>
<pdfrwt beam="2">  1       -1 0.31216144E+00 0.38633834E+04</pdfrwt>
<totfact> 0.83505045E-02</totfact>
</mgrwt>
</event>
<event>
 6    1  0.1831439E-005  0.1643134E+04  0.7818608E-02  0.8794479E-01
          1   -1    0    0  501    0  0.00000000000E+00  0.00000000000E+00  0.50460194735E+03  0.50460194735E+03  0.00000000000E+00 0. -1.
         -1   -1    0    0    0  501 -0.00000000000E+00 -0.00000000000E+00 -0.13376335948E+04  0.13376335948E+04  0.00000000000E+00 0.  1.
         23    2    1    2    0    0  0.36678080381E+03 -0.69926901836E+03 -0.17391461052E+03  0.81367315392E+03  0.91172318023E+02 0.  0.
         13    1    3    3    0    0  0.16551429074E+03 -0.24119472522E+03 -0.92161804722E+02  0.30669801786E+03  0.00000000000E+00 0. -1.
        -13    1    3    3    0    0  0.20126651307E+03 -0.45807429315E+03 -0.81752805802E+02  0.50697513606E+03  0.00000000000E+00 0.  1.
         22    1    1    2    0    0 -0.36678080381E+03  0.69926901836E+03 -0.65911703689E+03  0.10285623882E+04  0.00000000000E+00 0.  1.
<mgrwt>
<rscale>  0 0.16431342E+04</rscale>
<asrwt>0</asrwt>
<pdfrwt beam="1">  1        1 0.77631070E-01 0.16431342E+04</pdfrwt>
<pdfrwt beam="2">  1       -1 0.20578978E+00 0.16431342E+04</pdfrwt>
<totfact> 0.57455297E+00</totfact>
</mgrwt>
</event>
<event>
 6    1  0.1831439E-005  0.9831185E+03  0.7818608E-02  0.9327256E-01
         -2   -1    0    0    0  501 -0.00000000000E+00  0.00000000000E+00  0.25771508535E+03  0.25771508535E+03  0.00000000000E+00 0.  1.
          2   -1    0    0  501    0  0.00000000000E+00 -0.00000000000E+00 -0.93758769612E+03  0.93758769612E+03  0.00000000000E+00 0. -1.
         23    2    1    2    0    0  0.25784886533E+03  0.31228412383E+02 -0.84413406324E+03  0.88798685956E+03  0.92179688353E+02 0.  0.
         13    1    3    3    0    0  0.11027617976E+03  0.59056899720E+02 -0.36182882382E+03  0.38284285416E+03  0.00000000000E+00 0. -1.
        -13    1    3    3    0    0  0.14757268557E+03 -0.27828487337E+02 -0.48230523941E+03  0.50514400541E+03  0.00000000000E+00 0.  1.
         22    1    1    2    0    0 -0.25784886533E+03 -0.31228412383E+02  0.16426145246E+03  0.30731592191E+03  0.00000000000E+00 0.  1.
<mgrwt>
<rscale>  0 0.98311849E+03</rscale>
<asrwt>0</asrwt>
<pdfrwt beam="1">  1        2 0.14424426E+00 0.98311849E+03</pdfrwt>
<pdfrwt beam="2">  1       -2 0.39648475E-01 0.98311849E+03</pdfrwt>
<totfact> 0.16621665E+02</totfact>
</mgrwt>
</event>
<event>
 6    1  0.1831439E-005  0.5006289E+04  0.7818608E-02  0.7827538E-01
         -2   -1    0    0    0  501 -0.00000000000E+00  0.00000000000E+00  0.17208950308E+04  0.17208950308E+04  0.00000000000E+00 0.  1.
          2   -1    0    0  501    0  0.00000000000E+00 -0.00000000000E+00 -0.36409723275E+04  0.36409723275E+04  0.00000000000E+00 0. -1.
         23    2    1    2    0    0 -0.23571736685E+04  0.81271308970E+03 -0.73352770907E+03  0.26005868233E+04  0.90656802978E+02 0.  0.
         13    1    3    3    0    0 -0.16411702299E+04  0.60943673687E+03 -0.50983517953E+03  0.18233992349E+04  0.00000000000E+00 0. -1.
        -13    1    3    3    0    0 -0.71600343860E+03  0.20327635283E+03 -0.22369252954E+03  0.77718758834E+03  0.00000000000E+00 0.  1.
         22    1    1    2    0    0  0.23571736685E+04 -0.81271308970E+03 -0.11865495876E+04  0.27612805351E+04  0.00000000000E+00 0. -1.
<mgrwt>
<rscale>  0 0.50062885E+04</rscale>
<asrwt>0</asrwt>
<pdfrwt beam="1">  1        2 0.56014959E+00 0.50062885E+04</pdfrwt>
<pdfrwt beam="2">  1       -2 0.26475308E+00 0.50062885E+04</pdfrwt>
<totfact> 0.24421950E-02</totfact>
</mgrwt>
</event>
<event>
 6    1  0.1831439E-005  0.2548390E+04  0.7818608E-02  0.8385946E-01
         -1   -1    0    0    0  501 -0.00000000000E+00  0.00000000000E+00  0.70957402740E+03  0.70957402740E+03  0.00000000000E+00 0.  1.
          1   -1    0    0  501    0  0.00000000000E+00 -0.00000000000E+00 -0.22880950193E+04  0.22880950193E+04  0.00000000000E+00 0. -1.
         23    2    1    2    0    0  0.37618539355E+03  0.10391087458E+04 -0.15320034837E+04  0.18915830127E+04  0.98940305685E+02 0.  0.
         11    1    3    3    0    0  0.38430033432E+02  0.19322489178E+03 -0.31396110887E+03  0.37065388728E+03  0.00000000000E+00 0.  1.
        -11    1    3    3    0    0  0.33775536012E+03  0.84588385406E+03 -0.12180423748E+04  0.15209291254E+04  0.00000000000E+00 0. -1.
         22    1    1    2    0    0 -0.37618539355E+03 -0.10391087458E+04 -0.46517508258E+02  0.11060860340E+04  0.00000000000E+00 0.  1.
<mgrwt>
<rscale>  0 0.25483899E+04</rscale>
<asrwt>0</asrwt>
<pdfrwt beam="1">  1        1 0.35201462E+00 0.25483899E+04</pdfrwt>
<pdfrwt beam="2">  1       -1 0.10916524E+00 0.25483899E+04</pdfrwt>
<totfact> 0.13033089E+00</totfact>
</mgrwt>
</event>
<event>
 6    1  0.1831439E-005  0.2401580E+04  0.7818608E-02  0.8438912E-01
         -2   -1    0    0    0  501 -0.00000000000E+00  0.00000000000E+00  0.10961796391E+04  0.10961796391E+04  0.00000000000E+00 0.  1.
          2   -1    0    0  501    0  0.00000000000E+00 -0.00000000000E+00 -0.13153831684E+04  0.13153831684E+04  0.00000000000E+00 0. -1.
         23    2    1    2    0    0 -0.70329825364E+03  0.13126673223E+02 -0.10848695838E+04  0.12961353285E+04  0.90686453312E+02 0.  0.
         11    1    3    3    0    0 -0.64960865988E+03  0.28641386912E+01 -0.10359470195E+04  0.12227779199E+04  0.00000000000E+00 0.  1.
        -11    1    3    3    0    0 -0.53689593768E+02  0.10262534532E+02 -0.48922564301E+02  0.73357408568E+02  0.00000000000E+00 0. -1.
         22    1    1    2    0    0  0.70329825364E+03 -0.13126673223E+02  0.86566605443E+03  0.11154274790E+04  0.00000000000E+00 0.  1.
<mgrwt>
<rscale>  0 0.24015797E+04</rscale>
<asrwt>0</asrwt>
<pdfrwt beam="1">  1        2 0.20236664E+00 0.24015797E+04</pdfrwt>
<pdfrwt beam="2">  1       -2 0.16864302E+00 0.24015797E+04</pdfrwt>
<totfact> 0.31734876E+00</totfact>
</mgrwt>
</event>
<event>
 6    1  0.1831439E-005  0.1915322E+04  0.7818608E-02  0.8647267E-01
          1   -1    0    0  501    0  0.00000000000E+00  0.00000000000E+00  0.15836223468E+04  0.15836223468E+04  0.00000000000E+00 0. -1.
         -1   -1    0    0    0  501 -0.00000000000E+00 -0.00000000000E+00 -0.57912440641E+03  0.57912440641E+03  0.00000000000E+00 0.  1.
         23    2    1    2    0    0  0.39447748385E+02 -0.50400256354E+03  0.14189826494E+04  0.15090095866E+04  0.89573792042E+02 0.  0.
         11    1    3    3    0    0  0.26909161366E+02 -0.18472023054E+03  0.65026846139E+03  0.67653140239E+03  0.00000000000E+00 0. -1.
        -11    1    3    3    0    0  0.12538587020E+02 -0.31928233301E+03  0.76871418803E+03  0.83247818423E+03  0.00000000000E+00 0.  1.
         22    1    1    2    0    0 -0.39447748385E+02  0.50400256354E+03 -0.41448470906E+03  0.65373716657E+03  0.00000000000E+00 0.  1.
<mgrwt>
<rscale>  0 0.19153218E+04</rscale>
<asrwt>0</asrwt>
<pdfrwt beam="1">  1        1 0.24363421E+00 0.19153218E+04</pdfrwt>
<pdfrwt beam="2">  1       -1 0.89096063E-01 0.19153218E+04</pdfrwt>
<totfact> 0.66089072E+00</totfact>
</mgrwt>
</event>
<event>
 6    1  0.1831439E-005  0.2969858E+04  0.7818608E-02  0.8252391E-01
         -2   -1    0    0    0  501 -0.00000000000E+00  0.00000000000E+00  0.10409410357E+04  0.10409410357E+04  0.00000000000E+00 0.  1.
          2   -1    0    0  501    0  0.00000000000E+00 -0.00000000000E+00 -0.21182888681E+04  0.21182888681E+04  0.00000000000E+00 0. -1.
         23    2    1    2    0    0 -0.62224746440E+03 -0.96997192658E+03 -0.15338157548E+04  0.19197137040E+04  0.68355616883E+02 0.  0.
         13    1    3    3    0    0 -0.28329485148E+03 -0.39302985415E+03 -0.67960837403E+03  0.83462325703E+03  0.00000000000E+00 0. -1.
        -13    1    3    3    0    0 -0.33895261292E+03 -0.57694207243E+03 -0.85420738078E+03  0.10850904470E+04  0.00000000000E+00 0.  1.
         22    1    1    2    0    0  0.62224746440E+03  0.96997192658E+03  0.45646792236E+03  0.12395161998E+04  0.00000000000E+00 0.  1.
<mgrwt>
<rscale>  0 0.29698578E+04</rscale>
<asrwt>0</asrwt>
<pdfrwt beam="1">  1        2 0.32589059E+00 0.29698578E+04</pdfrwt>
<pdfrwt beam="2">  1       -2 0.16014478E+00 0.29698578E+04</pdfrwt>
<totfact> 0.12375128E+00</totfact>
</mgrwt>
</event>
<event>
 6    1  0.1831439E-005  0.1721153E+04  0.7818608E-02  0.8749391E-01
          1   -1    0    0  501    0  0.00000000000E+00  0.00000000000E+00  0.95434695608E+03  0.95434695608E+03  0.00000000000E+00 0. -1.
         -1   -1    0    0    0  501 -0.00000000000E+00 -0.00000000000E+00 -0.77601972670E+03  0.77601972670E+03  0.00000000000E+00 0.  1.
         23    2    1    2    0    0  0.13117063962E+03 -0.28218731181E+03 -0.71463149194E+03  0.78473953976E+03  0.91008572904E+02 0.  0.
         13    1    3    3    0    0  0.93081307171E+02 -0.14992689661E+03 -0.49530874424E+03  0.52580695715E+03  0.00000000000E+00 0.  1.
        -13    1    3    3    0    0  0.38089332445E+02 -0.13226041520E+03 -0.21932274771E+03  0.25893258261E+03  0.00000000000E+00 0. -1.
         22    1    1    2    0    0 -0.13117063962E+03  0.28218731181E+03  0.89295872132E+03  0.94562714302E+03  0.00000000000E+00 0. -1.
<mgrwt>
<rscale>  0 0.17211532E+04</rscale>
<asrwt>0</asrwt>
<pdfrwt beam="1">  1        1 0.14682261E+00 0.17211532E+04</pdfrwt>
<pdfrwt beam="2">  1       -1 0.11938765E+00 0.17211532E+04</pdfrwt>
<totfact> 0.97935985E+00</totfact>
</mgrwt>
</event>
<event>
 6    1  0.1831439E-005  0.2651550E+03  0.7818608E-02  0.1104085E+00
          1   -1    0    0  501    0  0.00000000000E+00  0.00000000000E+00  0.29501181858E+02  0.29501181858E+02  0.00000000000E+00 0. -1.
         -1   -1    0    0    0  501 -0.00000000000E+00 -0.00000000000E+00 -0.59579980438E+03  0.59579980438E+03  0.00000000000E+00 0.  1.
         23    2    1    2    0    0 -0.53140448024E+02  0.10387637434E+03 -0.31599020318E+03  0.34913344080E+03  0.91815808094E+02 0.  0.
         11    1    3    3    0    0 -0.66360851445E+02  0.10850950372E+03 -0.23761541748E+03  0.26951653312E+03  0.00000000000E+00 0. -1.
        -11    1    3    3    0    0  0.13220403421E+02 -0.46331293814E+01 -0.78374785697E+02  0.79616907674E+02  0.00000000000E+00 0.  1.
         22    1    1    2    0    0  0.53140448024E+02 -0.10387637434E+03 -0.25030841934E+03  0.27616754544E+03  0.00000000000E+00 0.  1.
<mgrwt>
<rscale>  0 0.26515504E+03</rscale>
<asrwt>0</asrwt>
<pdfrwt beam="1">  1        1 0.45386440E-02 0.26515504E+03</pdfrwt>
<pdfrwt beam="2">  1       -1 0.91661496E-01 0.26515504E+03</pdfrwt>
<totfact> 0.23203515E+03</totfact>
</mgrwt>
</event>
<event>
 6    1  0.1831439E-005  0.1038998E+04  0.7818608E-02  0.9266778E-01
          1   -1    0    0  501    0  0.00000000000E+00  0.00000000000E+00  0.16778649279E+04  0.16778649279E+04  0.00000000000E+00 0. -1.
         -1   -1    0    0    0  501 -0.00000000000E+00 -0.00000000000E+00 -0.16084670063E+03  0.16084670063E+03  0.00000000000E+00 0.  1.
         23    2    1    2    0    0  0.10456221354E+02  0.48007605212E+03  0.10958550563E+04  0.11999935648E+04  0.92216607148E+02 0.  0.
         13    1    3    3    0    0  0.46806411366E+02  0.17367323638E+03  0.37661836514E+03  0.41736629732E+03  0.00000000000E+00 0. -1.
        -13    1    3    3    0    0 -0.36350190012E+02  0.30640281574E+03  0.71923669117E+03  0.78262726744E+03  0.00000000000E+00 0.  1.
         22    1    1    2    0    0 -0.10456221354E+02 -0.48007605212E+03  0.42116317092E+03  0.63871806373E+03  0.00000000000E+00 0. -1.
<mgrwt>
<rscale>  0 0.10389977E+04</rscale>
<asrwt>0</asrwt>
<pdfrwt beam="1">  1        1 0.25813305E+00 0.10389977E+04</pdfrwt>
<pdfrwt beam="2">  1       -1 0.24745647E-01 0.10389977E+04</pdfrwt>
<totfact> 0.70433431E+01</totfact>
</mgrwt>
</event>
<event>
 6    1  0.1831439E-005  0.4287989E+04  0.7818608E-02  0.7948843E-01
         -1   -1    0    0    0  501 -0.00000000000E+00  0.00000000000E+00  0.23909692130E+04  0.23909692130E+04  0.00000000000E+00 0.  1.
          1   -1    0    0  501    0  0.00000000000E+00 -0.00000000000E+00 -0.19225311573E+04  0.19225311573E+04  0.00000000000E+00 0. -1.
         23    2    1    2    0    0  0.66512913924E+03 -0.20279816188E+04  0.42912547412E+03  0.21788688571E+04  0.90634462847E+02 0.  0.
         11    1    3    3    0    0  0.28215708288E+03 -0.92924186971E+03  0.15476416771E+03  0.98338955631E+03  0.00000000000E+00 0. -1.
        -11    1    3    3    0    0  0.38297205636E+03 -0.10987397491E+04  0.27436130641E+03  0.11954793008E+04  0.00000000000E+00 0.  1.
         22    1    1    2    0    0 -0.66512913924E+03  0.20279816188E+04  0.39312581577E+02  0.21346315132E+04  0.00000000000E+00 0. -1.
<mgrwt>
<rscale>  0 0.42879892E+04</rscale>
<asrwt>0</asrwt>
<pdfrwt beam="1">  1        1 0.29577402E+00 0.42879892E+04</pdfrwt>
<pdfrwt beam="2">  1       -1 0.36784142E+00 0.42879892E+04</pdfrwt>
<totfact> 0.30368069E-02</totfact>
</mgrwt>
</event>
<event>
 6    1  0.1831439E-005  0.3059820E+04  0.7818608E-02  0.8226852E-01
          2   -1    0    0  501    0  0.00000000000E+00  0.00000000000E+00  0.12444646013E+04  0.12444646013E+04  0.00000000000E+00 0.  1.
         -2   -1    0    0    0  501 -0.00000000000E+00 -0.00000000000E+00 -0.18808281678E+04  0.18808281678E+04  0.00000000000E+00 0. -1.
         23    2    1    2    0    0  0.10824401760E+04  0.88634138062E+03 -0.94750518208E+03  0.16920841720E+04  0.90027759355E+02 0.  0.
         11    1    3    3    0    0  0.40774864258E+03  0.36185692897E+03 -0.32325533798E+03  0.63379287319E+03  0.00000000000E+00 0.  1.
        -11    1    3    3    0    0  0.67469153347E+03  0.52448445165E+03 -0.62424984410E+03  0.10582912988E+04  0.00000000000E+00 0. -1.
         22    1    1    2    0    0 -0.10824401760E+04 -0.88634138062E+03  0.31114161552E+03  0.14332085970E+04  0.00000000000E+00 0.  1.
<mgrwt>
<rscale>  0 0.30598197E+04</rscale>
<asrwt>0</asrwt>
<pdfrwt beam="1">  1        2 0.19145609E+00 0.30598197E+04</pdfrwt>
<pdfrwt beam="2">  1       -2 0.28935818E+00 0.30598197E+04</pdfrwt>
<totfact> 0.56046578E-01</totfact>
</mgrwt>
</event>
<event>
 6    1  0.1831439E-005  0.1476408E+04  0.7818608E-02  0.8900294E-01
         -2   -1    0    0    0  501 -0.00000000000E+00  0.00000000000E+00  0.46512772665E+03  0.46512772665E+03  0.00000000000E+00 0.  1.
          2   -1    0    0  501    0  0.00000000000E+00 -0.00000000000E+00 -0.11716036526E+04  0.11716036526E+04  0.00000000000E+00 0. -1.
         23    2    1    2    0    0  0.13821880927E+03 -0.13446835027E+03 -0.11413148360E+04  0.11610518084E+04  0.90860169304E+02 0.  0.
         13    1    3    3    0    0  0.99941686871E+02 -0.63120158003E+02 -0.46007990458E+03  0.47502211919E+03  0.00000000000E+00 0. -1.
        -13    1    3    3    0    0  0.38277122404E+02 -0.71348192271E+02 -0.68123493147E+03  0.68602968922E+03  0.00000000000E+00 0.  1.
         22    1    1    2    0    0 -0.13821880927E+03  0.13446835027E+03  0.43483891005E+03  0.47567957089E+03  0.00000000000E+00 0.  1.
<mgrwt>
<rscale>  0 0.14764083E+04</rscale>
<asrwt>0</asrwt>
<pdfrwt beam="1">  1        2 0.18024672E+00 0.14764083E+04</pdfrwt>
<pdfrwt beam="2">  1       -2 0.71558112E-01 0.14764083E+04</pdfrwt>
<totfact> 0.33779054E+01</totfact>
</mgrwt>
</event>
<event>
 6    1  0.1831439E-005  0.9448373E+03  0.7818608E-02  0.9371205E-01
          1   -1    0    0  501    0  0.00000000000E+00  0.00000000000E+00  0.10470695496E+04  0.10470695496E+04  0.00000000000E+00 0. -1.
         -1   -1    0    0    0  501 -0.00000000000E+00 -0.00000000000E+00 -0.21314668215E+03  0.21314668215E+03  0.00000000000E+00 0.  1.
         23    2    1    2    0    0  0.15122194711E+03  0.42941440551E+03  0.27627247627E+03  0.54032820731E+03  0.91450978848E+02 0.  0.
         11    1    3    3    0    0  0.52733095986E+02  0.21874761206E+03  0.89895911922E+02  0.24230677286E+03  0.00000000000E+00 0. -1.
        -11    1    3    3    0    0  0.98488851121E+02  0.21066679345E+03  0.18637656435E+03  0.29802143446E+03  0.00000000000E+00 0.  1.
         22    1    1    2    0    0 -0.15122194711E+03 -0.42941440551E+03  0.55765039123E+03  0.71988802447E+03  0.00000000000E+00 0.  1.
<mgrwt>
<rscale>  0 0.94483734E+03</rscale>
<asrwt>0</asrwt>
<pdfrwt beam="1">  1        1 0.16108762E+00 0.94483734E+03</pdfrwt>
<pdfrwt beam="2">  1       -1 0.32791798E-01 0.94483734E+03</pdfrwt>
<totfact> 0.12179655E+02</totfact>
</mgrwt>
</event>
<event>
 6    1  0.1831439E-005  0.2501377E+04  0.7818608E-02  0.8402495E-01
         -2   -1    0    0    0  501 -0.00000000000E+00  0.00000000000E+00  0.13515976191E+04  0.13515976191E+04  0.00000000000E+00 0.  1.
          2   -1    0    0  501    0  0.00000000000E+00 -0.00000000000E+00 -0.11573130671E+04  0.11573130671E+04  0.00000000000E+00 0. -1.
         23    2    1    2    0    0 -0.15559250060E+03 -0.11745193566E+04  0.49382354430E+03  0.12868516233E+04  0.91764165822E+02 0.  0.
         13    1    3    3    0    0 -0.16019498812E+03 -0.10318374699E+04  0.45415243421E+03  0.11386858355E+04  0.00000000000E+00 0. -1.
        -13    1    3    3    0    0  0.46024875246E+01 -0.14268188669E+03  0.39671110088E+02  0.14816578774E+03  0.00000000000E+00 0.  1.
         22    1    1    2    0    0  0.15559250060E+03  0.11745193566E+04 -0.29953899236E+03  0.12220590629E+04  0.00000000000E+00 0. -1.
<mgrwt>
<rscale>  0 0.25013769E+04</rscale>
<asrwt>0</asrwt>
<pdfrwt beam="1">  1        2 0.17804816E+00 0.25013769E+04</pdfrwt>
<pdfrwt beam="2">  1       -2 0.20793810E+00 0.25013769E+04</pdfrwt>
<totfact> 0.21157900E+00</totfact>
</mgrwt>
</event>
<event>
 6    1  0.1831439E-005  0.2574599E+04  0.7818608E-02  0.8376881E-01
          2   -1    0    0  501    0  0.00000000000E+00  0.00000000000E+00  0.11480152942E+04  0.11480152942E+04  0.00000000000E+00 0. -1.
         -2   -1    0    0    0  501 -0.00000000000E+00 -0.00000000000E+00 -0.14434830579E+04  0.14434830579E+04  0.00000000000E+00 0.  1.
         23    2    1    2    0    0 -0.10992133819E+04 -0.25950655600E+03  0.47043412790E+03  0.12268667465E+04  0.90994689387E+02 0.  0.
         11    1    3    3    0    0 -0.60960694002E+03 -0.97760228217E+02  0.26275680359E+03  0.67098347325E+03  0.00000000000E+00 0.  1.
        -11    1    3    3    0    0 -0.48960644185E+03 -0.16174632778E+03  0.20767732432E+03  0.55588327326E+03  0.00000000000E+00 0. -1.
         22    1    1    2    0    0  0.10992133819E+04  0.25950655600E+03 -0.76590189158E+03  0.13646316056E+04  0.00000000000E+00 0.  1.
<mgrwt>
<rscale>  0 0.25745995E+04</rscale>
<asrwt>0</asrwt>
<pdfrwt beam="1">  1        2 0.17661774E+00 0.25745995E+04</pdfrwt>
<pdfrwt beam="2">  1       -2 0.22207432E+00 0.25745995E+04</pdfrwt>
<totfact> 0.17303919E+00</totfact>
</mgrwt>
</event>
<event>
 6    1  0.1831439E-005  0.1632630E+04  0.7818608E-02  0.8800749E-01
         -1   -1    0    0    0  501 -0.00000000000E+00  0.00000000000E+00  0.34471223943E+03  0.34471223943E+03  0.00000000000E+00 0.  1.
          1   -1    0    0  501    0  0.00000000000E+00 -0.00000000000E+00 -0.19331206988E+04  0.19331206988E+04  0.00000000000E+00 0. -1.
         23    2    1    2    0    0 -0.78340506890E+02  0.80787198654E+03 -0.87730995028E+03  0.11987335585E+04  0.92168399244E+02 0.  0.
         13    1    3    3    0    0 -0.88725600627E+02  0.53454324881E+03 -0.61671774957E+03  0.82094427319E+03  0.00000000000E+00 0. -1.
        -13    1    3    3    0    0  0.10385093736E+02  0.27332873773E+03 -0.26059220071E+03  0.37778928533E+03  0.00000000000E+00 0.  1.
         22    1    1    2    0    0  0.78340506890E+02 -0.80787198654E+03 -0.71109850908E+03  0.10790993797E+04  0.00000000000E+00 0.  1.
<mgrwt>
<rscale>  0 0.16326302E+04</rscale>
<asrwt>0</asrwt>
<pdfrwt beam="1">  1        1 0.29740318E+00 0.16326302E+04</pdfrwt>
<pdfrwt beam="2">  1       -1 0.53032652E-01 0.16326302E+04</pdfrwt>
<totfact> 0.11353627E+01</totfact>
</mgrwt>
</event>
<event>
 6    1  0.1831439E-005  0.1395472E+04  0.7818608E-02  0.8957102E-01
          2   -1    0    0  501    0  0.00000000000E+00  0.00000000000E+00  0.68184735995E+03  0.68184735995E+03  0.00000000000E+00 0. -1.
         -2   -1    0    0    0  501 -0.00000000000E+00 -0.00000000000E+00 -0.71399521512E+03  0.71399521512E+03  0.00000000000E+00 0.  1.
         23    2    1    2    0    0 -0.25224697700E+03 -0.19600002981E+03  0.60119774347E+03  0.68649696368E+03  0.88288194494E+02 0.  0.
         11    1    3    3    0    0 -0.20451190706E+03 -0.12282368369E+03  0.38008543272E+03  0.44874905412E+03  0.00000000000E+00 0.  1.
        -11    1    3    3    0    0 -0.47735069945E+02 -0.73176346120E+02  0.22111231075E+03  0.23774790956E+03  0.00000000000E+00 0. -1.
         22    1    1    2    0    0  0.25224697700E+03  0.19600002981E+03 -0.63334559864E+03  0.70934561140E+03  0.00000000000E+00 0.  1.
<mgrwt>
<rscale>  0 0.13954723E+04</rscale>
<asrwt>0</asrwt>
<pdfrwt beam="1">  1        2 0.10489959E+00 0.13954723E+04</pdfrwt>
<pdfrwt beam="2">  1       -2 0.10984542E+00 0.13954723E+04</pdfrwt>
<totfact> 0.27188639E+01</totfact>
</mgrwt>
</event>
<event>
 6    1  0.1831439E-005  0.2531659E+04  0.7818608E-02  0.8391793E-01
          1   -1    0    0  501    0  0.00000000000E+00  0.00000000000E+00  0.20242861175E+04  0.20242861175E+04  0.00000000000E+00 0. -1.
         -1   -1    0    0    0  501 -0.00000000000E+00 -0.00000000000E+00 -0.79155012089E+03  0.79155012089E+03  0.00000000000E+00 0.  1.
         23    2    1    2    0    0  0.10031553456E+04 -0.45715918916E+03  0.13055028432E+04  0.17110239532E+04  0.89163463385E+02 0.  0.
         13    1    3    3    0    0  0.46954128020E+03 -0.24708030954E+03  0.67825668274E+03  0.86113287061E+03  0.00000000000E+00 0. -1.
        -13    1    3    3    0    0  0.53361406539E+03 -0.21007887963E+03  0.62724616046E+03  0.84989108259E+03  0.00000000000E+00 0.  1.
         22    1    1    2    0    0 -0.10031553456E+04  0.45715918916E+03 -0.72766846551E+02  0.11048122852E+04  0.00000000000E+00 0.  1.
<mgrwt>
<rscale>  0 0.25316587E+04</rscale>
<asrwt>0</asrwt>
<pdfrwt beam="1">  1        1 0.31142863E+00 0.25316587E+04</pdfrwt>
<pdfrwt beam="2">  1       -1 0.12177694E+00 0.25316587E+04</pdfrwt>
<totfact> 0.15174164E+00</totfact>
</mgrwt>
</event>
<event>
 6    1  0.1831439E-005  0.2900963E+04  0.7818608E-02  0.8272591E-01
          2   -1    0    0  501    0  0.00000000000E+00  0.00000000000E+00  0.26381641781E+04  0.26381641781E+04  0.00000000000E+00 0. -1.
         -2   -1    0    0    0  501 -0.00000000000E+00 -0.00000000000E+00 -0.79748533865E+03  0.79748533865E+03  0.00000000000E+00 0.  1.
         23    2    1    2    0    0 -0.84454927082E+03 -0.42811490425E+03 -0.37762935960E+03  0.10237131353E+04  0.94014935456E+02 0.  0.
         11    1    3    3    0    0 -0.50405957956E+03 -0.20454278546E+03 -0.22650135539E+03  0.58925094385E+03  0.00000000000E+00 0.  1.
        -11    1    3    3    0    0 -0.34048969126E+03 -0.22357211879E+03 -0.15112800421E+03  0.43446219146E+03  0.00000000000E+00 0. -1.
         22    1    1    2    0    0  0.84454927082E+03  0.42811490425E+03  0.22183081990E+04  0.24119363814E+04  0.00000000000E+00 0. -1.
<mgrwt>
<rscale>  0 0.29009635E+04</rscale>
<asrwt>0</asrwt>
<pdfrwt beam="1">  1        2 0.40587141E+00 0.29009635E+04</pdfrwt>
<pdfrwt beam="2">  1       -2 0.12269005E+00 0.29009635E+04</pdfrwt>
<totfact> 0.12525529E+00</totfact>
</mgrwt>
</event>
<event>
 6    1  0.1831439E-005  0.2249636E+04  0.7818608E-02  0.8498048E-01
         -1   -1    0    0    0  501 -0.00000000000E+00  0.00000000000E+00  0.66423263225E+03  0.66423263225E+03  0.00000000000E+00 0.  1.
          1   -1    0    0  501    0  0.00000000000E+00 -0.00000000000E+00 -0.19047781318E+04  0.19047781318E+04  0.00000000000E+00 0. -1.
         23    2    1    2    0    0 -0.87606373145E+03  0.49726837204E+03 -0.11880825942E+04  0.15602908566E+04  0.90574892375E+02 0.  0.
         13    1    3    3    0    0 -0.54804702623E+03  0.26387428905E+03 -0.68896007269E+03  0.91904905481E+03  0.00000000000E+00 0.  1.
        -13    1    3    3    0    0 -0.32801670522E+03  0.23339408299E+03 -0.49912252147E+03  0.64124180175E+03  0.00000000000E+00 0. -1.
         22    1    1    2    0    0  0.87606373145E+03 -0.49726837204E+03 -0.52462905418E+02  0.10087199075E+04  0.00000000000E+00 0.  1.
<mgrwt>
<rscale>  0 0.22496362E+04</rscale>
<asrwt>0</asrwt>
<pdfrwt beam="1">  1        1 0.29304278E+00 0.22496362E+04</pdfrwt>
<pdfrwt beam="2">  1       -1 0.10218964E+00 0.22496362E+04</pdfrwt>
<totfact> 0.28461178E+00</totfact>
</mgrwt>
</event>
<event>
 6    1  0.1831439E-005  0.4520602E+04  0.7818608E-02  0.7907040E-01
          1   -1    0    0  501    0  0.00000000000E+00  0.00000000000E+00  0.20028606533E+04  0.20028606533E+04  0.00000000000E+00 0. -1.
         -1   -1    0    0    0  501 -0.00000000000E+00 -0.00000000000E+00 -0.25508317041E+04  0.25508317041E+04  0.00000000000E+00 0.  1.
         23    2    1    2    0    0  0.18987651268E+04  0.10959238049E+04  0.27575816502E+03  0.22117086226E+04  0.96200169125E+02 0.  0.
         13    1    3    3    0    0  0.35611695709E+03  0.24150353948E+03  0.76418660250E+02  0.43701608476E+03  0.00000000000E+00 0.  1.
        -13    1    3    3    0    0  0.15426481697E+04  0.85442026544E+03  0.19933950476E+03  0.17746925378E+04  0.00000000000E+00 0. -1.
         22    1    1    2    0    0 -0.18987651268E+04 -0.10959238049E+04 -0.82372921578E+03  0.23419837348E+04  0.00000000000E+00 0.  1.
<mgrwt>
<rscale>  0 0.45206019E+04</rscale>
<asrwt>0</asrwt>
<pdfrwt beam="1">  1        1 0.30813241E+00 0.45206019E+04</pdfrwt>
<pdfrwt beam="2">  1       -1 0.39243565E+00 0.45206019E+04</pdfrwt>
<totfact> 0.17927673E-02</totfact>
</mgrwt>
</event>
<event>
 6    1  0.1831439E-005  0.1382875E+04  0.7818608E-02  0.8966308E-01
          1   -1    0    0  501    0  0.00000000000E+00  0.00000000000E+00  0.69043705119E+03  0.69043705119E+03  0.00000000000E+00 0. -1.
         -1   -1    0    0    0  501 -0.00000000000E+00 -0.00000000000E+00 -0.69243972071E+03  0.69243972071E+03  0.00000000000E+00 0.  1.
         23    2    1    2    0    0  0.19978091148E+03 -0.34057557840E+03  0.56289835515E+03  0.69366178014E+03  0.91694982437E+02 0.  0.
         13    1    3    3    0    0  0.12430350091E+03 -0.13139032673E+03  0.28781847158E+03  0.33993271523E+03  0.00000000000E+00 0.  1.
        -13    1    3    3    0    0  0.75477410570E+02 -0.20918525167E+03  0.27507988356E+03  0.35372906491E+03  0.00000000000E+00 0. -1.
         22    1    1    2    0    0 -0.19978091148E+03  0.34057557840E+03 -0.56490102467E+03  0.68921499176E+03  0.00000000000E+00 0.  1.
<mgrwt>
<rscale>  0 0.13828753E+04</rscale>
<asrwt>0</asrwt>
<pdfrwt beam="1">  1        1 0.10622108E+00 0.13828753E+04</pdfrwt>
<pdfrwt beam="2">  1       -1 0.10652919E+00 0.13828753E+04</pdfrwt>
<totfact> 0.22365793E+01</totfact>
</mgrwt>
</event>
<event>
 6    1  0.1831439E-005  0.5037718E+04  0.7818608E-02  0.7822715E-01
         -1   -1    0    0    0  501 -0.00000000000E+00  0.00000000000E+00  0.14837998379E+04  0.14837998379E+04  0.00000000000E+00 0.  1.
          1   -1    0    0  501    0  0.00000000000E+00 -0.00000000000E+00 -0.42759474842E+04  0.42759474842E+04  0.00000000000E+00 0. -1.
         23    2    1    2    0    0 -0.81886402618E+03  0.18748624397E+04  0.28184433266E+03  0.20671771945E+04  0.90210111925E+02 0.  0.
         11    1    3    3    0    0 -0.10816009007E+03  0.17996776285E+03  0.32504569482E+02  0.21247011034E+03  0.00000000000E+00 0. -1.
        -11    1    3    3    0    0 -0.71070393611E+03  0.16948946769E+04  0.24933976318E+03  0.18547070842E+04  0.00000000000E+00 0.  1.
         22    1    1    2    0    0  0.81886402618E+03 -0.18748624397E+04 -0.30739919789E+04  0.36925701277E+04  0.00000000000E+00 0. -1.
<mgrwt>
<rscale>  0 0.50377178E+04</rscale>
<asrwt>0</asrwt>
<pdfrwt beam="1">  1        1 0.65783808E+00 0.50377178E+04</pdfrwt>
<pdfrwt beam="2">  1       -1 0.22827690E+00 0.50377178E+04</pdfrwt>
<totfact> 0.37217379E-03</totfact>
</mgrwt>
</event>
<event>
 6    1  0.1831439E-005  0.3190706E+04  0.7818608E-02  0.8191276E-01
         -1   -1    0    0    0  501 -0.00000000000E+00  0.00000000000E+00  0.95327449372E+03  0.95327449372E+03  0.00000000000E+00 0.  1.
          1   -1    0    0  501    0  0.00000000000E+00 -0.00000000000E+00 -0.26699038592E+04  0.26699038592E+04  0.00000000000E+00 0. -1.
         23    2    1    2    0    0  0.12546998534E+04  0.74488197667E+03 -0.15877010861E+04  0.21583427367E+04  0.92345810851E+02 0.  0.
         11    1    3    3    0    0  0.26978392284E+03  0.11718347209E+03 -0.31758837474E+03  0.43287146698E+03  0.00000000000E+00 0. -1.
        -11    1    3    3    0    0  0.98491593057E+03  0.62769850459E+03 -0.12701127114E+04  0.17254712697E+04  0.00000000000E+00 0.  1.
         22    1    1    2    0    0 -0.12546998534E+04 -0.74488197667E+03 -0.12892827934E+03  0.14648356162E+04  0.00000000000E+00 0.  1.
<mgrwt>
<rscale>  0 0.31907060E+04</rscale>
<asrwt>0</asrwt>
<pdfrwt beam="1">  1        1 0.41075444E+00 0.31907060E+04</pdfrwt>
<pdfrwt beam="2">  1       -1 0.14665761E+00 0.31907060E+04</pdfrwt>
<totfact> 0.31969227E-01</totfact>
</mgrwt>
</event>
<event>
 6    1  0.1831439E-005  0.3555423E+04  0.7818608E-02  0.8100780E-01
         -1   -1    0    0    0  501 -0.00000000000E+00  0.00000000000E+00  0.25634771662E+04  0.25634771662E+04  0.00000000000E+00 0.  1.
          1   -1    0    0  501    0  0.00000000000E+00 -0.00000000000E+00 -0.12328011585E+04  0.12328011585E+04  0.00000000000E+00 0. -1.
         23    2    1    2    0    0  0.43893196622E+03  0.33030524835E+03  0.24696854510E+04  0.25317209556E+04  0.92205976947E+02 0.  0.
         13    1    3    3    0    0  0.26876290777E+03  0.18197833566E+03  0.12586989014E+04  0.12998740476E+04  0.00000000000E+00 0.  1.
        -13    1    3    3    0    0  0.17016905845E+03  0.14832691269E+03  0.12109865496E+04  0.12318469080E+04  0.00000000000E+00 0. -1.
         22    1    1    2    0    0 -0.43893196622E+03 -0.33030524835E+03 -0.11390094432E+04  0.12645573691E+04  0.00000000000E+00 0. -1.
<mgrwt>
<rscale>  0 0.35554227E+04</rscale>
<asrwt>0</asrwt>
<pdfrwt beam="1">  1        1 0.18966172E+00 0.35554227E+04</pdfrwt>
<pdfrwt beam="2">  1       -1 0.39438110E+00 0.35554227E+04</pdfrwt>
<totfact> 0.64124085E-02</totfact>
</mgrwt>
</event>
<event>
 6    1  0.1831439E-005  0.3834542E+04  0.7818608E-02  0.8038783E-01
         -1   -1    0    0    0  501 -0.00000000000E+00  0.00000000000E+00  0.17943956306E+04  0.17943956306E+04  0.00000000000E+00 0.  1.
          1   -1    0    0  501    0  0.00000000000E+00 -0.00000000000E+00 -0.20485602195E+04  0.20485602195E+04  0.00000000000E+00 0. -1.
         23    2    1    2    0    0 -0.16512009038E+04 -0.90834548020E+03  0.22035676453E+03  0.18995756889E+04  0.90965698667E+02 0.  0.
         13    1    3    3    0    0 -0.93829626382E+03 -0.49395634083E+03  0.82943364984E+02  0.10636128747E+04  0.00000000000E+00 0. -1.
        -13    1    3    3    0    0 -0.71290463995E+03 -0.41438913936E+03  0.13741339954E+03  0.83596281428E+03  0.00000000000E+00 0.  1.
         22    1    1    2    0    0  0.16512009038E+04  0.90834548020E+03 -0.47452135341E+03  0.19433801612E+04  0.00000000000E+00 0. -1.
<mgrwt>
<rscale>  0 0.38345417E+04</rscale>
<asrwt>0</asrwt>
<pdfrwt beam="1">  1        1 0.31516311E+00 0.38345417E+04</pdfrwt>
<pdfrwt beam="2">  1       -1 0.27606087E+00 0.38345417E+04</pdfrwt>
<totfact> 0.10343832E-01</totfact>
</mgrwt>
</event>
<event>
 6    1  0.1831439E-005  0.2339015E+04  0.7818608E-02  0.8462695E-01
          1   -1    0    0  501    0  0.00000000000E+00  0.00000000000E+00  0.17447873134E+04  0.17447873134E+04  0.00000000000E+00 0. -1.
         -1   -1    0    0    0  501 -0.00000000000E+00 -0.00000000000E+00 -0.78390546455E+03  0.78390546455E+03  0.00000000000E+00 0.  1.
         23    2    1    2    0    0 -0.14123975371E+03  0.93712176847E+03  0.12187441785E+04  0.15465324764E+04  0.90991488261E+02 0.  0.
         11    1    3    3    0    0 -0.79101599196E+02  0.76261771947E+03  0.99111626537E+03  0.12530579797E+04  0.00000000000E+00 0.  1.
        -11    1    3    3    0    0 -0.62138154513E+02  0.17450404900E+03  0.22762791315E+03  0.29347449669E+03  0.00000000000E+00 0. -1.
         22    1    1    2    0    0  0.14123975371E+03 -0.93712176847E+03 -0.25786232963E+03  0.98216030158E+03  0.00000000000E+00 0.  1.
<mgrwt>
<rscale>  0 0.23390154E+04</rscale>
<asrwt>0</asrwt>
<pdfrwt beam="1">  1        1 0.26842882E+00 0.23390154E+04</pdfrwt>
<pdfrwt beam="2">  1       -1 0.12060084E+00 0.23390154E+04</pdfrwt>
<totfact> 0.24470502E+00</totfact>
</mgrwt>
</event>
<event>
 6    1  0.1831439E-005  0.2107043E+04  0.7818608E-02  0.8558147E-01
         -2   -1    0    0    0  501 -0.00000000000E+00  0.00000000000E+00  0.73698491317E+03  0.73698491317E+03  0.00000000000E+00 0.  1.
          2   -1    0    0  501    0  0.00000000000E+00 -0.00000000000E+00 -0.15060106115E+04  0.15060106115E+04  0.00000000000E+00 0. -1.
         23    2    1    2    0    0  0.64069457149E+03  0.44172442403E+03 -0.11378605278E+04  0.13818049928E+04  0.95123376719E+02 0.  0.
         11    1    3    3    0    0  0.10470276201E+02  0.24468740915E+02 -0.24840715131E+02  0.36406140882E+02  0.00000000000E+00 0.  1.
        -11    1    3    3    0    0  0.63022429528E+03  0.41725568312E+03 -0.11130198126E+04  0.13453988519E+04  0.00000000000E+00 0. -1.
         22    1    1    2    0    0 -0.64069457149E+03 -0.44172442403E+03  0.36883482944E+03  0.86119053184E+03  0.00000000000E+00 0.  1.
<mgrwt>
<rscale>  0 0.21070426E+04</rscale>
<asrwt>0</asrwt>
<pdfrwt beam="1">  1        2 0.23169393E+00 0.21070426E+04</pdfrwt>
<pdfrwt beam="2">  1       -2 0.11338230E+00 0.21070426E+04</pdfrwt>
<totfact> 0.70817385E+00</totfact>
</mgrwt>
</event>
<event>
 6    1  0.1831439E-005  0.1305458E+04  0.7818608E-02  0.9025248E-01
          1   -1    0    0  501    0  0.00000000000E+00  0.00000000000E+00  0.72555840678E+03  0.72555840678E+03  0.00000000000E+00 0. -1.
         -1   -1    0    0    0  501 -0.00000000000E+00 -0.00000000000E+00 -0.58721027369E+03  0.58721027369E+03  0.00000000000E+00 0.  1.
         23    2    1    2    0    0  0.21024801895E+03  0.44983339405E+03 -0.35160183944E+03  0.61519768950E+03  0.91049611700E+02 0.  0.
         13    1    3    3    0    0  0.14243882744E+03  0.21520557773E+03 -0.14993160018E+03  0.29846565126E+03  0.00000000000E+00 0.  1.
        -13    1    3    3    0    0  0.67809191513E+02  0.23462781632E+03 -0.20167023926E+03  0.31673203824E+03  0.00000000000E+00 0. -1.
         22    1    1    2    0    0 -0.21024801895E+03 -0.44983339405E+03  0.48994997252E+03  0.69757099097E+03  0.00000000000E+00 0. -1.
<mgrwt>
<rscale>  0 0.13054583E+04</rscale>
<asrwt>0</asrwt>
<pdfrwt beam="1">  1        1 0.11162437E+00 0.13054583E+04</pdfrwt>
<pdfrwt beam="2">  1       -1 0.90340042E-01 0.13054583E+04</pdfrwt>
<totfact> 0.30352369E+01</totfact>
</mgrwt>
</event>
<event>
 6    1  0.1831439E-005  0.2020753E+04  0.7818608E-02  0.8596979E-01
         -1   -1    0    0    0  501 -0.00000000000E+00  0.00000000000E+00  0.64646110327E+03  0.64646110327E+03  0.00000000000E+00 0.  1.
          1   -1    0    0  501    0  0.00000000000E+00 -0.00000000000E+00 -0.15791525104E+04  0.15791525104E+04  0.00000000000E+00 0. -1.
         23    2    1    2    0    0 -0.57018999774E+00 -0.95367235564E+03 -0.82791249206E+03  0.12662023838E+04  0.91313171072E+02 0.  0.
         13    1    3    3    0    0  0.25334896672E+01 -0.32143707958E+03 -0.33723900231E+03  0.46589522361E+03  0.00000000000E+00 0. -1.
        -13    1    3    3    0    0 -0.31036796650E+01 -0.63223527606E+03 -0.49067348976E+03  0.80030716020E+03  0.00000000000E+00 0.  1.
         22    1    1    2    0    0  0.57018999774E+00  0.95367235564E+03 -0.10477891511E+03  0.95941122991E+03  0.00000000000E+00 0. -1.
<mgrwt>
<rscale>  0 0.20207530E+04</rscale>
<asrwt>0</asrwt>
<pdfrwt beam="1">  1        1 0.24294654E+00 0.20207530E+04</pdfrwt>
<pdfrwt beam="2">  1       -1 0.99455555E-01 0.20207530E+04</pdfrwt>
<totfact> 0.51539385E+00</totfact>
</mgrwt>
</event>
<event>
 6    1  0.1831439E-005  0.1413825E+04  0.7818608E-02  0.8943872E-01
          2   -1    0    0  501    0  0.00000000000E+00  0.00000000000E+00  0.15399717085E+04  0.15399717085E+04  0.00000000000E+00 0. -1.
         -2   -1    0    0    0  501 -0.00000000000E+00 -0.00000000000E+00 -0.32450291740E+03  0.32450291740E+03  0.00000000000E+00 0.  1.
         23    2    1    2    0    0  0.12593088709E+03  0.68293741220E+03  0.76106545815E+03  0.10345683141E+04  0.94068420485E+02 0.  0.
         13    1    3    3    0    0  0.59608332066E+02  0.17502186532E+03  0.15696177004E+03  0.24253412924E+03  0.00000000000E+00 0.  1.
        -13    1    3    3    0    0  0.66322555027E+02  0.50791554687E+03  0.60410368811E+03  0.79203418490E+03  0.00000000000E+00 0. -1.
         22    1    1    2    0    0 -0.12593088709E+03 -0.68293741220E+03  0.45440333294E+03  0.82990631175E+03  0.00000000000E+00 0.  1.
<mgrwt>
<rscale>  0 0.14138250E+04</rscale>
<asrwt>0</asrwt>
<pdfrwt beam="1">  1        2 0.23691872E+00 0.14138250E+04</pdfrwt>
<pdfrwt beam="2">  1       -2 0.49923527E-01 0.14138250E+04</pdfrwt>
<totfact> 0.44474191E+01</totfact>
</mgrwt>
</event>
<event>
 6    1  0.1831439E-005  0.1550979E+04  0.7818608E-02  0.8851242E-01
         -1   -1    0    0    0  501 -0.00000000000E+00  0.00000000000E+00  0.23628784787E+03  0.23628784787E+03  0.00000000000E+00 0.  1.
          1   -1    0    0  501    0  0.00000000000E+00 -0.00000000000E+00 -0.25451338636E+04  0.25451338636E+04  0.00000000000E+00 0. -1.
         23    2    1    2    0    0  0.56659793961E+03  0.44676647959E+02 -0.20976125354E+04  0.21750812038E+04  0.89278588359E+02 0.  0.
         11    1    3    3    0    0  0.48242630551E+03  0.38302988817E+02 -0.18897508291E+04  0.19507333122E+04  0.00000000000E+00 0. -1.
        -11    1    3    3    0    0  0.84171634099E+02  0.63736591424E+01 -0.20786170637E+03  0.22434789166E+03  0.00000000000E+00 0.  1.
         22    1    1    2    0    0 -0.56659793961E+03 -0.44676647959E+02 -0.21123348033E+03  0.60634050769E+03  0.00000000000E+00 0.  1.
<mgrwt>
<rscale>  0 0.15509793E+04</rscale>
<asrwt>0</asrwt>
<pdfrwt beam="1">  1        1 0.39155902E+00 0.15509793E+04</pdfrwt>
<pdfrwt beam="2">  1       -1 0.36351980E-01 0.15509793E+04</pdfrwt>
<totfact> 0.88221073E+00</totfact>
</mgrwt>
</event>
<event>
 6    1  0.1831439E-005  0.2800923E+04  0.7818608E-02  0.8302982E-01
         -1   -1    0    0    0  501 -0.00000000000E+00  0.00000000000E+00  0.10591721893E+04  0.10591721893E+04  0.00000000000E+00 0.  1.
          1   -1    0    0  501    0  0.00000000000E+00 -0.00000000000E+00 -0.18517221287E+04  0.18517221287E+04  0.00000000000E+00 0. -1.
         23    2    1    2    0    0 -0.88081642929E+03 -0.56758231480E+03 -0.13599976782E+04  0.17192634178E+04  0.91026089467E+02 0.  0.
         13    1    3    3    0    0 -0.71091015807E+03 -0.49686603614E+03 -0.11029942873E+04  0.14031626807E+04  0.00000000000E+00 0.  1.
        -13    1    3    3    0    0 -0.16990627122E+03 -0.70716278657E+02 -0.25700339094E+03  0.31610073714E+03  0.00000000000E+00 0. -1.
         22    1    1    2    0    0  0.88081642929E+03  0.56758231480E+03  0.56744773876E+03  0.11916309002E+04  0.00000000000E+00 0.  1.
<mgrwt>
<rscale>  0 0.28009231E+04</rscale>
<asrwt>0</asrwt>
<pdfrwt beam="1">  1        1 0.28488033E+00 0.28009231E+04</pdfrwt>
<pdfrwt beam="2">  1       -1 0.16294957E+00 0.28009231E+04</pdfrwt>
<totfact> 0.90299117E-01</totfact>
</mgrwt>
</event>
<event>
 6    1  0.1831439E-005  0.3278882E+04  0.7818608E-02  0.8168290E-01
          1   -1    0    0  501    0  0.00000000000E+00  0.00000000000E+00  0.12270345989E+04  0.12270345989E+04  0.00000000000E+00 0. -1.
         -1   -1    0    0    0  501 -0.00000000000E+00 -0.00000000000E+00 -0.21904575782E+04  0.21904575782E+04  0.00000000000E+00 0.  1.
         23    2    1    2    0    0 -0.12113007291E+04  0.33890846525E+02 -0.16310284449E+04  0.20339839177E+04  0.91862634345E+02 0.  0.
         11    1    3    3    0    0 -0.77098180712E+03  0.14383083410E+02 -0.11095897973E+04  0.13512251250E+04  0.00000000000E+00 0. -1.
        -11    1    3    3    0    0 -0.44031892200E+03  0.19507763115E+02 -0.52143864760E+03  0.68275879276E+03  0.00000000000E+00 0.  1.
         22    1    1    2    0    0  0.12113007291E+04 -0.33890846525E+02  0.66760546574E+03  0.13835082594E+04  0.00000000000E+00 0. -1.
<mgrwt>
<rscale>  0 0.32788823E+04</rscale>
<asrwt>0</asrwt>
<pdfrwt beam="1">  1        1 0.18877456E+00 0.32788823E+04</pdfrwt>
<pdfrwt beam="2">  1       -1 0.33699347E+00 0.32788823E+04</pdfrwt>
<totfact> 0.16066057E-01</totfact>
</mgrwt>
</event>
<event>
 6    1  0.1831439E-005  0.1594434E+04  0.7818608E-02  0.8823975E-01
         -1   -1    0    0    0  501 -0.00000000000E+00  0.00000000000E+00  0.56370441342E+03  0.56370441342E+03  0.00000000000E+00 0.  1.
          1   -1    0    0  501    0  0.00000000000E+00 -0.00000000000E+00 -0.11274608154E+04  0.11274608154E+04  0.00000000000E+00 0. -1.
         23    2    1    2    0    0 -0.29806118925E+03  0.61655336706E+03  0.14487547987E+03  0.70570205299E+03  0.89710400461E+02 0.  0.
         13    1    3    3    0    0 -0.20421872433E+03  0.40869853613E+03  0.13904591077E+03  0.47757046193E+03  0.00000000000E+00 0. -1.
        -13    1    3    3    0    0 -0.93842464920E+02  0.20785483093E+03  0.58295690927E+01  0.22813159106E+03  0.00000000000E+00 0.  1.
         22    1    1    2    0    0  0.29806118925E+03 -0.61655336706E+03 -0.70863188187E+03  0.98546317586E+03  0.00000000000E+00 0. -1.
<mgrwt>
<rscale>  0 0.15944336E+04</rscale>
<asrwt>0</asrwt>
<pdfrwt beam="1">  1        1 0.17345551E+00 0.15944336E+04</pdfrwt>
<pdfrwt beam="2">  1       -1 0.86723757E-01 0.15944336E+04</pdfrwt>
<totfact> 0.15213142E+01</totfact>
</mgrwt>
</event>
<event>
 6    1  0.1831439E-005  0.2175198E+04  0.7818608E-02  0.8528823E-01
          1   -1    0    0  501    0  0.00000000000E+00  0.00000000000E+00  0.17588562316E+04  0.17588562316E+04  0.00000000000E+00 0. -1.
         -1   -1    0    0    0  501 -0.00000000000E+00 -0.00000000000E+00 -0.67252320616E+03  0.67252320616E+03  0.00000000000E+00 0.  1.
         23    2    1    2    0    0 -0.10302963665E+04 -0.34222034560E+03  0.53350789127E+03  0.12130851397E+04  0.91211393042E+02 0.  0.
         11    1    3    3    0    0 -0.19115905987E+03 -0.56084636335E+02  0.60413781963E+02  0.20817564135E+03  0.00000000000E+00 0. -1.
        -11    1    3    3    0    0 -0.83913730664E+03 -0.28613570927E+03  0.47309410931E+03  0.10049094983E+04  0.00000000000E+00 0.  1.
         22    1    1    2    0    0  0.10302963665E+04  0.34222034560E+03  0.55282513415E+03  0.12182942981E+04  0.00000000000E+00 0. -1.
<mgrwt>
<rscale>  0 0.21751980E+04</rscale>
<asrwt>0</asrwt>
<pdfrwt beam="1">  1        1 0.27059326E+00 0.21751980E+04</pdfrwt>
<pdfrwt beam="2">  1       -1 0.10346511E+00 0.21751980E+04</pdfrwt>
<totfact> 0.34975860E+00</totfact>
</mgrwt>
</event>
<event>
 6    1  0.1831439E-005  0.2452347E+04  0.7818608E-02  0.8420162E-01
         -2   -1    0    0    0  501 -0.00000000000E+00  0.00000000000E+00  0.44102784852E+03  0.44102784852E+03  0.00000000000E+00 0.  1.
          2   -1    0    0  501    0  0.00000000000E+00 -0.00000000000E+00 -0.34090837514E+04  0.34090837514E+04  0.00000000000E+00 0. -1.
         23    2    1    2    0    0  0.75053307314E+03 -0.40056395331E+03 -0.28685761991E+04  0.29935792969E+04  0.95059048010E+02 0.  0.
         11    1    3    3    0    0  0.50689294528E+03 -0.31281499078E+03 -0.20768225007E+04  0.21605520997E+04  0.00000000000E+00 0.  1.
        -11    1    3    3    0    0  0.24364012786E+03 -0.87748962537E+02 -0.79175369841E+03  0.83302719720E+03  0.00000000000E+00 0. -1.
         22    1    1    2    0    0 -0.75053307314E+03  0.40056395331E+03 -0.99479703800E+02  0.85653230297E+03  0.00000000000E+00 0.  1.
<mgrwt>
<rscale>  0 0.24523465E+04</rscale>
<asrwt>0</asrwt>
<pdfrwt beam="1">  1        2 0.52447441E+00 0.24523465E+04</pdfrwt>
<pdfrwt beam="2">  1       -2 0.67850440E-01 0.24523465E+04</pdfrwt>
<totfact> 0.16765287E+00</totfact>
</mgrwt>
</event>
<event>
 6    1  0.1831439E-005  0.1042422E+04  0.7818608E-02  0.9263203E-01
          1   -1    0    0  501    0  0.00000000000E+00  0.00000000000E+00  0.90350846747E+03  0.90350846747E+03  0.00000000000E+00 0. -1.
         -1   -1    0    0    0  501 -0.00000000000E+00 -0.00000000000E+00 -0.30067341382E+03  0.30067341382E+03  0.00000000000E+00 0.  1.
         23    2    1    2    0    0  0.20685806733E+03 -0.13018107321E+03  0.83076176309E+03  0.86998439966E+03  0.83488782444E+02 0.  0.
         11    1    3    3    0    0  0.55079551912E+02  0.73541962947E+00  0.23648165692E+03  0.24281242131E+03  0.00000000000E+00 0. -1.
        -11    1    3    3    0    0  0.15177851542E+03 -0.13091649284E+03  0.59428010617E+03  0.62717197835E+03  0.00000000000E+00 0.  1.
         22    1    1    2    0    0 -0.20685806733E+03  0.13018107321E+03 -0.22792670945E+03  0.33419748162E+03  0.00000000000E+00 0.  1.
<mgrwt>
<rscale>  0 0.10424221E+04</rscale>
<asrwt>0</asrwt>
<pdfrwt beam="1">  1        1 0.13900130E+00 0.10424221E+04</pdfrwt>
<pdfrwt beam="2">  1       -1 0.46257449E-01 0.10424221E+04</pdfrwt>
<totfact> 0.84030760E+01</totfact>
</mgrwt>
</event>
<event>
 6    1  0.1831439E-005  0.1175587E+04  0.7818608E-02  0.9134497E-01
         -1   -1    0    0    0  501 -0.00000000000E+00  0.00000000000E+00  0.14060668764E+03  0.14060668764E+03  0.00000000000E+00 0.  1.
          1   -1    0    0  501    0  0.00000000000E+00 -0.00000000000E+00 -0.24572185609E+04  0.24572185609E+04  0.00000000000E+00 0. -1.
         23    2    1    2    0    0  0.22556982219E+03  0.44009230948E+03 -0.18520904725E+04  0.19193393479E+04  0.95191536930E+02 0.  0.
         11    1    3    3    0    0  0.19329546028E+03  0.33602094612E+03 -0.12985746273E+04  0.13552008242E+04  0.00000000000E+00 0. -1.
        -11    1    3    3    0    0  0.32274361907E+02  0.10407136336E+03 -0.55351584515E+03  0.56413852372E+03  0.00000000000E+00 0.  1.
         22    1    1    2    0    0 -0.22556982219E+03 -0.44009230948E+03 -0.46452140080E+03  0.67848590063E+03  0.00000000000E+00 0.  1.
<mgrwt>
<rscale>  0 0.11755873E+04</rscale>
<asrwt>0</asrwt>
<pdfrwt beam="1">  1        1 0.37803359E+00 0.11755873E+04</pdfrwt>
<pdfrwt beam="2">  1       -1 0.21631800E-01 0.11755873E+04</pdfrwt>
<totfact> 0.25941459E+01</totfact>
</mgrwt>
</event>
<event>
 6    1  0.1831439E-005  0.1562768E+04  0.7818608E-02  0.8843753E-01
         -1   -1    0    0    0  501 -0.00000000000E+00  0.00000000000E+00  0.26659536700E+03  0.26659536700E+03  0.00000000000E+00 0.  1.
          1   -1    0    0  501    0  0.00000000000E+00 -0.00000000000E+00 -0.22902150043E+04  0.22902150043E+04  0.00000000000E+00 0. -1.
         23    2    1    2    0    0  0.27847351602E+03 -0.41939605273E+03 -0.43174735723E+02  0.51338125427E+03  0.90860917083E+02 0.  0.
         11    1    3    3    0    0  0.84276538587E+02 -0.20307079011E+03 -0.27649401387E+01  0.21988161734E+03  0.00000000000E+00 0.  1.
        -11    1    3    3    0    0  0.19419697744E+03 -0.21632526262E+03 -0.40409795585E+02  0.29349963692E+03  0.00000000000E+00 0. -1.
         22    1    1    2    0    0 -0.27847351602E+03  0.41939605273E+03 -0.19804449016E+04  0.20434291171E+04  0.00000000000E+00 0. -1.
<mgrwt>
<rscale>  0 0.15627677E+04</rscale>
<asrwt>0</asrwt>
<pdfrwt beam="1">  1        1 0.35234077E+00 0.15627677E+04</pdfrwt>
<pdfrwt beam="2">  1       -1 0.41014672E-01 0.15627677E+04</pdfrwt>
<totfact> 0.10596079E+01</totfact>
</mgrwt>
</event>
<event>
 6    1  0.1831439E-005  0.2417041E+04  0.7818608E-02  0.8433151E-01
         -1   -1    0    0    0  501 -0.00000000000E+00  0.00000000000E+00  0.15821125440E+04  0.15821125440E+04  0.00000000000E+00 0.  1.
          1   -1    0    0  501    0  0.00000000000E+00 -0.00000000000E+00 -0.92314648588E+03  0.92314648588E+03  0.00000000000E+00 0. -1.
         23    2    1    2    0    0 -0.20609136999E+03  0.49956110020E+03 -0.78851180161E+03  0.96019362672E+03  0.90476482535E+02 0.  0.
         13    1    3    3    0    0 -0.17933315785E+03  0.45900958850E+03 -0.66677008757E+03  0.82911551278E+03  0.00000000000E+00 0. -1.
        -13    1    3    3    0    0 -0.26758212146E+02  0.40551511698E+02 -0.12174171404E+03  0.13107811395E+03  0.00000000000E+00 0.  1.
         22    1    1    2    0    0  0.20609136999E+03 -0.49956110020E+03  0.14474778597E+04  0.15450654031E+04  0.00000000000E+00 0.  1.
<mgrwt>
<rscale>  0 0.24170409E+04</rscale>
<asrwt>0</asrwt>
<pdfrwt beam="1">  1        1 0.14202254E+00 0.24170409E+04</pdfrwt>
<pdfrwt beam="2">  1       -1 0.24340193E+00 0.24170409E+04</pdfrwt>
<totfact> 0.12004378E+00</totfact>
</mgrwt>
</event>
<event>
 6    1  0.1831439E-005  0.1642686E+04  0.7818608E-02  0.8794745E-01
         -1   -1    0    0    0  501 -0.00000000000E+00  0.00000000000E+00  0.97620683655E+03  0.97620683655E+03  0.00000000000E+00 0.  1.
          1   -1    0    0  501    0  0.00000000000E+00 -0.00000000000E+00 -0.69104634793E+03  0.69104634793E+03  0.00000000000E+00 0. -1.
         23    2    1    2    0    0 -0.46385510743E+03  0.17066707048E+03 -0.51951519953E+03  0.72290591111E+03  0.91695714902E+02 0.  0.
         13    1    3    3    0    0 -0.24613359520E+03  0.42245192766E+02 -0.24844140493E+03  0.35226344500E+03  0.00000000000E+00 0. -1.
        -13    1    3    3    0    0 -0.21772151223E+03  0.12842187771E+03 -0.27107379460E+03  0.37064246611E+03  0.00000000000E+00 0.  1.
         22    1    1    2    0    0  0.46385510743E+03 -0.17066707048E+03  0.80467568816E+03  0.94434727338E+03  0.00000000000E+00 0.  1.
<mgrwt>
<rscale>  0 0.16426858E+04</rscale>
<asrwt>0</asrwt>
<pdfrwt beam="1">  1        1 0.10631482E+00 0.16426858E+04</pdfrwt>
<pdfrwt beam="2">  1       -1 0.15018567E+00 0.16426858E+04</pdfrwt>
<totfact> 0.92381713E+00</totfact>
</mgrwt>
</event>
<event>
 6    1  0.1831439E-005  0.2603979E+04  0.7818608E-02  0.8366851E-01
          1   -1    0    0  501    0  0.00000000000E+00  0.00000000000E+00  0.19223795653E+04  0.19223795653E+04  0.00000000000E+00 0. -1.
         -1   -1    0    0    0  501 -0.00000000000E+00 -0.00000000000E+00 -0.88181170964E+03  0.88181170964E+03  0.00000000000E+00 0.  1.
         23    2    1    2    0    0 -0.45559285960E+03  0.98152005932E+03 -0.25556282691E+03  0.11157300741E+04  0.92707923647E+02 0.  0.
         11    1    3    3    0    0 -0.21016968305E+03  0.55654493651E+03 -0.12478056093E+03  0.60785175036E+03  0.00000000000E+00 0. -1.
        -11    1    3    3    0    0 -0.24542317655E+03  0.42497512281E+03 -0.13078226598E+03  0.50787832371E+03  0.00000000000E+00 0.  1.
         22    1    1    2    0    0  0.45559285960E+03 -0.98152005932E+03  0.12961306826E+04  0.16884612009E+04  0.00000000000E+00 0. -1.
<mgrwt>
<rscale>  0 0.26039791E+04</rscale>
<asrwt>0</asrwt>
<pdfrwt beam="1">  1        1 0.29575070E+00 0.26039791E+04</pdfrwt>
<pdfrwt beam="2">  1       -1 0.13566334E+00 0.26039791E+04</pdfrwt>
<totfact> 0.13472350E+00</totfact>
</mgrwt>
</event>
<event>
 6    1  0.1831439E-005  0.2939613E+04  0.7818608E-02  0.8261188E-01
          1   -1    0    0  501    0  0.00000000000E+00  0.00000000000E+00  0.15851655963E+04  0.15851655963E+04  0.00000000000E+00 0. -1.
         -1   -1    0    0    0  501 -0.00000000000E+00 -0.00000000000E+00 -0.13628423322E+04  0.13628423322E+04  0.00000000000E+00 0.  1.
         23    2    1    2    0    0 -0.66819441624E+03 -0.65055338003E+03  0.12487560188E+04  0.15611886620E+04  0.90636448147E+02 0.  0.
         13    1    3    3    0    0 -0.37044116940E+03 -0.41857181530E+03  0.77182576579E+03  0.95296591612E+03  0.00000000000E+00 0.  1.
        -13    1    3    3    0    0 -0.29775324684E+03 -0.23198156473E+03  0.47693025296E+03  0.60822274585E+03  0.00000000000E+00 0. -1.
         22    1    1    2    0    0  0.66819441624E+03  0.65055338003E+03 -0.10264327547E+04  0.13868192666E+04  0.00000000000E+00 0.  1.
<mgrwt>
<rscale>  0 0.29396127E+04</rscale>
<asrwt>0</asrwt>
<pdfrwt beam="1">  1        1 0.24387163E+00 0.29396127E+04</pdfrwt>
<pdfrwt beam="2">  1       -1 0.20966805E+00 0.29396127E+04</pdfrwt>
<totfact> 0.63157877E-01</totfact>
</mgrwt>
</event>
<event>
 6    1  0.1831439E-005  0.2867662E+04  0.7818608E-02  0.8282565E-01
          1   -1    0    0  501    0  0.00000000000E+00  0.00000000000E+00  0.33782330133E+04  0.33782330133E+04  0.00000000000E+00 0. -1.
         -1   -1    0    0    0  501 -0.00000000000E+00 -0.00000000000E+00 -0.60856398381E+03  0.60856398381E+03  0.00000000000E+00 0.  1.
         23    2    1    2    0    0  0.13790337165E+03 -0.55362387529E+03  0.32127743067E+04  0.32643988922E+04  0.94152250451E+02 0.  0.
         11    1    3    3    0    0  0.73845212807E+02 -0.38855808754E+03  0.19958998600E+04  0.20347104841E+04  0.00000000000E+00 0.  1.
        -11    1    3    3    0    0  0.64058158838E+02 -0.16506578775E+03  0.12168744467E+04  0.12296884081E+04  0.00000000000E+00 0. -1.
         22    1    1    2    0    0 -0.13790337165E+03  0.55362387529E+03 -0.44310527726E+03  0.72239810488E+03  0.00000000000E+00 0.  1.
<mgrwt>
<rscale>  0 0.28676617E+04</rscale>
<asrwt>0</asrwt>
<pdfrwt beam="1">  1        1 0.51972814E+00 0.28676617E+04</pdfrwt>
<pdfrwt beam="2">  1       -1 0.93625230E-01 0.28676617E+04</pdfrwt>
<totfact> 0.29601003E-01</totfact>
</mgrwt>
</event>
<event>
 6    1  0.1831439E-005  0.1142277E+04  0.7818608E-02  0.9164938E-01
          1   -1    0    0  501    0  0.00000000000E+00  0.00000000000E+00  0.10467723641E+04  0.10467723641E+04  0.00000000000E+00 0. -1.
         -1   -1    0    0    0  501 -0.00000000000E+00 -0.00000000000E+00 -0.31162357080E+03  0.31162357080E+03  0.00000000000E+00 0.  1.
         23    2    1    2    0    0  0.24817339182E+03 -0.31969493327E+03 -0.10371759155E+03  0.42700359308E+03  0.88203440652E+02 0.  0.
         11    1    3    3    0    0  0.19519915697E+03 -0.29835896080E+03 -0.97006978509E+02  0.36950119655E+03  0.00000000000E+00 0. -1.
        -11    1    3    3    0    0  0.52974234855E+02 -0.21335972462E+02 -0.67106130364E+01  0.57502396530E+02  0.00000000000E+00 0.  1.
         22    1    1    2    0    0 -0.24817339182E+03  0.31969493327E+03  0.83886638484E+03  0.93139234181E+03  0.00000000000E+00 0. -1.
<mgrwt>
<rscale>  0 0.11422766E+04</rscale>
<asrwt>0</asrwt>
<pdfrwt beam="1">  1        1 0.16104190E+00 0.11422766E+04</pdfrwt>
<pdfrwt beam="2">  1       -1 0.47942088E-01 0.11422766E+04</pdfrwt>
<totfact> 0.60103411E+01</totfact>
</mgrwt>
</event>
<event>
 6    1  0.1831439E-005  0.1623577E+04  0.7818608E-02  0.8806193E-01
          2   -1    0    0  501    0  0.00000000000E+00  0.00000000000E+00  0.23528092477E+04  0.23528092477E+04  0.00000000000E+00 0. -1.
         -2   -1    0    0    0  501 -0.00000000000E+00 -0.00000000000E+00 -0.28009090886E+03  0.28009090886E+03  0.00000000000E+00 0.  1.
         23    2    1    2    0    0  0.34993949246E+03 -0.72099242466E+03  0.12218441747E+04  0.14640226745E+04  0.90396235671E+02 0.  0.
         13    1    3    3    0    0  0.16122576943E+03 -0.27920473742E+03  0.56041601979E+03  0.64654091082E+03  0.00000000000E+00 0. -1.
        -13    1    3    3    0    0  0.18871372303E+03 -0.44178768724E+03  0.66142815496E+03  0.81748176373E+03  0.00000000000E+00 0.  1.
         22    1    1    2    0    0 -0.34993949246E+03  0.72099242466E+03  0.85087416406E+03  0.11688774820E+04  0.00000000000E+00 0.  1.
<mgrwt>
<rscale>  0 0.16235769E+04</rscale>
<asrwt>0</asrwt>
<pdfrwt beam="1">  1        2 0.36197064E+00 0.16235769E+04</pdfrwt>
<pdfrwt beam="2">  1       -2 0.43090911E-01 0.16235769E+04</pdfrwt>
<totfact> 0.20703872E+01</totfact>
</mgrwt>
</event>
<event>
 6    1  0.1831439E-005  0.6288369E+03  0.7818608E-02  0.9847321E-01
         -2   -1    0    0    0  501 -0.00000000000E+00  0.00000000000E+00  0.25764313819E+02  0.25764313819E+02  0.00000000000E+00 0.  1.
          2   -1    0    0  501    0  0.00000000000E+00 -0.00000000000E+00 -0.38370503076E+04  0.38370503076E+04  0.00000000000E+00 0. -1.
         23    2    1    2    0    0 -0.11406098163E+03  0.49406488535E+02 -0.36755787711E+04  0.36787837574E+04  0.90109501113E+02 0.  0.
         11    1    3    3    0    0 -0.63137826626E+02  0.40254828651E+02 -0.30945889354E+04  0.30954947126E+04  0.00000000000E+00 0. -1.
        -11    1    3    3    0    0 -0.50923155005E+02  0.91516598839E+01 -0.58098983570E+03  0.58328904480E+03  0.00000000000E+00 0.  1.
         22    1    1    2    0    0  0.11406098163E+03 -0.49406488535E+02 -0.13570722268E+03  0.18403086407E+03  0.00000000000E+00 0.  1.
<mgrwt>
<rscale>  0 0.62883692E+03</rscale>
<asrwt>0</asrwt>
<pdfrwt beam="1">  1        2 0.59031531E+00 0.62883692E+03</pdfrwt>
<pdfrwt beam="2">  1       -2 0.39637414E-02 0.62883692E+03</pdfrwt>
<totfact> 0.15148008E+02</totfact>
</mgrwt>
</event>
<event>
 6    1  0.1831439E-005  0.5089835E+03  0.7818608E-02  0.1011460E+00
          1   -1    0    0  501    0  0.00000000000E+00  0.00000000000E+00  0.12425312380E+04  0.12425312380E+04  0.00000000000E+00 0. -1.
         -1   -1    0    0    0  501 -0.00000000000E+00 -0.00000000000E+00 -0.52124283210E+02  0.52124283210E+02  0.00000000000E+00 0.  1.
         23    2    1    2    0    0  0.81760030701E+02  0.21944487442E+03  0.79944777058E+03  0.83892551424E+03  0.99189339298E+02 0.  0.
         13    1    3    3    0    0  0.88071951817E+02  0.11653761112E+03  0.54864974056E+03  0.56776246910E+03  0.00000000000E+00 0. -1.
        -13    1    3    3    0    0 -0.63119211157E+01  0.10290726330E+03  0.25079803002E+03  0.27116304514E+03  0.00000000000E+00 0.  1.
         22    1    1    2    0    0 -0.81760030701E+02 -0.21944487442E+03  0.39095918417E+03  0.45573000693E+03  0.00000000000E+00 0.  1.
<mgrwt>
<rscale>  0 0.50898350E+03</rscale>
<asrwt>0</asrwt>
<pdfrwt beam="1">  1        1 0.19115863E+00 0.50898350E+03</pdfrwt>
<pdfrwt beam="2">  1       -1 0.80191214E-02 0.50898350E+03</pdfrwt>
<totfact> 0.90775512E+02</totfact>
</mgrwt>
</event>
<event>
 6    1  0.1831439E-005  0.5656170E+04  0.7818608E-02  0.7734558E-01
          1   -1    0    0  501    0  0.00000000000E+00  0.00000000000E+00  0.23719601725E+04  0.23719601725E+04  0.00000000000E+00 0. -1.
         -1   -1    0    0    0  501 -0.00000000000E+00 -0.00000000000E+00 -0.33719214589E+04  0.33719214589E+04  0.00000000000E+00 0.  1.
         23    2    1    2    0    0 -0.30627635061E+03 -0.15969468630E+04 -0.28489371910E+04  0.32816151182E+04  0.92250635408E+02 0.  0.
         13    1    3    3    0    0 -0.14602002777E+03 -0.53788715118E+03 -0.95104250349E+03  0.11023276642E+04  0.00000000000E+00 0.  1.
        -13    1    3    3    0    0 -0.16025632283E+03 -0.10590597118E+04 -0.18978946875E+04  0.21792874540E+04  0.00000000000E+00 0. -1.
         22    1    1    2    0    0  0.30627635061E+03  0.15969468630E+04  0.18489759046E+04  0.24622665131E+04  0.00000000000E+00 0. -1.
<mgrwt>
<rscale>  0 0.56561695E+04</rscale>
<asrwt>0</asrwt>
<pdfrwt beam="1">  1        1 0.36491695E+00 0.56561695E+04</pdfrwt>
<pdfrwt beam="2">  1       -1 0.51875714E+00 0.56561695E+04</pdfrwt>
<totfact> 0.13075786E-03</totfact>
</mgrwt>
</event>
<event>
 6    1  0.1831439E-005  0.2423890E+04  0.7818608E-02  0.8430613E-01
          1   -1    0    0  501    0  0.00000000000E+00  0.00000000000E+00  0.13688786831E+04  0.13688786831E+04  0.00000000000E+00 0. -1.
         -1   -1    0    0    0  501 -0.00000000000E+00 -0.00000000000E+00 -0.10730030453E+04  0.10730030453E+04  0.00000000000E+00 0.  1.
         23    2    1    2    0    0  0.39893280577E+03  0.70646691475E+03 -0.75649499643E+03  0.11130751824E+04  0.91699492133E+02 0.  0.
         11    1    3    3    0    0  0.23239081430E+03  0.33952513457E+03 -0.42186382097E+03  0.58928082526E+03  0.00000000000E+00 0. -1.
        -11    1    3    3    0    0  0.16654199147E+03  0.36694178018E+03 -0.33463117546E+03  0.52379435712E+03  0.00000000000E+00 0.  1.
         22    1    1    2    0    0 -0.39893280577E+03 -0.70646691475E+03  0.10523706342E+04  0.13288065460E+04  0.00000000000E+00 0. -1.
<mgrwt>
<rscale>  0 0.24238903E+04</rscale>
<asrwt>0</asrwt>
<pdfrwt beam="1">  1        1 0.21059672E+00 0.24238903E+04</pdfrwt>
<pdfrwt beam="2">  1       -1 0.16507739E+00 0.24238903E+04</pdfrwt>
<totfact> 0.19341648E+00</totfact>
</mgrwt>
</event>
<event>
 6    1  0.1831439E-005  0.2088272E+04  0.7818608E-02  0.8566427E-01
         -2   -1    0    0    0  501 -0.00000000000E+00  0.00000000000E+00  0.10866679460E+04  0.10866679460E+04  0.00000000000E+00 0.  1.
          2   -1    0    0  501    0  0.00000000000E+00 -0.00000000000E+00 -0.10032683398E+04  0.10032683398E+04  0.00000000000E+00 0. -1.
         23    2    1    2    0    0  0.19890257791E+03  0.89199351380E+03  0.54249056170E+03  0.10672050555E+04  0.97035852678E+02 0.  0.
         13    1    3    3    0    0  0.17081652310E+03  0.57699084867E+03  0.37954284188E+03  0.71144184080E+03  0.00000000000E+00 0. -1.
        -13    1    3    3    0    0  0.28086054809E+02  0.31500266512E+03  0.16294771983E+03  0.35576321466E+03  0.00000000000E+00 0.  1.
         22    1    1    2    0    0 -0.19890257791E+03 -0.89199351380E+03 -0.45909095543E+03  0.10227312303E+04  0.00000000000E+00 0. -1.
<mgrwt>
<rscale>  0 0.20882716E+04</rscale>
<asrwt>0</asrwt>
<pdfrwt beam="1">  1        2 0.15434898E+00 0.20882716E+04</pdfrwt>
<pdfrwt beam="2">  1       -2 0.16717968E+00 0.20882716E+04</pdfrwt>
<totfact> 0.51617361E+00</totfact>
</mgrwt>
</event>
<event>
 6    1  0.1831439E-005  0.2050864E+04  0.7818608E-02  0.8583202E-01
         -2   -1    0    0    0  501 -0.00000000000E+00  0.00000000000E+00  0.90689004784E+03  0.90689004784E+03  0.00000000000E+00 0.  1.
          2   -1    0    0  501    0  0.00000000000E+00 -0.00000000000E+00 -0.11594690593E+04  0.11594690593E+04  0.00000000000E+00 0. -1.
         23    2    1    2    0    0 -0.56846599614E+03 -0.84533315203E+03 -0.21930727187E+03  0.10471198147E+04  0.10306551357E+03 0.  0.
         11    1    3    3    0    0 -0.55130495661E+03 -0.81674938510E+03 -0.23040829610E+03  0.10119805809E+04  0.00000000000E+00 0. -1.
        -11    1    3    3    0    0 -0.17161039520E+02 -0.28583766935E+02  0.11101024228E+02  0.35139233750E+02  0.00000000000E+00 0.  1.
         22    1    1    2    0    0  0.56846599614E+03  0.84533315203E+03 -0.33271739606E+02  0.10192392925E+04  0.00000000000E+00 0.  1.
<mgrwt>
<rscale>  0 0.20508642E+04</rscale>
<asrwt>0</asrwt>
<pdfrwt beam="1">  1        2 0.17837985E+00 0.20508642E+04</pdfrwt>
<pdfrwt beam="2">  1       -2 0.13952155E+00 0.20508642E+04</pdfrwt>
<totfact> 0.67181376E+00</totfact>
</mgrwt>
</event>
<event>
 6    1  0.1831439E-005  0.1523510E+04  0.7818608E-02  0.8868968E-01
          2   -1    0    0  501    0  0.00000000000E+00  0.00000000000E+00  0.26891836848E+04  0.26891836848E+04  0.00000000000E+00 0.  1.
         -2   -1    0    0    0  501 -0.00000000000E+00 -0.00000000000E+00 -0.21577944055E+03  0.21577944055E+03  0.00000000000E+00 0. -1.
         23    2    1    2    0    0  0.10395817897E+03  0.45472451308E+03  0.23828711972E+04  0.24298021859E+04  0.91004585657E+02 0.  0.
         11    1    3    3    0    0 -0.13941053789E+02  0.51792993106E+02  0.34398467606E+03  0.34814124214E+03  0.00000000000E+00 0. -1.
        -11    1    3    3    0    0  0.11789923276E+03  0.40293151998E+03  0.20388865211E+04  0.20816609438E+04  0.00000000000E+00 0.  1.
         22    1    1    2    0    0 -0.10395817897E+03 -0.45472451308E+03  0.90533047103E+02  0.47516093946E+03  0.00000000000E+00 0. -1.
<mgrwt>
<rscale>  0 0.15235098E+04</rscale>
<asrwt>0</asrwt>
<pdfrwt beam="1">  1        2 0.41372054E+00 0.15235098E+04</pdfrwt>
<pdfrwt beam="2">  1       -2 0.33196839E-01 0.15235098E+04</pdfrwt>
<totfact> 0.22116627E+01</totfact>
</mgrwt>
</event>
<event>
 6    1  0.1831439E-005  0.8637378E+03  0.7818608E-02  0.9472082E-01
         -3   -1    0    0    0  501 -0.00000000000E+00  0.00000000000E+00  0.77570084684E+02  0.77570084684E+02  0.00000000000E+00 0.  1.
          3   -1    0    0  501    0  0.00000000000E+00 -0.00000000000E+00 -0.24044158678E+04  0.24044158678E+04  0.00000000000E+00 0. -1.
         23    2    1    2    0    0 -0.27676244102E+03  0.25648389314E+03 -0.60288937710E+03  0.71721766003E+03  0.92434488367E+02 0.  0.
         13    1    3    3    0    0 -0.14498242806E+03  0.14759933131E+03 -0.41161959637E+03  0.46069095842E+03  0.00000000000E+00 0. -1.
        -13    1    3    3    0    0 -0.13178001296E+03  0.10888456183E+03 -0.19126978072E+03  0.25652670161E+03  0.00000000000E+00 0.  1.
         22    1    1    2    0    0  0.27676244102E+03 -0.25648389314E+03 -0.17239564060E+04  0.17647682925E+04  0.00000000000E+00 0. -1.
<mgrwt>
<rscale>  0 0.86373779E+03</rscale>
<asrwt>0</asrwt>
<pdfrwt beam="1">  1        3 0.36991017E+00 0.86373779E+03</pdfrwt>
<pdfrwt beam="2">  1       -3 0.11933858E-01 0.86373779E+03</pdfrwt>
<totfact> 0.24931144E+00</totfact>
</mgrwt>
</event>
<event>
 6    1  0.1831439E-005  0.1932992E+04  0.7818608E-02  0.8638606E-01
          2   -1    0    0  501    0  0.00000000000E+00  0.00000000000E+00  0.11712004275E+04  0.11712004275E+04  0.00000000000E+00 0. -1.
         -2   -1    0    0    0  501 -0.00000000000E+00 -0.00000000000E+00 -0.79757047231E+03  0.79757047231E+03  0.00000000000E+00 0.  1.
         23    2    1    2    0    0 -0.93278571516E+03  0.14319797706E+03  0.38692633724E+03  0.10249639042E+04  0.10121345519E+03 0.  0.
         11    1    3    3    0    0 -0.74722757764E+03  0.14406855635E+03  0.28043056775E+03  0.81101547768E+03  0.00000000000E+00 0. -1.
        -11    1    3    3    0    0 -0.18555813752E+03 -0.87057928644E+00  0.10649576949E+03  0.21394842657E+03  0.00000000000E+00 0.  1.
         22    1    1    2    0    0  0.93278571516E+03 -0.14319797706E+03 -0.13296382090E+02  0.94380699553E+03  0.00000000000E+00 0.  1.
<mgrwt>
<rscale>  0 0.19329924E+04</rscale>
<asrwt>0</asrwt>
<pdfrwt beam="1">  1        2 0.18018468E+00 0.19329924E+04</pdfrwt>
<pdfrwt beam="2">  1       -2 0.12270315E+00 0.19329924E+04</pdfrwt>
<totfact> 0.92495848E+00</totfact>
</mgrwt>
</event>
<event>
 6    1  0.1831439E-005  0.1615464E+04  0.7818608E-02  0.8811104E-01
         -1   -1    0    0    0  501 -0.00000000000E+00  0.00000000000E+00  0.11286859638E+04  0.11286859638E+04  0.00000000000E+00 0.  1.
          1   -1    0    0  501    0  0.00000000000E+00 -0.00000000000E+00 -0.57804495676E+03  0.57804495676E+03  0.00000000000E+00 0. -1.
         23    2    1    2    0    0  0.99451048460E+02 -0.10824369983E+03  0.11125818096E+04  0.11258826830E+04  0.90367711392E+02 0.  0.
         11    1    3    3    0    0  0.29649533755E+02 -0.20043766159E+02  0.60179115760E+03  0.60285441425E+03  0.00000000000E+00 0. -1.
        -11    1    3    3    0    0  0.69801514706E+02 -0.88199933676E+02  0.51079065197E+03  0.52302826873E+03  0.00000000000E+00 0.  1.
         22    1    1    2    0    0 -0.99451048460E+02  0.10824369983E+03 -0.56194080251E+03  0.58084823760E+03  0.00000000000E+00 0. -1.
<mgrwt>
<rscale>  0 0.16154643E+04</rscale>
<asrwt>0</asrwt>
<pdfrwt beam="1">  1        1 0.88929993E-01 0.16154643E+04</pdfrwt>
<pdfrwt beam="2">  1       -1 0.17364399E+00 0.16154643E+04</pdfrwt>
<totfact> 0.80129007E+00</totfact>
</mgrwt>
</event>
<event>
 6    1  0.1831439E-005  0.6539436E+04  0.7818608E-02  0.7626893E-01
          1   -1    0    0  501    0  0.00000000000E+00  0.00000000000E+00  0.28064333362E+04  0.28064333362E+04  0.00000000000E+00 0. -1.
         -1   -1    0    0    0  501 -0.00000000000E+00 -0.00000000000E+00 -0.38094811206E+04  0.38094811206E+04  0.00000000000E+00 0.  1.
         23    2    1    2    0    0 -0.29669718476E+04 -0.13185527260E+04 -0.88734790417E+03  0.33670854835E+04  0.91515648535E+02 0.  0.
         11    1    3    3    0    0 -0.20008719109E+04 -0.91975418058E+03 -0.56810340695E+03  0.22742422117E+04  0.00000000000E+00 0. -1.
        -11    1    3    3    0    0 -0.96609993672E+03 -0.39879854540E+03 -0.31924449722E+03  0.10928432717E+04  0.00000000000E+00 0.  1.
         22    1    1    2    0    0  0.29669718476E+04  0.13185527260E+04 -0.11569988021E+03  0.32488289734E+04  0.00000000000E+00 0.  1.
<mgrwt>
<rscale>  0 0.65394357E+04</rscale>
<asrwt>0</asrwt>
<pdfrwt beam="1">  1        1 0.43175898E+00 0.65394357E+04</pdfrwt>
<pdfrwt beam="2">  1       -1 0.58607401E+00 0.65394357E+04</pdfrwt>
<totfact> 0.27293368E-04</totfact>
</mgrwt>
</event>
<event>
 6    1  0.1831439E-005  0.8320583E+03  0.7818608E-02  0.9514739E-01
         -2   -1    0    0    0  501 -0.00000000000E+00  0.00000000000E+00  0.46251739930E+03  0.46251739930E+03  0.00000000000E+00 0. -1.
          2   -1    0    0  501    0  0.00000000000E+00 -0.00000000000E+00 -0.37421345927E+03  0.37421345927E+03  0.00000000000E+00 0.  1.
         23    2    1    2    0    0  0.28735960291E+03  0.26872229018E+03  0.16386404012E+03  0.43611066519E+03  0.92487177612E+02 0.  0.
         11    1    3    3    0    0  0.14067807275E+03  0.84527108753E+02  0.35441983054E+02  0.16790260996E+03  0.00000000000E+00 0.  1.
        -11    1    3    3    0    0  0.14668153016E+03  0.18419518143E+03  0.12842205707E+03  0.26820805523E+03  0.00000000000E+00 0. -1.
         22    1    1    2    0    0 -0.28735960291E+03 -0.26872229018E+03 -0.75560100093E+02  0.40062019339E+03  0.00000000000E+00 0.  1.
<mgrwt>
<rscale>  0 0.83205826E+03</rscale>
<asrwt>0</asrwt>
<pdfrwt beam="1">  1        2 0.57571302E-01 0.83205826E+03</pdfrwt>
<pdfrwt beam="2">  1       -2 0.71156523E-01 0.83205826E+03</pdfrwt>
<totfact> 0.15476132E+02</totfact>
</mgrwt>
</event>
<event>
 6    1  0.1831439E-005  0.1213892E+04  0.7818608E-02  0.9100783E-01
          2   -1    0    0  501    0  0.00000000000E+00  0.00000000000E+00  0.62402312669E+03  0.62402312669E+03  0.00000000000E+00 0. -1.
         -2   -1    0    0    0  501 -0.00000000000E+00 -0.00000000000E+00 -0.59033579453E+03  0.59033579453E+03  0.00000000000E+00 0.  1.
         23    2    1    2    0    0 -0.15032873314E+03  0.15236173461E+03  0.58143440131E+03  0.62627756805E+03  0.91349893457E+02 0.  0.
         11    1    3    3    0    0 -0.38828823865E+01  0.55588726620E+02  0.17203459739E+03  0.18083441597E+03  0.00000000000E+00 0.  1.
        -11    1    3    3    0    0 -0.14644585075E+03  0.96773007992E+02  0.40939980393E+03  0.44544315208E+03  0.00000000000E+00 0. -1.
         22    1    1    2    0    0  0.15032873314E+03 -0.15236173461E+03 -0.54774706915E+03  0.58808135317E+03  0.00000000000E+00 0.  1.
<mgrwt>
<rscale>  0 0.12138916E+04</rscale>
<asrwt>0</asrwt>
<pdfrwt beam="1">  1        2 0.96003558E-01 0.12138916E+04</pdfrwt>
<pdfrwt beam="2">  1       -2 0.90820891E-01 0.12138916E+04</pdfrwt>
<totfact> 0.48255484E+01</totfact>
</mgrwt>
</event>
<event>
 6    1  0.1831439E-005  0.1871400E+04  0.7818608E-02  0.8669225E-01
         -1   -1    0    0    0  501 -0.00000000000E+00  0.00000000000E+00  0.15749141398E+04  0.15749141398E+04  0.00000000000E+00 0.  1.
          1   -1    0    0  501    0  0.00000000000E+00 -0.00000000000E+00 -0.55592504035E+03  0.55592504035E+03  0.00000000000E+00 0. -1.
         23    2    1    2    0    0  0.28467771755E+03  0.31599429912E+02 -0.50116709370E+03  0.58393427732E+03  0.88152467792E+02 0.  0.
         11    1    3    3    0    0  0.22554086527E+03 -0.12496613278E+02 -0.38134242540E+03  0.44322329887E+03  0.00000000000E+00 0.  1.
        -11    1    3    3    0    0  0.59136852276E+02  0.44096043190E+02 -0.11982466830E+03  0.14071097845E+03  0.00000000000E+00 0. -1.
         22    1    1    2    0    0 -0.28467771755E+03 -0.31599429912E+02  0.15201561931E+04  0.15469049028E+04  0.00000000000E+00 0.  1.
<mgrwt>
<rscale>  0 0.18713997E+04</rscale>
<asrwt>0</asrwt>
<pdfrwt beam="1">  1        1 0.85526930E-01 0.18713997E+04</pdfrwt>
<pdfrwt beam="2">  1       -1 0.24229448E+00 0.18713997E+04</pdfrwt>
<totfact> 0.28059980E+00</totfact>
</mgrwt>
</event>
<event>
 6    1  0.1831439E-005  0.2066611E+04  0.7818608E-02  0.8576096E-01
          2   -1    0    0  501    0  0.00000000000E+00  0.00000000000E+00  0.12294630452E+04  0.12294630452E+04  0.00000000000E+00 0. -1.
         -2   -1    0    0    0  501 -0.00000000000E+00 -0.00000000000E+00 -0.86844442906E+03  0.86844442906E+03  0.00000000000E+00 0.  1.
         23    2    1    2    0    0  0.92445297965E+03  0.32873599382E+03  0.50354191148E+03  0.11064471599E+04  0.89387894725E+02 0.  0.
         13    1    3    3    0    0  0.83767179757E+03  0.27639266022E+03  0.43060062369E+03  0.98158231452E+03  0.00000000000E+00 0. -1.
        -13    1    3    3    0    0  0.86781182088E+02  0.52343333602E+02  0.72941287788E+02  0.12486484534E+03  0.00000000000E+00 0.  1.
         22    1    1    2    0    0 -0.92445297965E+03 -0.32873599382E+03 -0.14252329538E+03  0.99146031436E+03  0.00000000000E+00 0. -1.
<mgrwt>
<rscale>  0 0.20666111E+04</rscale>
<asrwt>0</asrwt>
<pdfrwt beam="1">  1        2 0.18914816E+00 0.20666111E+04</pdfrwt>
<pdfrwt beam="2">  1       -2 0.13360683E+00 0.20666111E+04</pdfrwt>
<totfact> 0.68102807E+00</totfact>
</mgrwt>
</event>
<event>
 6    1  0.1831439E-005  0.2684069E+04  0.7818608E-02  0.8340193E-01
         -1   -1    0    0    0  501 -0.00000000000E+00  0.00000000000E+00  0.10837059194E+04  0.10837059194E+04  0.00000000000E+00 0. -1.
          1   -1    0    0  501    0  0.00000000000E+00 -0.00000000000E+00 -0.16619421630E+04  0.16619421630E+04  0.00000000000E+00 0.  1.
         23    2    1    2    0    0  0.29368723144E+02 -0.35420599268E+03 -0.16116731620E+04  0.16528003018E+04  0.89073281386E+02 0.  0.
         11    1    3    3    0    0 -0.30800900615E+02 -0.15631602519E+03 -0.73204226416E+03  0.74917906519E+03  0.00000000000E+00 0. -1.
        -11    1    3    3    0    0  0.60169623759E+02 -0.19788996749E+03 -0.87963089782E+03  0.90362123661E+03  0.00000000000E+00 0.  1.
         22    1    1    2    0    0 -0.29368723144E+02  0.35420599268E+03  0.10334369184E+04  0.10928477805E+04  0.00000000000E+00 0. -1.
<mgrwt>
<rscale>  0 0.26840690E+04</rscale>
<asrwt>0</asrwt>
<pdfrwt beam="1">  1        1 0.25568341E+00 0.26840690E+04</pdfrwt>
<pdfrwt beam="2">  1       -1 0.16672399E+00 0.26840690E+04</pdfrwt>
<totfact> 0.11511528E+00</totfact>
</mgrwt>
</event>
<event>
 6    1  0.1831439E-005  0.2178292E+04  0.7818608E-02  0.8527518E-01
          2   -1    0    0  501    0  0.00000000000E+00  0.00000000000E+00  0.28069482082E+04  0.28069482082E+04  0.00000000000E+00 0. -1.
         -2   -1    0    0    0  501 -0.00000000000E+00 -0.00000000000E+00 -0.42260821614E+03  0.42260821614E+03  0.00000000000E+00 0.  1.
         23    2    1    2    0    0  0.88673652238E+03  0.46972405644E+03  0.18145571589E+04  0.20756089271E+04  0.92695124678E+02 0.  0.
         11    1    3    3    0    0  0.54678721851E+03  0.33934407472E+03  0.11438618141E+04  0.13124597187E+04  0.00000000000E+00 0. -1.
        -11    1    3    3    0    0  0.33994930387E+03  0.13037998172E+03  0.67069534480E+03  0.76314920846E+03  0.00000000000E+00 0.  1.
         22    1    1    2    0    0 -0.88673652238E+03 -0.46972405644E+03  0.56978283312E+03  0.11539474972E+04  0.00000000000E+00 0.  1.
<mgrwt>
<rscale>  0 0.21782923E+04</rscale>
<asrwt>0</asrwt>
<pdfrwt beam="1">  1        2 0.43183818E+00 0.21782923E+04</pdfrwt>
<pdfrwt beam="2">  1       -2 0.65016650E-01 0.21782923E+04</pdfrwt>
<totfact> 0.45789518E+00</totfact>
</mgrwt>
</event>
<event>
 6    1  0.1831439E-005  0.2935756E+04  0.7818608E-02  0.8262318E-01
          2   -1    0    0  501    0  0.00000000000E+00  0.00000000000E+00  0.18949068132E+04  0.18949068132E+04  0.00000000000E+00 0. -1.
         -2   -1    0    0    0  501 -0.00000000000E+00 -0.00000000000E+00 -0.11370829246E+04  0.11370829246E+04  0.00000000000E+00 0.  1.
         23    2    1    2    0    0  0.38006529920E+03  0.93278495149E+03  0.14800638001E+04  0.17925673372E+04  0.90395843173E+02 0.  0.
         11    1    3    3    0    0  0.32760339476E+03  0.86757861872E+03  0.13467499958E+04  0.16351612138E+04  0.00000000000E+00 0.  1.
        -11    1    3    3    0    0  0.52461904444E+02  0.65206332769E+02  0.13331380439E+03  0.15740612343E+03  0.00000000000E+00 0. -1.
         22    1    1    2    0    0 -0.38006529920E+03 -0.93278495149E+03 -0.72223991156E+03  0.12394224006E+04  0.00000000000E+00 0.  1.
<mgrwt>
<rscale>  0 0.29357562E+04</rscale>
<asrwt>0</asrwt>
<pdfrwt beam="1">  1        2 0.29152412E+00 0.29357562E+04</pdfrwt>
<pdfrwt beam="2">  1       -2 0.17493583E+00 0.29357562E+04</pdfrwt>
<totfact> 0.12937622E+00</totfact>
</mgrwt>
</event>
<event>
 6    1  0.1831439E-005  0.1868200E+04  0.7818608E-02  0.8670849E-01
         -2   -1    0    0    0  501 -0.00000000000E+00  0.00000000000E+00  0.52338958685E+03  0.52338958685E+03  0.00000000000E+00 0.  1.
          2   -1    0    0  501    0  0.00000000000E+00 -0.00000000000E+00 -0.16670994435E+04  0.16670994435E+04  0.00000000000E+00 0. -1.
         23    2    1    2    0    0  0.81767439865E+03  0.15791883393E+03 -0.10627475623E+04  0.13537784033E+04  0.98761348316E+02 0.  0.
         11    1    3    3    0    0  0.72817848054E+03  0.17075537475E+03 -0.93706390873E+03  0.11989537383E+04  0.00000000000E+00 0.  1.
        -11    1    3    3    0    0  0.89495918103E+02 -0.12836540828E+02 -0.12568365352E+03  0.15482466503E+03  0.00000000000E+00 0. -1.
         22    1    1    2    0    0 -0.81767439865E+03 -0.15791883393E+03 -0.80962294435E+02  0.83671062706E+03  0.00000000000E+00 0.  1.
<mgrwt>
<rscale>  0 0.18681997E+04</rscale>
<asrwt>0</asrwt>
<pdfrwt beam="1">  1        2 0.25647684E+00 0.18681997E+04</pdfrwt>
<pdfrwt beam="2">  1       -2 0.80521474E-01 0.18681997E+04</pdfrwt>
<totfact> 0.13083442E+01</totfact>
</mgrwt>
</event>
<event>
 6    1  0.1831439E-005  0.1890751E+04  0.7818608E-02  0.8659474E-01
          2   -1    0    0  501    0  0.00000000000E+00  0.00000000000E+00  0.14818726579E+04  0.14818726579E+04  0.00000000000E+00 0. -1.
         -2   -1    0    0    0  501 -0.00000000000E+00 -0.00000000000E+00 -0.60311151107E+03  0.60311151107E+03  0.00000000000E+00 0.  1.
         23    2    1    2    0    0  0.55966763783E+03  0.14607332759E+02 -0.39729748634E+03  0.69151121470E+03  0.83073632338E+02 0.  0.
         11    1    3    3    0    0  0.51542985643E+03 -0.70938053001E+01 -0.34897205952E+03  0.62249478496E+03  0.00000000000E+00 0.  1.
        -11    1    3    3    0    0  0.44237781400E+02  0.21701138059E+02 -0.48325426817E+02  0.69016429735E+02  0.00000000000E+00 0. -1.
         22    1    1    2    0    0 -0.55966763783E+03 -0.14607332759E+02  0.12760586331E+04  0.13934729542E+04  0.00000000000E+00 0. -1.
<mgrwt>
<rscale>  0 0.18907506E+04</rscale>
<asrwt>0</asrwt>
<pdfrwt beam="1">  1        2 0.22798041E+00 0.18907506E+04</pdfrwt>
<pdfrwt beam="2">  1       -2 0.92786387E-01 0.18907506E+04</pdfrwt>
<totfact> 0.11996237E+01</totfact>
</mgrwt>
</event>
<event>
 6    1  0.1831439E-005  0.3263042E+04  0.7818608E-02  0.8172363E-01
         -2   -1    0    0    0  501 -0.00000000000E+00  0.00000000000E+00  0.66636296276E+03  0.66636296276E+03  0.00000000000E+00 0.  1.
          2   -1    0    0  501    0  0.00000000000E+00 -0.00000000000E+00 -0.39946118541E+04  0.39946118541E+04  0.00000000000E+00 0. -1.
         23    2    1    2    0    0 -0.66688457556E+03 -0.37480339935E+03  0.39054733898E+03  0.86431075115E+03  0.96401375955E+02 0.  0.
         11    1    3    3    0    0 -0.22735170333E+03 -0.14820317686E+03  0.18685093272E+03  0.32949392968E+03  0.00000000000E+00 0. -1.
        -11    1    3    3    0    0 -0.43953287223E+03 -0.22660022249E+03  0.20369640626E+03  0.53481682147E+03  0.00000000000E+00 0.  1.
         22    1    1    2    0    0  0.66688457556E+03  0.37480339935E+03 -0.37187962303E+04  0.37966640657E+04  0.00000000000E+00 0. -1.
<mgrwt>
<rscale>  0 0.32630424E+04</rscale>
<asrwt>0</asrwt>
<pdfrwt beam="1">  1        2 0.61455565E+00 0.32630424E+04</pdfrwt>
<pdfrwt beam="2">  1       -2 0.10251738E+00 0.32630424E+04</pdfrwt>
<totfact> 0.22492799E-01</totfact>
</mgrwt>
</event>
<event>
 6    1  0.1831439E-005  0.1930496E+04  0.7818608E-02  0.8639824E-01
         -2   -1    0    0    0  501 -0.00000000000E+00  0.00000000000E+00  0.55290154941E+03  0.55290154941E+03  0.00000000000E+00 0.  1.
          2   -1    0    0  501    0  0.00000000000E+00 -0.00000000000E+00 -0.16851171012E+04  0.16851171012E+04  0.00000000000E+00 0. -1.
         23    2    1    2    0    0  0.16292601959E+03 -0.10314843844E+03 -0.16612960693E+04  0.16748928368E+04  0.90426194398E+02 0.  0.
         13    1    3    3    0    0  0.76832366613E+02 -0.10090683982E+03 -0.97534328252E+03  0.98355473749E+03  0.00000000000E+00 0. -1.
        -13    1    3    3    0    0  0.86093652981E+02 -0.22415986239E+01 -0.68595278680E+03  0.69133809931E+03  0.00000000000E+00 0.  1.
         22    1    1    2    0    0 -0.16292601959E+03  0.10314843844E+03  0.52908051749E+03  0.56312581383E+03  0.00000000000E+00 0.  1.
<mgrwt>
<rscale>  0 0.19304962E+04</rscale>
<asrwt>0</asrwt>
<pdfrwt beam="1">  1        2 0.25924878E+00 0.19304962E+04</pdfrwt>
<pdfrwt beam="2">  1       -2 0.85061778E-01 0.19304962E+04</pdfrwt>
<totfact> 0.11233552E+01</totfact>
</mgrwt>
</event>
<event>
 6    1  0.1831439E-005  0.2621487E+04  0.7818608E-02  0.8360939E-01
          2   -1    0    0  501    0  0.00000000000E+00  0.00000000000E+00  0.17909610737E+04  0.17909610737E+04  0.00000000000E+00 0. -1.
         -2   -1    0    0    0  501 -0.00000000000E+00 -0.00000000000E+00 -0.95928827231E+03  0.95928827231E+03  0.00000000000E+00 0.  1.
         23    2    1    2    0    0 -0.37164598529E+03  0.88339565658E+03 -0.51966747682E+03  0.10935571079E+04  0.85464830418E+02 0.  0.
         11    1    3    3    0    0 -0.29531562535E+03  0.68994798265E+03 -0.44552957137E+03  0.87277496316E+03  0.00000000000E+00 0.  1.
        -11    1    3    3    0    0 -0.76330359937E+02  0.19344767392E+03 -0.74137905449E+02  0.22078214470E+03  0.00000000000E+00 0. -1.
         22    1    1    2    0    0  0.37164598529E+03 -0.88339565658E+03  0.13513402782E+04  0.16566922381E+04  0.00000000000E+00 0. -1.
<mgrwt>
<rscale>  0 0.26214866E+04</rscale>
<asrwt>0</asrwt>
<pdfrwt beam="1">  1        2 0.27553247E+00 0.26214866E+04</pdfrwt>
<pdfrwt beam="2">  1       -2 0.14758281E+00 0.26214866E+04</pdfrwt>
<totfact> 0.24112030E+00</totfact>
</mgrwt>
</event>
<event>
 6    1  0.2949758E-005  0.4201003E+04  0.7818608E-02  0.7965181E-01
          1   -1    0    0  501    0  0.00000000000E+00  0.00000000000E+00  0.30811751551E+04  0.30811751551E+04  0.00000000000E+00 0. -1.
         -1   -1    0    0    0  501 -0.00000000000E+00 -0.00000000000E+00 -0.14319560049E+04  0.14319560049E+04  0.00000000000E+00 0.  1.
         23    2    1    2    0    0  0.42433825789E+03  0.93811003074E+03 -0.11410217920E+04  0.15389828950E+04  0.80151321703E+02 0.  0.
         13    1    3    3    0    0  0.12093582302E+03  0.36052132779E+03 -0.41355296126E+03  0.56180704236E+03  0.00000000000E+00 0.  1.
        -13    1    3    3    0    0  0.30340243487E+03  0.57758870294E+03 -0.72746883078E+03  0.97717585266E+03  0.00000000000E+00 0. -1.
         22    1    1    2    0    0 -0.42433825789E+03 -0.93811003074E+03  0.27902409422E+04  0.29741482651E+04  0.00000000000E+00 0. -1.
<mgrwt>
<rscale>  0 0.42010033E+04</rscale>
<asrwt>0</asrwt>
<pdfrwt beam="1">  1        1 0.47402695E+00 0.42010033E+04</pdfrwt>
<pdfrwt beam="2">  1       -1 0.22030092E+00 0.42010033E+04</pdfrwt>
<totfact> 0.43923907E-02</totfact>
</mgrwt>
</event>
<event>
 6    1  0.1831439E-005  0.7488202E+03  0.7818608E-02  0.9637203E-01
          1   -1    0    0  501    0  0.00000000000E+00  0.00000000000E+00  0.27479541048E+03  0.27479541048E+03  0.00000000000E+00 0. -1.
         -1   -1    0    0    0  501 -0.00000000000E+00 -0.00000000000E+00 -0.51013556230E+03  0.51013556230E+03  0.00000000000E+00 0.  1.
         23    2    1    2    0    0  0.32074659464E+03 -0.31027549972E+02 -0.30765627380E+03  0.45467242508E+03  0.90738880798E+02 0.  0.
         11    1    3    3    0    0  0.22013634344E+03  0.21668774481E+02 -0.20315368194E+03  0.30033475319E+03  0.00000000000E+00 0. -1.
        -11    1    3    3    0    0  0.10061025120E+03 -0.52696324452E+02 -0.10450259186E+03  0.15433767189E+03  0.00000000000E+00 0.  1.
         22    1    1    2    0    0 -0.32074659464E+03  0.31027549972E+02  0.72316121983E+02  0.33025854770E+03  0.00000000000E+00 0. -1.
<mgrwt>
<rscale>  0 0.74882017E+03</rscale>
<asrwt>0</asrwt>
<pdfrwt beam="1">  1        1 0.42276218E-01 0.74882017E+03</pdfrwt>
<pdfrwt beam="2">  1       -1 0.78482393E-01 0.74882017E+03</pdfrwt>
<totfact> 0.16196931E+02</totfact>
</mgrwt>
</event>
<event>
 6    1  0.1831439E-005  0.2309278E+04  0.7818608E-02  0.8474272E-01
         -1   -1    0    0    0  501 -0.00000000000E+00  0.00000000000E+00  0.12398942933E+04  0.12398942933E+04  0.00000000000E+00 0.  1.
          1   -1    0    0  501    0  0.00000000000E+00 -0.00000000000E+00 -0.10752456307E+04  0.10752456307E+04  0.00000000000E+00 0. -1.
         23    2    1    2    0    0 -0.90678249409E+02  0.20106087976E+03  0.12165102605E+04  0.12404023544E+04  0.10026347563E+03 0.  0.
         11    1    3    3    0    0 -0.73965002827E+02  0.60385583709E+02  0.61944062557E+03  0.62675667445E+03  0.00000000000E+00 0. -1.
        -11    1    3    3    0    0 -0.16713246583E+02  0.14067529605E+03  0.59706963495E+03  0.61364567994E+03  0.00000000000E+00 0.  1.
         22    1    1    2    0    0  0.90678249409E+02 -0.20106087976E+03 -0.10518615980E+04  0.10747375696E+04  0.00000000000E+00 0. -1.
<mgrwt>
<rscale>  0 0.23092777E+04</rscale>
<asrwt>0</asrwt>
<pdfrwt beam="1">  1        1 0.16542241E+00 0.23092777E+04</pdfrwt>
<pdfrwt beam="2">  1       -1 0.19075297E+00 0.23092777E+04</pdfrwt>
<totfact> 0.20870940E+00</totfact>
</mgrwt>
</event>
<event>
 6    1  0.2852231E-005  0.2170485E+04  0.7818608E-02  0.8530814E-01
          2   -1    0    0  501    0  0.00000000000E+00  0.00000000000E+00  0.19706454287E+04  0.19706454287E+04  0.00000000000E+00 0.  1.
         -2   -1    0    0    0  501 -0.00000000000E+00 -0.00000000000E+00 -0.59764773924E+03  0.59764773924E+03  0.00000000000E+00 0. -1.
         23    2    1    2    0    0  0.35213606504E+03  0.98572742934E+03  0.10187257695E+04  0.14632289316E+04  0.87053658142E+02 0.  0.
         11    1    3    3    0    0  0.18126478414E+03  0.52796654399E+03  0.48327244228E+03  0.73834805276E+03  0.00000000000E+00 0. -1.
        -11    1    3    3    0    0  0.17087128090E+03  0.45776088535E+03  0.53545332724E+03  0.72488087879E+03  0.00000000000E+00 0.  1.
         22    1    1    2    0    0 -0.35213606504E+03 -0.98572742934E+03  0.35427191993E+03  0.11050642364E+04  0.00000000000E+00 0. -1.
<mgrwt>
<rscale>  0 0.21704855E+04</rscale>
<asrwt>0</asrwt>
<pdfrwt beam="1">  1        2 0.30317622E+00 0.21704855E+04</pdfrwt>
<pdfrwt beam="2">  1       -2 0.91945807E-01 0.21704855E+04</pdfrwt>
<totfact> 0.63923095E+00</totfact>
</mgrwt>
</event>
<event>
 6    1  0.1831439E-005  0.4037555E+04  0.7818608E-02  0.7997013E-01
          1   -1    0    0  501    0  0.00000000000E+00  0.00000000000E+00  0.37678015776E+04  0.37678015776E+04  0.00000000000E+00 0. -1.
         -1   -1    0    0    0  501 -0.00000000000E+00 -0.00000000000E+00 -0.10816553737E+04  0.10816553737E+04  0.00000000000E+00 0.  1.
         23    2    1    2    0    0  0.18487596464E+04 -0.66397326972E+03  0.79020608644E+03  0.21193723991E+04  0.92417390279E+02 0.  0.
         11    1    3    3    0    0  0.11797145693E+04 -0.37855929865E+03  0.48315958307E+03  0.13298408891E+04  0.00000000000E+00 0. -1.
        -11    1    3    3    0    0  0.66904507711E+03 -0.28541397107E+03  0.30704650337E+03  0.78953151003E+03  0.00000000000E+00 0.  1.
         22    1    1    2    0    0 -0.18487596464E+04  0.66397326972E+03  0.18959401175E+04  0.27300845522E+04  0.00000000000E+00 0.  1.
<mgrwt>
<rscale>  0 0.40375551E+04</rscale>
<asrwt>0</asrwt>
<pdfrwt beam="1">  1        1 0.57966178E+00 0.40375551E+04</pdfrwt>
<pdfrwt beam="2">  1       -1 0.16640852E+00 0.40375551E+04</pdfrwt>
<totfact> 0.30875454E-02</totfact>
</mgrwt>
</event>
<event>
 6    1  0.2380644E-005  0.3115697E+04  0.7818608E-02  0.8211443E-01
          1   -1    0    0  501    0  0.00000000000E+00  0.00000000000E+00  0.31848005430E+04  0.31848005430E+04  0.00000000000E+00 0. -1.
         -1   -1    0    0    0  501 -0.00000000000E+00 -0.00000000000E+00 -0.76202336400E+03  0.76202336400E+03  0.00000000000E+00 0.  1.
         23    2    1    2    0    0  0.61979654373E+03  0.19962679791E+03 -0.57853407304E+03  0.87568928839E+03  0.90174508933E+02 0.  0.
         11    1    3    3    0    0  0.39922386722E+03  0.16161282934E+03 -0.41853717064E+03  0.60055954407E+03  0.00000000000E+00 0.  1.
        -11    1    3    3    0    0  0.22057267651E+03  0.38013968562E+02 -0.15999690240E+03  0.27512974431E+03  0.00000000000E+00 0. -1.
         22    1    1    2    0    0 -0.61979654373E+03 -0.19962679791E+03  0.30013112520E+04  0.30711346186E+04  0.00000000000E+00 0. -1.
<mgrwt>
<rscale>  0 0.31156973E+04</rscale>
<asrwt>0</asrwt>
<pdfrwt beam="1">  1        1 0.48996931E+00 0.31156973E+04</pdfrwt>
<pdfrwt beam="2">  1       -1 0.11723437E+00 0.31156973E+04</pdfrwt>
<totfact> 0.24074541E-01</totfact>
</mgrwt>
</event>
<event>
 6    1  0.1831439E-005  0.2881608E+04  0.7818608E-02  0.8278371E-01
          1   -1    0    0  501    0  0.00000000000E+00  0.00000000000E+00  0.11055114598E+04  0.11055114598E+04  0.00000000000E+00 0. -1.
         -1   -1    0    0    0  501 -0.00000000000E+00 -0.00000000000E+00 -0.18777879711E+04  0.18777879711E+04  0.00000000000E+00 0.  1.
         23    2    1    2    0    0 -0.14684876191E+03 -0.12698851188E+04  0.29825612215E+03  0.13159023896E+04  0.92030488140E+02 0.  0.
         13    1    3    3    0    0 -0.90812632931E+02 -0.44964175496E+03  0.12887826967E+03  0.47648111242E+03  0.00000000000E+00 0. -1.
        -13    1    3    3    0    0 -0.56036128974E+02 -0.82024336386E+03  0.16937785247E+03  0.83942127720E+03  0.00000000000E+00 0.  1.
         22    1    1    2    0    0  0.14684876191E+03  0.12698851188E+04 -0.10705326335E+04  0.16673970413E+04  0.00000000000E+00 0. -1.
<mgrwt>
<rscale>  0 0.28816080E+04</rscale>
<asrwt>0</asrwt>
<pdfrwt beam="1">  1        1 0.17007869E+00 0.28816080E+04</pdfrwt>
<pdfrwt beam="2">  1       -1 0.28889045E+00 0.28816080E+04</pdfrwt>
<totfact> 0.42080908E-01</totfact>
</mgrwt>
</event>
<event>
 6    1  0.1831439E-005  0.6328133E+03  0.7818608E-02  0.9839574E-01
          2   -1    0    0  501    0  0.00000000000E+00  0.00000000000E+00  0.79750994488E+03  0.79750994488E+03  0.00000000000E+00 0. -1.
         -2   -1    0    0    0  501 -0.00000000000E+00 -0.00000000000E+00 -0.12553219309E+03  0.12553219309E+03  0.00000000000E+00 0.  1.
         23    2    1    2    0    0  0.14525376795E+03  0.25208457264E+02  0.74049398356E+03  0.76047339116E+03  0.90853263845E+02 0.  0.
         13    1    3    3    0    0  0.12796722733E+03  0.52072831377E+02  0.64960046792E+03  0.66412947455E+03  0.00000000000E+00 0. -1.
        -13    1    3    3    0    0  0.17286540626E+02 -0.26864374113E+02  0.90893515638E+02  0.96343916613E+02  0.00000000000E+00 0.  1.
         22    1    1    2    0    0 -0.14525376795E+03 -0.25208457264E+02 -0.68516231779E+02  0.16256874681E+03  0.00000000000E+00 0.  1.
<mgrwt>
<rscale>  0 0.63281331E+03</rscale>
<asrwt>0</asrwt>
<pdfrwt beam="1">  1        2 0.12269383E+00 0.63281331E+03</pdfrwt>
<pdfrwt beam="2">  1       -2 0.19312646E-01 0.63281331E+03</pdfrwt>
<totfact> 0.78930630E+02</totfact>
</mgrwt>
</event>
<event>
 6    1  0.1831439E-005  0.2137727E+04  0.7818608E-02  0.8544804E-01
          2   -1    0    0  501    0  0.00000000000E+00  0.00000000000E+00  0.23118174776E+04  0.23118174776E+04  0.00000000000E+00 0.  1.
         -2   -1    0    0    0  501 -0.00000000000E+00 -0.00000000000E+00 -0.49418638473E+03  0.49418638473E+03  0.00000000000E+00 0. -1.
         23    2    1    2    0    0 -0.94383227708E+03  0.12953466546E+02  0.15624914361E+04  0.18282086875E+04  0.99901739629E+02 0.  0.
         13    1    3    3    0    0 -0.32887229726E+03 -0.27377767035E+02  0.61444720899E+03  0.69746104026E+03  0.00000000000E+00 0. -1.
        -13    1    3    3    0    0 -0.61495997981E+03  0.40331233581E+02  0.94804422707E+03  0.11307476472E+04  0.00000000000E+00 0.  1.
         22    1    1    2    0    0  0.94383227708E+03 -0.12953466546E+02  0.25513965683E+03  0.97779517489E+03  0.00000000000E+00 0. -1.
<mgrwt>
<rscale>  0 0.21377266E+04</rscale>
<asrwt>0</asrwt>
<pdfrwt beam="1">  1        2 0.35566422E+00 0.21377266E+04</pdfrwt>
<pdfrwt beam="2">  1       -2 0.76028676E-01 0.21377266E+04</pdfrwt>
<totfact> 0.63534424E+00</totfact>
</mgrwt>
</event>
<event>
 6    1  0.1831439E-005  0.3776750E+03  0.7818608E-02  0.1051796E+00
          1   -1    0    0  501    0  0.00000000000E+00  0.00000000000E+00  0.27116826051E+03  0.27116826051E+03  0.00000000000E+00 0. -1.
         -1   -1    0    0    0  501 -0.00000000000E+00 -0.00000000000E+00 -0.13150357563E+03  0.13150357563E+03  0.00000000000E+00 0.  1.
         23    2    1    2    0    0 -0.27629020373E+00  0.12231166713E+03  0.21148157508E+03  0.26083430242E+03  0.91377549054E+02 0.  0.
         11    1    3    3    0    0  0.38307133942E+02  0.81738985247E+02  0.16494170537E+03  0.18802782877E+03  0.00000000000E+00 0. -1.
        -11    1    3    3    0    0 -0.38583424146E+02  0.40572681885E+02  0.46539869706E+02  0.72806473658E+02  0.00000000000E+00 0.  1.
         22    1    1    2    0    0  0.27629020373E+00 -0.12231166713E+03 -0.71816890203E+02  0.14183753372E+03  0.00000000000E+00 0.  1.
<mgrwt>
<rscale>  0 0.37767497E+03</rscale>
<asrwt>0</asrwt>
<pdfrwt beam="1">  1        1 0.41718194E-01 0.37767497E+03</pdfrwt>
<pdfrwt beam="2">  1       -1 0.20231319E-01 0.37767497E+03</pdfrwt>
<totfact> 0.19798937E+03</totfact>
</mgrwt>
</event>
<event>
 6    1  0.1831439E-005  0.2358269E+04  0.7818608E-02  0.8455294E-01
         -1   -1    0    0    0  501 -0.00000000000E+00  0.00000000000E+00  0.58123104189E+03  0.58123104189E+03  0.00000000000E+00 0.  1.
          1   -1    0    0  501    0  0.00000000000E+00 -0.00000000000E+00 -0.23920929105E+04  0.23920929105E+04  0.00000000000E+00 0. -1.
         23    2    1    2    0    0 -0.23626257665E+03 -0.23257749466E+03 -0.23311572803E+04  0.23563801855E+04  0.91219609325E+02 0.  0.
         11    1    3    3    0    0 -0.13299448019E+03 -0.89206735067E+02 -0.13471873796E+04  0.13566721081E+04  0.00000000000E+00 0. -1.
        -11    1    3    3    0    0 -0.10326809646E+03 -0.14337075960E+03 -0.98396990070E+03  0.99970807736E+03  0.00000000000E+00 0.  1.
         22    1    1    2    0    0  0.23626257665E+03  0.23257749466E+03  0.52029541164E+03  0.61694376690E+03  0.00000000000E+00 0.  1.
<mgrwt>
<rscale>  0 0.23582694E+04</rscale>
<asrwt>0</asrwt>
<pdfrwt beam="1">  1        1 0.36801429E+00 0.23582694E+04</pdfrwt>
<pdfrwt beam="2">  1       -1 0.89420161E-01 0.23582694E+04</pdfrwt>
<totfact> 0.17724453E+00</totfact>
</mgrwt>
</event>
<event>
 6    1  0.1831439E-005  0.1345987E+04  0.7818608E-02  0.8993872E-01
         -2   -1    0    0    0  501 -0.00000000000E+00  0.00000000000E+00  0.25024328319E+03  0.25024328319E+03  0.00000000000E+00 0.  1.
          2   -1    0    0  501    0  0.00000000000E+00 -0.00000000000E+00 -0.18099191078E+04  0.18099191078E+04  0.00000000000E+00 0. -1.
         23    2    1    2    0    0 -0.44734274875E+03 -0.35148842818E+03 -0.13262726093E+04  0.14452341749E+04  0.77737610883E+02 0.  0.
         11    1    3    3    0    0 -0.15916040772E+03 -0.96109216360E+02 -0.50607228253E+03  0.53914577992E+03  0.00000000000E+00 0.  1.
        -11    1    3    3    0    0 -0.28818234104E+03 -0.25537921182E+03 -0.82020032677E+03  0.90608839500E+03  0.00000000000E+00 0. -1.
         22    1    1    2    0    0  0.44734274875E+03  0.35148842818E+03 -0.23340321532E+03  0.61492821608E+03  0.00000000000E+00 0.  1.
<mgrwt>
<rscale>  0 0.13459868E+04</rscale>
<asrwt>0</asrwt>
<pdfrwt beam="1">  1        2 0.27844909E+00 0.13459868E+04</pdfrwt>
<pdfrwt beam="2">  1       -2 0.38498967E-01 0.13459868E+04</pdfrwt>
<totfact> 0.53058554E+01</totfact>
</mgrwt>
</event>
<event>
 6    1  0.1831439E-005  0.1317024E+04  0.7818608E-02  0.9016173E-01
          2   -1    0    0  501    0  0.00000000000E+00  0.00000000000E+00  0.10974403853E+04  0.10974403853E+04  0.00000000000E+00 0. -1.
         -2   -1    0    0    0  501 -0.00000000000E+00 -0.00000000000E+00 -0.39513606877E+03  0.39513606877E+03  0.00000000000E+00 0.  1.
         23    2    1    2    0    0  0.50626528474E+03 -0.41355266720E+03  0.30111942449E+03  0.72558253969E+03  0.92015036886E+02 0.  0.
         11    1    3    3    0    0  0.22343378558E+03 -0.19357632023E+03  0.18584976388E+03  0.34919132725E+03  0.00000000000E+00 0. -1.
        -11    1    3    3    0    0  0.28283149916E+03 -0.21997634696E+03  0.11526966061E+03  0.37639121243E+03  0.00000000000E+00 0.  1.
         22    1    1    2    0    0 -0.50626528474E+03  0.41355266720E+03  0.40118489200E+03  0.76699391435E+03  0.00000000000E+00 0. -1.
<mgrwt>
<rscale>  0 0.13170243E+04</rscale>
<asrwt>0</asrwt>
<pdfrwt beam="1">  1        2 0.16883698E+00 0.13170243E+04</pdfrwt>
<pdfrwt beam="2">  1       -2 0.60790165E-01 0.13170243E+04</pdfrwt>
<totfact> 0.53929755E+01</totfact>
</mgrwt>
</event>
<event>
 6    1  0.1831439E-005  0.1449559E+04  0.7818608E-02  0.8918706E-01
         -2   -1    0    0    0  501 -0.00000000000E+00  0.00000000000E+00  0.36743160900E+03  0.36743160900E+03  0.00000000000E+00 0.  1.
          2   -1    0    0  501    0  0.00000000000E+00 -0.00000000000E+00 -0.14296683072E+04  0.14296683072E+04  0.00000000000E+00 0. -1.
         23    2    1    2    0    0 -0.46155067177E+03 -0.50871618177E+03 -0.25684802840E+03  0.73857637578E+03  0.87766605025E+02 0.  0.
         11    1    3    3    0    0 -0.23540774104E+03 -0.22047900349E+03 -0.82904543145E+02  0.33301795566E+03  0.00000000000E+00 0.  1.
        -11    1    3    3    0    0 -0.22614293073E+03 -0.28823717828E+03 -0.17394348525E+03  0.40555842011E+03  0.00000000000E+00 0. -1.
         22    1    1    2    0    0  0.46155067177E+03  0.50871618177E+03 -0.80538866982E+03  0.10585235404E+04  0.00000000000E+00 0. -1.
<mgrwt>
<rscale>  0 0.14495590E+04</rscale>
<asrwt>0</asrwt>
<pdfrwt beam="1">  1        2 0.21994896E+00 0.14495590E+04</pdfrwt>
<pdfrwt beam="2">  1       -2 0.56527942E-01 0.14495590E+04</pdfrwt>
<totfact> 0.39620781E+01</totfact>
</mgrwt>
</event>
<event>
 6    1  0.1831439E-005  0.4487608E+03  0.7818608E-02  0.1028092E+00
          1   -1    0    0  501    0  0.00000000000E+00  0.00000000000E+00  0.51712110694E+02  0.51712110694E+02  0.00000000000E+00 0. -1.
         -1   -1    0    0    0  501 -0.00000000000E+00 -0.00000000000E+00 -0.97359328824E+03  0.97359328824E+03  0.00000000000E+00 0.  1.
         23    2    1    2    0    0 -0.14212834262E+03  0.75671476529E+02 -0.80338960684E+03  0.82538818991E+03  0.99519674091E+02 0.  0.
         11    1    3    3    0    0 -0.30824824104E+02  0.57490157999E+02 -0.17097894557E+03  0.18300024010E+03  0.00000000000E+00 0.  1.
        -11    1    3    3    0    0 -0.11130351851E+03  0.18181318530E+02 -0.63241066127E+03  0.64238794981E+03  0.00000000000E+00 0. -1.
         22    1    1    2    0    0  0.14212834262E+03 -0.75671476529E+02 -0.11849157071E+03  0.19991720903E+03  0.00000000000E+00 0. -1.
<mgrwt>
<rscale>  0 0.44876080E+03</rscale>
<asrwt>0</asrwt>
<pdfrwt beam="1">  1        1 0.79557098E-02 0.44876080E+03</pdfrwt>
<pdfrwt beam="2">  1       -1 0.14978357E+00 0.44876080E+03</pdfrwt>
<totfact> 0.33090505E+02</totfact>
</mgrwt>
</event>
<event>
 6    1  0.1831439E-005  0.1868742E+04  0.7818608E-02  0.8670574E-01
         -1   -1    0    0    0  501 -0.00000000000E+00  0.00000000000E+00  0.15435054159E+04  0.15435054159E+04  0.00000000000E+00 0. -1.
          1   -1    0    0  501    0  0.00000000000E+00 -0.00000000000E+00 -0.56562782410E+03  0.56562782410E+03  0.00000000000E+00 0.  1.
         23    2    1    2    0    0  0.51998906022E+03 -0.19776287548E+03 -0.35424616551E+03  0.66550846795E+03  0.88951658047E+02 0.  0.
         11    1    3    3    0    0  0.19961179768E+03 -0.51398503696E+02 -0.88701377284E+02  0.22439832951E+03  0.00000000000E+00 0. -1.
        -11    1    3    3    0    0  0.32037726254E+03 -0.14636437178E+03 -0.26554478822E+03  0.44111013843E+03  0.00000000000E+00 0.  1.
         22    1    1    2    0    0 -0.51998906022E+03  0.19776287548E+03  0.13321237573E+04  0.14436247720E+04  0.00000000000E+00 0. -1.
<mgrwt>
<rscale>  0 0.18687425E+04</rscale>
<asrwt>0</asrwt>
<pdfrwt beam="1">  1        1 0.87019666E-01 0.18687425E+04</pdfrwt>
<pdfrwt beam="2">  1       -1 0.23746237E+00 0.18687425E+04</pdfrwt>
<totfact> 0.29461690E+00</totfact>
</mgrwt>
</event>
<event>
 6    1  0.1831439E-005  0.2833207E+04  0.7818608E-02  0.8293032E-01
          2   -1    0    0  501    0  0.00000000000E+00  0.00000000000E+00  0.32934963367E+04  0.32934963367E+04  0.00000000000E+00 0. -1.
         -2   -1    0    0    0  501 -0.00000000000E+00 -0.00000000000E+00 -0.60931171733E+03  0.60931171733E+03  0.00000000000E+00 0.  1.
         23    2    1    2    0    0 -0.41879751549E+03  0.10369053853E+04  0.14881152789E+03  0.11317647757E+04  0.90457170310E+02 0.  0.
         11    1    3    3    0    0 -0.83908414489E+02  0.12925037173E+03  0.30567049702E+02  0.15710068473E+03  0.00000000000E+00 0. -1.
        -11    1    3    3    0    0 -0.33488910100E+03  0.90765501360E+03  0.11824447819E+03  0.97466409101E+03  0.00000000000E+00 0.  1.
         22    1    1    2    0    0  0.41879751549E+03 -0.10369053853E+04  0.25353730915E+04  0.27710432783E+04  0.00000000000E+00 0. -1.
<mgrwt>
<rscale>  0 0.28332073E+04</rscale>
<asrwt>0</asrwt>
<pdfrwt beam="1">  1        2 0.50669173E+00 0.28332073E+04</pdfrwt>
<pdfrwt beam="2">  1       -2 0.93740266E-01 0.28332073E+04</pdfrwt>
<totfact> 0.93835017E-01</totfact>
</mgrwt>
</event>
<event>
 6    1  0.1831439E-005  0.1297629E+04  0.7818608E-02  0.9031448E-01
         -2   -1    0    0    0  501 -0.00000000000E+00  0.00000000000E+00  0.15820472124E+03  0.15820472124E+03  0.00000000000E+00 0. -1.
          2   -1    0    0  501    0  0.00000000000E+00 -0.00000000000E+00 -0.26608560223E+04  0.26608560223E+04  0.00000000000E+00 0.  1.
         23    2    1    2    0    0 -0.29775997842E+03  0.49853998065E+03 -0.18705711334E+04  0.19607318698E+04  0.90719255367E+02 0.  0.
         11    1    3    3    0    0 -0.79724591021E+02  0.19412017085E+03 -0.57329995805E+03  0.61050101805E+03  0.00000000000E+00 0. -1.
        -11    1    3    3    0    0 -0.21803538739E+03  0.30441980979E+03 -0.12972711753E+04  0.13502308518E+04  0.00000000000E+00 0.  1.
         22    1    1    2    0    0  0.29775997842E+03 -0.49853998065E+03 -0.63208016768E+03  0.85832887369E+03  0.00000000000E+00 0. -1.
<mgrwt>
<rscale>  0 0.12976286E+04</rscale>
<asrwt>0</asrwt>
<pdfrwt beam="1">  1        2 0.40936242E+00 0.12976286E+04</pdfrwt>
<pdfrwt beam="2">  1       -2 0.24339190E-01 0.12976286E+04</pdfrwt>
<totfact> 0.41639078E+01</totfact>
</mgrwt>
</event>
<event>
 6    1  0.2067524E-005  0.3381485E+04  0.7818608E-02  0.8142465E-01
          2   -1    0    0  501    0  0.00000000000E+00  0.00000000000E+00  0.28048993497E+04  0.28048993497E+04  0.00000000000E+00 0.  1.
         -2   -1    0    0    0  501 -0.00000000000E+00 -0.00000000000E+00 -0.10191491865E+04  0.10191491865E+04  0.00000000000E+00 0. -1.
         23    2    1    2    0    0  0.17885792721E+03  0.16586547873E+04  0.11969291199E+04  0.20549142613E+04  0.83111020700E+02 0.  0.
         11    1    3    3    0    0  0.10052381383E+03  0.56537729741E+03  0.40739976484E+03  0.70408173813E+03  0.00000000000E+00 0. -1.
        -11    1    3    3    0    0  0.78334113386E+02  0.10932774899E+04  0.78952935502E+03  0.13508325231E+04  0.00000000000E+00 0.  1.
         22    1    1    2    0    0 -0.17885792721E+03 -0.16586547873E+04  0.58882104334E+03  0.17691342749E+04  0.00000000000E+00 0.  1.
<mgrwt>
<rscale>  0 0.33814854E+04</rscale>
<asrwt>0</asrwt>
<pdfrwt beam="1">  1        2 0.43152297E+00 0.33814854E+04</pdfrwt>
<pdfrwt beam="2">  1       -2 0.15679218E+00 0.33814854E+04</pdfrwt>
<totfact> 0.50688892E-01</totfact>
</mgrwt>
</event>
<event>
 6    1  0.1831439E-005  0.2597504E+04  0.7818608E-02  0.8369050E-01
         -2   -1    0    0    0  501 -0.00000000000E+00  0.00000000000E+00  0.12949272405E+04  0.12949272405E+04  0.00000000000E+00 0.  1.
          2   -1    0    0  501    0  0.00000000000E+00 -0.00000000000E+00 -0.13025879754E+04  0.13025879754E+04  0.00000000000E+00 0. -1.
         23    2    1    2    0    0 -0.70663571945E+03 -0.10775009220E+04  0.14609003699E+03  0.12998320586E+04  0.88762631635E+02 0.  0.
         11    1    3    3    0    0 -0.52903726072E+03 -0.86473580030E+03  0.96857283168E+02  0.10183465819E+04  0.00000000000E+00 0.  1.
        -11    1    3    3    0    0 -0.17759845872E+03 -0.21276512170E+03  0.49232753820E+02  0.28148547671E+03  0.00000000000E+00 0. -1.
         22    1    1    2    0    0  0.70663571945E+03  0.10775009220E+04 -0.15375077185E+03  0.12976831573E+04  0.00000000000E+00 0.  1.
<mgrwt>
<rscale>  0 0.25975039E+04</rscale>
<asrwt>0</asrwt>
<pdfrwt beam="1">  1        2 0.20039815E+00 0.25975039E+04</pdfrwt>
<pdfrwt beam="2">  1       -2 0.19921958E+00 0.25975039E+04</pdfrwt>
<totfact> 0.19616402E+00</totfact>
</mgrwt>
</event>
<event>
 6    1  0.1831439E-005  0.1568858E+04  0.7818608E-02  0.8839911E-01
          1   -1    0    0  501    0  0.00000000000E+00  0.00000000000E+00  0.13955995411E+04  0.13955995411E+04  0.00000000000E+00 0.  1.
         -1   -1    0    0    0  501 -0.00000000000E+00 -0.00000000000E+00 -0.44090662441E+03  0.44090662441E+03  0.00000000000E+00 0. -1.
         23    2    1    2    0    0 -0.15331129622E+03  0.46720078218E+03 -0.23188183771E+03  0.55208389375E+03  0.96158799196E+02 0.  0.
         11    1    3    3    0    0 -0.20439711223E+02  0.20981621965E+03 -0.11058965379E+03  0.23805608446E+03  0.00000000000E+00 0.  1.
        -11    1    3    3    0    0 -0.13287158500E+03  0.25738456253E+03 -0.12129218392E+03  0.31402780929E+03  0.00000000000E+00 0. -1.
         22    1    1    2    0    0  0.15331129622E+03 -0.46720078218E+03  0.11865747544E+04  0.12844222718E+04  0.00000000000E+00 0.  1.
<mgrwt>
<rscale>  0 0.15688583E+04</rscale>
<asrwt>0</asrwt>
<pdfrwt beam="1">  1        1 0.21470762E+00 0.15688583E+04</pdfrwt>
<pdfrwt beam="2">  1       -1 0.67831789E-01 0.15688583E+04</pdfrwt>
<totfact> 0.16380170E+01</totfact>
</mgrwt>
</event>
<event>
 6    1  0.1831439E-005  0.5447510E+04  0.7818608E-02  0.7762953E-01
         -1   -1    0    0    0  501 -0.00000000000E+00  0.00000000000E+00  0.24695263474E+04  0.24695263474E+04  0.00000000000E+00 0.  1.
          1   -1    0    0  501    0  0.00000000000E+00 -0.00000000000E+00 -0.30041552530E+04  0.30041552530E+04  0.00000000000E+00 0. -1.
         23    2    1    2    0    0  0.20813646197E+04  0.17469951636E+04 -0.44335996437E+03  0.27547846179E+04  0.90550820994E+02 0.  0.
         13    1    3    3    0    0  0.67655868109E+03  0.58571689360E+03 -0.18690724017E+03  0.91418282900E+03  0.00000000000E+00 0.  1.
        -13    1    3    3    0    0  0.14048059386E+04  0.11612782700E+04 -0.25645272419E+03  0.18406017889E+04  0.00000000000E+00 0. -1.
         22    1    1    2    0    0 -0.20813646197E+04 -0.17469951636E+04 -0.91268941207E+02  0.27188969825E+04  0.00000000000E+00 0.  1.
<mgrwt>
<rscale>  0 0.54475097E+04</rscale>
<asrwt>0</asrwt>
<pdfrwt beam="1">  1        1 0.46217773E+00 0.54475097E+04</pdfrwt>
<pdfrwt beam="2">  1       -1 0.37992713E+00 0.54475097E+04</pdfrwt>
<totfact> 0.40535550E-03</totfact>
</mgrwt>
</event>
<event>
 6    1  0.1831439E-005  0.1211099E+04  0.7818608E-02  0.9103197E-01
         -2   -1    0    0    0  501 -0.00000000000E+00  0.00000000000E+00  0.24995476438E+03  0.24995476438E+03  0.00000000000E+00 0.  1.
          2   -1    0    0  501    0  0.00000000000E+00 -0.00000000000E+00 -0.14670250490E+04  0.14670250490E+04  0.00000000000E+00 0. -1.
         23    2    1    2    0    0  0.21146415082E+02 -0.55448865446E+03 -0.28064835056E+03  0.62849881796E+03  0.91336896737E+02 0.  0.
         11    1    3    3    0    0  0.26798865934E+02 -0.13019964049E+03 -0.10439765528E+03  0.16902365523E+03  0.00000000000E+00 0. -1.
        -11    1    3    3    0    0 -0.56524508510E+01 -0.42428901397E+03 -0.17625069528E+03  0.45947516273E+03  0.00000000000E+00 0.  1.
         22    1    1    2    0    0 -0.21146415082E+02  0.55448865446E+03 -0.93642193411E+03  0.10884809955E+04  0.00000000000E+00 0. -1.
<mgrwt>
<rscale>  0 0.12110985E+04</rscale>
<asrwt>0</asrwt>
<pdfrwt beam="1">  1        2 0.22569616E+00 0.12110985E+04</pdfrwt>
<pdfrwt beam="2">  1       -2 0.38454579E-01 0.12110985E+04</pdfrwt>
<totfact> 0.83415095E+01</totfact>
</mgrwt>
</event>
<event>
 6    1  0.1831439E-005  0.3213756E+04  0.7818608E-02  0.8185194E-01
         -2   -1    0    0    0  501 -0.00000000000E+00  0.00000000000E+00  0.95976334621E+03  0.95976334621E+03  0.00000000000E+00 0. -1.
          2   -1    0    0  501    0  0.00000000000E+00 -0.00000000000E+00 -0.26903061243E+04  0.26903061243E+04  0.00000000000E+00 0.  1.
         23    2    1    2    0    0 -0.13772906068E+04 -0.60818650450E+02  0.68845997086E+02  0.13832593135E+04  0.89656195237E+02 0.  0.
         13    1    3    3    0    0 -0.82287673241E+03 -0.54660790537E+02  0.81162955687E+02  0.82867445003E+03  0.00000000000E+00 0.  1.
        -13    1    3    3    0    0 -0.55441387436E+03 -0.61578599121E+01 -0.12316958602E+02  0.55458486347E+03  0.00000000000E+00 0. -1.
         22    1    1    2    0    0  0.13772906068E+04  0.60818650450E+02 -0.17993887752E+04  0.22668101570E+04  0.00000000000E+00 0.  1.
<mgrwt>
<rscale>  0 0.32137562E+04</rscale>
<asrwt>0</asrwt>
<pdfrwt beam="1">  1        2 0.41389324E+00 0.32137562E+04</pdfrwt>
<pdfrwt beam="2">  1       -2 0.14765590E+00 0.32137562E+04</pdfrwt>
<totfact> 0.70679458E-01</totfact>
</mgrwt>
</event>
<event>
 6    1  0.1831439E-005  0.2483336E+04  0.7818608E-02  0.8408946E-01
          2   -1    0    0  501    0  0.00000000000E+00  0.00000000000E+00  0.17000611627E+04  0.17000611627E+04  0.00000000000E+00 0. -1.
         -2   -1    0    0    0  501 -0.00000000000E+00 -0.00000000000E+00 -0.90687291989E+03  0.90687291989E+03  0.00000000000E+00 0.  1.
         23    2    1    2    0    0 -0.10948433919E+04  0.44929990838E+03  0.86290954026E+01  0.11870448207E+04  0.91915638214E+02 0.  0.
         11    1    3    3    0    0 -0.86792707027E+03  0.32107343478E+03 -0.13071301554E+02  0.92550332725E+03  0.00000000000E+00 0. -1.
        -11    1    3    3    0    0 -0.22691632160E+03  0.12822647360E+03  0.21700396956E+02  0.26154149340E+03  0.00000000000E+00 0.  1.
         22    1    1    2    0    0  0.10948433919E+04 -0.44929990838E+03  0.78455914740E+03  0.14198892619E+04  0.00000000000E+00 0. -1.
<mgrwt>
<rscale>  0 0.24833360E+04</rscale>
<asrwt>0</asrwt>
<pdfrwt beam="1">  1        2 0.26154787E+00 0.24833360E+04</pdfrwt>
<pdfrwt beam="2">  1       -2 0.13951891E+00 0.24833360E+04</pdfrwt>
<totfact> 0.31742409E+00</totfact>
</mgrwt>
</event>
<event>
 6    1  0.1831439E-005  0.1291498E+04  0.7818608E-02  0.9036334E-01
         -1   -1    0    0    0  501 -0.00000000000E+00  0.00000000000E+00  0.40374674584E+03  0.40374674584E+03  0.00000000000E+00 0.  1.
          1   -1    0    0  501    0  0.00000000000E+00 -0.00000000000E+00 -0.10328057206E+04  0.10328057206E+04  0.00000000000E+00 0. -1.
         23    2    1    2    0    0  0.17500789115E+03  0.54010062147E+03  0.18476869027E+02  0.57536775205E+03  0.91488863467E+02 0.  0.
         13    1    3    3    0    0 -0.18224905949E+01  0.49815300529E+02 -0.17741243142E+02  0.52911599361E+02  0.00000000000E+00 0. -1.
        -13    1    3    3    0    0  0.17683038174E+03  0.49028532094E+03  0.36218112168E+02  0.52245615269E+03  0.00000000000E+00 0.  1.
         22    1    1    2    0    0 -0.17500789115E+03 -0.54010062147E+03 -0.64753584374E+03  0.86118471433E+03  0.00000000000E+00 0.  1.
<mgrwt>
<rscale>  0 0.12914983E+04</rscale>
<asrwt>0</asrwt>
<pdfrwt beam="1">  1        1 0.15889319E+00 0.12914983E+04</pdfrwt>
<pdfrwt beam="2">  1       -1 0.62114884E-01 0.12914983E+04</pdfrwt>
<totfact> 0.36877171E+01</totfact>
</mgrwt>
</event>
<event>
 6    1  0.1831439E-005  0.2269154E+04  0.7818608E-02  0.8490183E-01
         -2   -1    0    0    0  501 -0.00000000000E+00  0.00000000000E+00  0.62673784157E+03  0.62673784157E+03  0.00000000000E+00 0.  1.
          2   -1    0    0  501    0  0.00000000000E+00 -0.00000000000E+00 -0.20539137953E+04  0.20539137953E+04  0.00000000000E+00 0. -1.
         23    2    1    2    0    0  0.40743497141E+03 -0.89973686346E+03 -0.13698089455E+04  0.16912979827E+04  0.92642536469E+02 0.  0.
         11    1    3    3    0    0  0.32768467924E+03 -0.64811694813E+03 -0.10488246354E+04  0.12757217343E+04  0.00000000000E+00 0.  1.
        -11    1    3    3    0    0  0.79750292169E+02 -0.25161991533E+03 -0.32098431008E+03  0.41557624837E+03  0.00000000000E+00 0. -1.
         22    1    1    2    0    0 -0.40743497141E+03  0.89973686346E+03 -0.57367008178E+02  0.98935365417E+03  0.00000000000E+00 0.  1.
<mgrwt>
<rscale>  0 0.22691545E+04</rscale>
<asrwt>0</asrwt>
<pdfrwt beam="1">  1        2 0.31598674E+00 0.22691545E+04</pdfrwt>
<pdfrwt beam="2">  1       -2 0.96421206E-01 0.22691545E+04</pdfrwt>
<totfact> 0.51002853E+00</totfact>
</mgrwt>
</event>
<event>
 6    1  0.1831439E-005  0.2364244E+03  0.7818608E-02  0.1122198E+00
         -2   -1    0    0    0  501 -0.00000000000E+00  0.00000000000E+00  0.10732202034E+02  0.10732202034E+02  0.00000000000E+00 0.  1.
          2   -1    0    0  501    0  0.00000000000E+00 -0.00000000000E+00 -0.13020742458E+04  0.13020742458E+04  0.00000000000E+00 0. -1.
         23    2    1    2    0    0 -0.70838728120E+02  0.71105412851E+02 -0.81452582720E+03  0.82554080209E+03  0.89393442759E+02 0.  0.
         11    1    3    3    0    0 -0.35874992069E+00  0.30329162084E+02 -0.66432834973E+02  0.73029503194E+02  0.00000000000E+00 0.  1.
        -11    1    3    3    0    0 -0.70479978199E+02  0.40776250767E+02 -0.74809299222E+03  0.75251129890E+03  0.00000000000E+00 0. -1.
         22    1    1    2    0    0  0.70838728120E+02 -0.71105412851E+02 -0.47681621655E+03  0.48726564572E+03  0.00000000000E+00 0.  1.
<mgrwt>
<rscale>  0 0.23642440E+03</rscale>
<asrwt>0</asrwt>
<pdfrwt beam="1">  1        2 0.20031911E+00 0.23642440E+03</pdfrwt>
<pdfrwt beam="2">  1       -2 0.16511080E-02 0.23642440E+03</pdfrwt>
<totfact> 0.17803472E+04</totfact>
</mgrwt>
</event>
<event>
 6    1  0.1831439E-005  0.2904882E+04  0.7818608E-02  0.8271426E-01
         -2   -1    0    0    0  501 -0.00000000000E+00  0.00000000000E+00  0.20512496978E+04  0.20512496978E+04  0.00000000000E+00 0.  1.
          2   -1    0    0  501    0  0.00000000000E+00 -0.00000000000E+00 -0.10284388037E+04  0.10284388037E+04  0.00000000000E+00 0. -1.
         23    2    1    2    0    0 -0.69390018994E+03  0.68276357922E+03  0.16527115118E+04  0.19201893135E+04  0.89487875834E+02 0.  0.
         13    1    3    3    0    0 -0.17265415900E+03  0.16177760825E+03  0.33048903770E+03  0.40645351172E+03  0.00000000000E+00 0.  1.
        -13    1    3    3    0    0 -0.52124603094E+03  0.52098597097E+03  0.13222224741E+04  0.15137358018E+04  0.00000000000E+00 0. -1.
         22    1    1    2    0    0  0.69390018994E+03 -0.68276357922E+03 -0.62990061772E+03  0.11594991880E+04  0.00000000000E+00 0. -1.
<mgrwt>
<rscale>  0 0.29048819E+04</rscale>
<asrwt>0</asrwt>
<pdfrwt beam="1">  1        2 0.15822136E+00 0.29048819E+04</pdfrwt>
<pdfrwt beam="2">  1       -2 0.31557687E+00 0.29048819E+04</pdfrwt>
<totfact> 0.53131280E-01</totfact>
</mgrwt>
</event>
<event>
 6    1  0.1831439E-005  0.1832503E+04  0.7818608E-02  0.8689203E-01
          2   -1    0    0  501    0  0.00000000000E+00  0.00000000000E+00  0.13824078249E+04  0.13824078249E+04  0.00000000000E+00 0. -1.
         -2   -1    0    0    0  501 -0.00000000000E+00 -0.00000000000E+00 -0.60728566472E+03  0.60728566472E+03  0.00000000000E+00 0.  1.
         23    2    1    2    0    0 -0.30778488243E+03 -0.18759807565E+03  0.13003339481E+04  0.13526911396E+04  0.94764818877E+02 0.  0.
         13    1    3    3    0    0 -0.16656569073E+03 -0.12275197374E+03  0.58044521148E+03  0.61622140495E+03  0.00000000000E+00 0. -1.
        -13    1    3    3    0    0 -0.14121919170E+03 -0.64846101909E+02  0.71988873659E+03  0.73646973468E+03  0.00000000000E+00 0.  1.
         22    1    1    2    0    0  0.30778488243E+03  0.18759807565E+03 -0.52521178785E+03  0.63700235002E+03  0.00000000000E+00 0.  1.
<mgrwt>
<rscale>  0 0.18325026E+04</rscale>
<asrwt>0</asrwt>
<pdfrwt beam="1">  1        2 0.21267813E+00 0.18325026E+04</pdfrwt>
<pdfrwt beam="2">  1       -2 0.93428564E-01 0.18325026E+04</pdfrwt>
<totfact> 0.13515689E+01</totfact>
</mgrwt>
</event>
<event>
 6    1  0.1831439E-005  0.1119637E+04  0.7818608E-02  0.9186261E-01
          1   -1    0    0  501    0  0.00000000000E+00  0.00000000000E+00  0.93912853645E+03  0.93912853645E+03  0.00000000000E+00 0.  1.
         -1   -1    0    0    0  501 -0.00000000000E+00 -0.00000000000E+00 -0.33371009543E+03  0.33371009543E+03  0.00000000000E+00 0. -1.
         23    2    1    2    0    0  0.54074977575E+03 -0.85500081859E+02  0.19467186343E+03  0.58841673350E+03  0.92825286858E+02 0.  0.
         13    1    3    3    0    0  0.19946150093E+03 -0.44268243222E+02  0.27508097374E+02  0.20615834480E+03  0.00000000000E+00 0. -1.
        -13    1    3    3    0    0  0.34128827482E+03 -0.41231838637E+02  0.16716376605E+03  0.38225838870E+03  0.00000000000E+00 0.  1.
         22    1    1    2    0    0 -0.54074977575E+03  0.85500081859E+02  0.41074657759E+03  0.68442189838E+03  0.00000000000E+00 0. -1.
<mgrwt>
<rscale>  0 0.11196369E+04</rscale>
<asrwt>0</asrwt>
<pdfrwt beam="1">  1        1 0.14448131E+00 0.11196369E+04</pdfrwt>
<pdfrwt beam="2">  1       -1 0.51340015E-01 0.11196369E+04</pdfrwt>
<totfact> 0.64205209E+01</totfact>
</mgrwt>
</event>
<event>
 6    1  0.1831439E-005  0.1546829E+04  0.7818608E-02  0.8853896E-01
          2   -1    0    0  501    0  0.00000000000E+00  0.00000000000E+00  0.66103715718E+03  0.66103715718E+03  0.00000000000E+00 0. -1.
         -2   -1    0    0    0  501 -0.00000000000E+00 -0.00000000000E+00 -0.90489575341E+03  0.90489575341E+03  0.00000000000E+00 0.  1.
         23    2    1    2    0    0 -0.64316113412E+03 -0.27706153951E+02 -0.55162884557E+03  0.85238795631E+03  0.88583121336E+02 0.  0.
         11    1    3    3    0    0 -0.28505796643E+03  0.29497934552E+02 -0.22537137762E+03  0.36458254239E+03  0.00000000000E+00 0. -1.
        -11    1    3    3    0    0 -0.35810316769E+03 -0.57204088504E+02 -0.32625746795E+03  0.48780541391E+03  0.00000000000E+00 0.  1.
         22    1    1    2    0    0  0.64316113412E+03  0.27706153951E+02  0.30777024934E+03  0.71354495428E+03  0.00000000000E+00 0. -1.
<mgrwt>
<rscale>  0 0.15468286E+04</rscale>
<asrwt>0</asrwt>
<pdfrwt beam="1">  1        2 0.10169802E+00 0.15468286E+04</pdfrwt>
<pdfrwt beam="2">  1       -2 0.13921473E+00 0.15468286E+04</pdfrwt>
<totfact> 0.15442843E+01</totfact>
</mgrwt>
</event>
<event>
 6    1  0.1831439E-005  0.3474636E+04  0.7818608E-02  0.8119827E-01
         -2   -1    0    0    0  501 -0.00000000000E+00  0.00000000000E+00  0.10054670150E+04  0.10054670150E+04  0.00000000000E+00 0. -1.
          2   -1    0    0  501    0  0.00000000000E+00 -0.00000000000E+00 -0.30018627946E+04  0.30018627946E+04  0.00000000000E+00 0.  1.
         23    2    1    2    0    0 -0.14181139178E+04 -0.56623946791E+03 -0.46035885075E+02  0.15303199312E+04  0.89919799034E+02 0.  0.
         11    1    3    3    0    0 -0.52113384133E+03 -0.19147258280E+03  0.23677226358E+02  0.55570031635E+03  0.00000000000E+00 0. -1.
        -11    1    3    3    0    0 -0.89698007650E+03 -0.37476688511E+03 -0.69713111433E+02  0.97461961489E+03  0.00000000000E+00 0.  1.
         22    1    1    2    0    0  0.14181139178E+04  0.56623946791E+03 -0.19503598946E+04  0.24770098784E+04  0.00000000000E+00 0.  1.
<mgrwt>
<rscale>  0 0.34746361E+04</rscale>
<asrwt>0</asrwt>
<pdfrwt beam="1">  1        2 0.46182504E+00 0.34746361E+04</pdfrwt>
<pdfrwt beam="2">  1       -2 0.15468723E+00 0.34746361E+04</pdfrwt>
<totfact> 0.39437315E-01</totfact>
</mgrwt>
</event>
<event>
 6    1  0.1831439E-005  0.3145173E+04  0.7818608E-02  0.8203449E-01
         -2   -1    0    0    0  501 -0.00000000000E+00  0.00000000000E+00  0.16748547975E+04  0.16748547975E+04  0.00000000000E+00 0.  1.
          2   -1    0    0  501    0  0.00000000000E+00 -0.00000000000E+00 -0.14765630831E+04  0.14765630831E+04  0.00000000000E+00 0. -1.
         23    2    1    2    0    0 -0.28461146461E+03  0.14363605403E+04  0.67064970534E+03  0.16128284750E+04  0.85494882813E+02 0.  0.
         11    1    3    3    0    0 -0.10561415819E+03  0.58382289115E+03  0.22705521606E+03  0.63526182774E+03  0.00000000000E+00 0.  1.
        -11    1    3    3    0    0 -0.17899730642E+03  0.85253764915E+03  0.44359448928E+03  0.97756664727E+03  0.00000000000E+00 0. -1.
         22    1    1    2    0    0  0.28461146461E+03 -0.14363605403E+04 -0.47235799098E+03  0.15385894056E+04  0.00000000000E+00 0. -1.
<mgrwt>
<rscale>  0 0.31451733E+04</rscale>
<asrwt>0</asrwt>
<pdfrwt beam="1">  1        2 0.22716355E+00 0.31451733E+04</pdfrwt>
<pdfrwt beam="2">  1       -2 0.25766997E+00 0.31451733E+04</pdfrwt>
<totfact> 0.63828563E-01</totfact>
</mgrwt>
</event>
<event>
 6    1  0.1831439E-005  0.2369638E+04  0.7818608E-02  0.8450959E-01
          2   -1    0    0  501    0  0.00000000000E+00  0.00000000000E+00  0.89588945953E+03  0.89588945953E+03  0.00000000000E+00 0. -1.
         -2   -1    0    0    0  501 -0.00000000000E+00 -0.00000000000E+00 -0.15669301201E+04  0.15669301201E+04  0.00000000000E+00 0.  1.
         23    2    1    2    0    0  0.77282757673E+02  0.94058711781E+03 -0.10774841840E+04  0.14352627255E+04  0.91269784742E+02 0.  0.
         13    1    3    3    0    0  0.14394241662E+02  0.99519733205E+02 -0.16038997001E+03  0.18930481761E+03  0.00000000000E+00 0.  1.
        -13    1    3    3    0    0  0.62888516011E+02  0.84106738461E+03 -0.91709421394E+03  0.12459579079E+04  0.00000000000E+00 0. -1.
         22    1    1    2    0    0 -0.77282757673E+02 -0.94058711781E+03  0.40644352340E+03  0.10275568542E+04  0.00000000000E+00 0. -1.
<mgrwt>
<rscale>  0 0.23696381E+04</rscale>
<asrwt>0</asrwt>
<pdfrwt beam="1">  1        2 0.13782915E+00 0.23696381E+04</pdfrwt>
<pdfrwt beam="2">  1       -2 0.24106617E+00 0.23696381E+04</pdfrwt>
<totfact> 0.19404922E+00</totfact>
</mgrwt>
</event>
<event>
 6    1  0.1831439E-005  0.1030768E+04  0.7818608E-02  0.9275428E-01
         -1   -1    0    0    0  501 -0.00000000000E+00  0.00000000000E+00  0.28348729320E+03  0.28348729320E+03  0.00000000000E+00 0.  1.
          1   -1    0    0  501    0  0.00000000000E+00 -0.00000000000E+00 -0.93697578967E+03  0.93697578967E+03  0.00000000000E+00 0. -1.
         23    2    1    2    0    0  0.51073252738E+03 -0.24843859568E+02 -0.33167790499E+03  0.61628844862E+03  0.91303271354E+02 0.  0.
         13    1    3    3    0    0  0.26733047919E+03  0.25498691906E+02 -0.14308235932E+03  0.30428330539E+03  0.00000000000E+00 0.  1.
        -13    1    3    3    0    0  0.24340204819E+03 -0.50342551473E+02 -0.18859554567E+03  0.31200514323E+03  0.00000000000E+00 0. -1.
         22    1    1    2    0    0 -0.51073252738E+03  0.24843859568E+02 -0.32181059148E+03  0.60417463425E+03  0.00000000000E+00 0. -1.
<mgrwt>
<rscale>  0 0.10307681E+04</rscale>
<asrwt>0</asrwt>
<pdfrwt beam="1">  1        1 0.14415012E+00 0.10307681E+04</pdfrwt>
<pdfrwt beam="2">  1       -1 0.43613430E-01 0.10307681E+04</pdfrwt>
<totfact> 0.88159805E+01</totfact>
</mgrwt>
</event>
<event>
 6    1  0.1831439E-005  0.1845108E+04  0.7818608E-02  0.8682673E-01
          2   -1    0    0  501    0  0.00000000000E+00  0.00000000000E+00  0.72040149924E+03  0.72040149924E+03  0.00000000000E+00 0. -1.
         -2   -1    0    0    0  501 -0.00000000000E+00 -0.00000000000E+00 -0.11814324246E+04  0.11814324246E+04  0.00000000000E+00 0.  1.
         23    2    1    2    0    0  0.92026839561E+02 -0.15238783534E+03 -0.11617450541E+04  0.11788600088E+04  0.91478729483E+02 0.  0.
         13    1    3    3    0    0 -0.34893490753E+01 -0.77038796025E+02 -0.38532393691E+03  0.39296525038E+03  0.00000000000E+00 0.  1.
        -13    1    3    3    0    0  0.95516188636E+02 -0.75349039310E+02 -0.77642111721E+03  0.78589475839E+03  0.00000000000E+00 0. -1.
         22    1    1    2    0    0 -0.92026839561E+02  0.15238783534E+03  0.70071412878E+03  0.72297391504E+03  0.00000000000E+00 0. -1.
<mgrwt>
<rscale>  0 0.18451078E+04</rscale>
<asrwt>0</asrwt>
<pdfrwt beam="1">  1        2 0.11083100E+00 0.18451078E+04</pdfrwt>
<pdfrwt beam="2">  1       -2 0.18175883E+00 0.18451078E+04</pdfrwt>
<totfact> 0.65474356E+00</totfact>
</mgrwt>
</event>
<event>
 6    1  0.1831439E-005  0.6525927E+04  0.7818608E-02  0.7628406E-01
          2   -1    0    0  501    0  0.00000000000E+00  0.00000000000E+00  0.24320068864E+04  0.24320068864E+04  0.00000000000E+00 0. -1.
         -2   -1    0    0    0  501 -0.00000000000E+00 -0.00000000000E+00 -0.43778375772E+04  0.43778375772E+04  0.00000000000E+00 0.  1.
         23    2    1    2    0    0 -0.20591562681E+04 -0.67646792157E+02  0.16664810405E+04  0.26512994454E+04  0.86770190786E+02 0.  0.
         13    1    3    3    0    0 -0.16822611289E+04 -0.60887356464E+02  0.14032218176E+04  0.21915157416E+04  0.00000000000E+00 0. -1.
        -13    1    3    3    0    0 -0.37689513915E+03 -0.67594356930E+01  0.26325922286E+03  0.45978370382E+03  0.00000000000E+00 0.  1.
         22    1    1    2    0    0  0.20591562681E+04  0.67646792157E+02 -0.36123117312E+04  0.41585450182E+04  0.00000000000E+00 0.  1.
<mgrwt>
<rscale>  0 0.65259271E+04</rscale>
<asrwt>0</asrwt>
<pdfrwt beam="1">  1        2 0.37415491E+00 0.65259271E+04</pdfrwt>
<pdfrwt beam="2">  1       -2 0.67351346E+00 0.65259271E+04</pdfrwt>
<totfact> 0.70832398E-04</totfact>
</mgrwt>
</event>
<event>
 6    1  0.1831439E-005  0.4607801E+03  0.7818608E-02  0.1024555E+00
         -2   -1    0    0    0  501 -0.00000000000E+00  0.00000000000E+00  0.13990106947E+03  0.13990106947E+03  0.00000000000E+00 0.  1.
          2   -1    0    0  501    0  0.00000000000E+00 -0.00000000000E+00 -0.37940794284E+03  0.37940794284E+03  0.00000000000E+00 0. -1.
         23    2    1    2    0    0 -0.16345741086E+03  0.13003214649E+03 -0.40605928530E+02  0.23088524398E+03  0.89624049053E+02 0.  0.
         13    1    3    3    0    0 -0.11775196598E+01  0.38042385002E+02  0.62028775097E+01  0.38562744957E+02  0.00000000000E+00 0.  1.
        -13    1    3    3    0    0 -0.16227989120E+03  0.91989761488E+02 -0.46808806040E+02  0.19232249902E+03  0.00000000000E+00 0. -1.
         22    1    1    2    0    0  0.16345741086E+03 -0.13003214649E+03 -0.19890094483E+03  0.28842376833E+03  0.00000000000E+00 0. -1.
<mgrwt>
<rscale>  0 0.46078011E+03</rscale>
<asrwt>0</asrwt>
<pdfrwt beam="1">  1        2 0.58370452E-01 0.46078011E+03</pdfrwt>
<pdfrwt beam="2">  1       -2 0.21523242E-01 0.46078011E+03</pdfrwt>
<totfact> 0.15759994E+03</totfact>
</mgrwt>
</event>
<event>
 6    1  0.1831439E-005  0.1522756E+04  0.7818608E-02  0.8869460E-01
         -1   -1    0    0    0  501 -0.00000000000E+00  0.00000000000E+00  0.14099206845E+04  0.14099206845E+04  0.00000000000E+00 0.  1.
          1   -1    0    0  501    0  0.00000000000E+00 -0.00000000000E+00 -0.41115523796E+03  0.41115523796E+03  0.00000000000E+00 0. -1.
         23    2    1    2    0    0 -0.37997375608E+03  0.60251775811E+03  0.81337560304E+03  0.10850208306E+04  0.91008939522E+02 0.  0.
         11    1    3    3    0    0 -0.14533958561E+02  0.58664366123E+02  0.45900017457E+02  0.75891734771E+02  0.00000000000E+00 0. -1.
        -11    1    3    3    0    0 -0.36543979752E+03  0.54385339199E+03  0.76747558559E+03  0.10091290958E+04  0.00000000000E+00 0.  1.
         22    1    1    2    0    0  0.37997375608E+03 -0.60251775811E+03  0.18538984347E+03  0.73605509183E+03  0.00000000000E+00 0. -1.
<mgrwt>
<rscale>  0 0.15227558E+04</rscale>
<asrwt>0</asrwt>
<pdfrwt beam="1">  1        1 0.63254653E-01 0.15227558E+04</pdfrwt>
<pdfrwt beam="2">  1       -1 0.21691087E+00 0.15227558E+04</pdfrwt>
<totfact> 0.64455502E+00</totfact>
</mgrwt>
</event>
<event>
 6    1  0.1831439E-005  0.2487254E+04  0.7818608E-02  0.8407540E-01
          1   -1    0    0  501    0  0.00000000000E+00  0.00000000000E+00  0.15823499881E+04  0.15823499881E+04  0.00000000000E+00 0. -1.
         -1   -1    0    0    0  501 -0.00000000000E+00 -0.00000000000E+00 -0.97741217513E+03  0.97741217513E+03  0.00000000000E+00 0.  1.
         23    2    1    2    0    0 -0.88195031656E+03  0.74307853640E+03  0.77726861707E+03  0.13937004246E+04  0.90842161420E+02 0.  0.
         11    1    3    3    0    0 -0.17108938645E+03  0.19323263927E+03  0.17848661815E+03  0.31379595901E+03  0.00000000000E+00 0. -1.
        -11    1    3    3    0    0 -0.71086093011E+03  0.54984589714E+03  0.59878199893E+03  0.10799044656E+04  0.00000000000E+00 0.  1.
         22    1    1    2    0    0  0.88195031656E+03 -0.74307853640E+03 -0.17233080414E+03  0.11660617386E+04  0.00000000000E+00 0. -1.
<mgrwt>
<rscale>  0 0.24872540E+04</rscale>
<asrwt>0</asrwt>
<pdfrwt beam="1">  1        1 0.24343846E+00 0.24872540E+04</pdfrwt>
<pdfrwt beam="2">  1       -1 0.15037110E+00 0.24872540E+04</pdfrwt>
<totfact> 0.17688281E+00</totfact>
</mgrwt>
</event>
<event>
 6    1  0.1831439E-005  0.2022759E+04  0.7818608E-02  0.8596054E-01
         -1   -1    0    0    0  501 -0.00000000000E+00  0.00000000000E+00  0.10303546684E+04  0.10303546684E+04  0.00000000000E+00 0.  1.
          1   -1    0    0  501    0  0.00000000000E+00 -0.00000000000E+00 -0.99275354319E+03  0.99275354319E+03  0.00000000000E+00 0. -1.
         23    2    1    2    0    0 -0.78012030081E+03 -0.55779444009E+03 -0.29612326812E+03  0.10076800793E+04  0.89486485579E+02 0.  0.
         13    1    3    3    0    0 -0.39917660775E+03 -0.24605086794E+03 -0.11180942890E+03  0.48206259156E+03  0.00000000000E+00 0.  1.
        -13    1    3    3    0    0 -0.38094369306E+03 -0.31174357215E+03 -0.18431383922E+03  0.52561748771E+03  0.00000000000E+00 0. -1.
         22    1    1    2    0    0  0.78012030081E+03  0.55779444009E+03  0.33372439329E+03  0.10154281323E+04  0.00000000000E+00 0. -1.
<mgrwt>
<rscale>  0 0.20227588E+04</rscale>
<asrwt>0</asrwt>
<pdfrwt beam="1">  1        1 0.15273131E+00 0.20227588E+04</pdfrwt>
<pdfrwt beam="2">  1       -1 0.15851610E+00 0.20227588E+04</pdfrwt>
<totfact> 0.42572436E+00</totfact>
</mgrwt>
</event>
<event>
 6    1  0.1831439E-005  0.2006345E+04  0.7818608E-02  0.8603660E-01
         -1   -1    0    0    0  501 -0.00000000000E+00  0.00000000000E+00  0.49982201633E+03  0.49982201633E+03  0.00000000000E+00 0.  1.
          1   -1    0    0  501    0  0.00000000000E+00 -0.00000000000E+00 -0.20134269163E+04  0.20134269163E+04  0.00000000000E+00 0. -1.
         23    2    1    2    0    0  0.21203574197E+01 -0.45364117628E+03 -0.18762458644E+04  0.19324707635E+04  0.91377760605E+02 0.  0.
         11    1    3    3    0    0  0.46394261658E+02 -0.22197991967E+03 -0.94238842802E+03  0.96929018437E+03  0.00000000000E+00 0.  1.
        -11    1    3    3    0    0 -0.44273904239E+02 -0.23166125661E+03 -0.93385743641E+03  0.96318057910E+03  0.00000000000E+00 0. -1.
         22    1    1    2    0    0 -0.21203574197E+01  0.45364117628E+03  0.36264096443E+03  0.58077816920E+03  0.00000000000E+00 0.  1.
<mgrwt>
<rscale>  0 0.20063450E+04</rscale>
<asrwt>0</asrwt>
<pdfrwt beam="1">  1        1 0.30975799E+00 0.20063450E+04</pdfrwt>
<pdfrwt beam="2">  1       -1 0.76895695E-01 0.20063450E+04</pdfrwt>
<totfact> 0.45895679E+00</totfact>
</mgrwt>
</event>
<event>
 6    1  0.1831439E-005  0.1273486E+04  0.7818608E-02  0.9050860E-01
         -2   -1    0    0    0  501 -0.00000000000E+00  0.00000000000E+00  0.31606082072E+03  0.31606082072E+03  0.00000000000E+00 0.  1.
          2   -1    0    0  501    0  0.00000000000E+00 -0.00000000000E+00 -0.12827953360E+04  0.12827953360E+04  0.00000000000E+00 0. -1.
         23    2    1    2    0    0  0.58164332084E+03  0.19272148085E+03 -0.28376164755E+03  0.68130372775E+03  0.90573588658E+02 0.  0.
         11    1    3    3    0    0  0.33217682909E+03  0.77923379829E+02 -0.12062627830E+03  0.36188975936E+03  0.00000000000E+00 0. -1.
        -11    1    3    3    0    0  0.24946649174E+03  0.11479810102E+03 -0.16313536925E+03  0.31941396839E+03  0.00000000000E+00 0.  1.
         22    1    1    2    0    0 -0.58164332084E+03 -0.19272148085E+03 -0.68297286773E+03  0.91755242897E+03  0.00000000000E+00 0. -1.
<mgrwt>
<rscale>  0 0.12734855E+04</rscale>
<asrwt>0</asrwt>
<pdfrwt beam="1">  1        2 0.19735313E+00 0.12734855E+04</pdfrwt>
<pdfrwt beam="2">  1       -2 0.48624742E-01 0.12734855E+04</pdfrwt>
<totfact> 0.66525494E+01</totfact>
</mgrwt>
</event>
<event>
 6    1  0.1831439E-005  0.1800131E+04  0.7818608E-02  0.8706230E-01
          1   -1    0    0  501    0  0.00000000000E+00  0.00000000000E+00  0.18004816726E+04  0.18004816726E+04  0.00000000000E+00 0. -1.
         -1   -1    0    0    0  501 -0.00000000000E+00 -0.00000000000E+00 -0.44994490868E+03  0.44994490868E+03  0.00000000000E+00 0.  1.
         23    2    1    2    0    0 -0.18049258157E+03  0.73110271856E+03  0.12878123084E+04  0.14947658674E+04  0.93678704140E+02 0.  0.
         11    1    3    3    0    0 -0.18384677609E+03  0.70226448706E+03  0.12621312340E+04  0.14560049103E+04  0.00000000000E+00 0. -1.
        -11    1    3    3    0    0  0.33541945248E+01  0.28838231497E+02  0.25681074427E+02  0.38760957167E+02  0.00000000000E+00 0.  1.
         22    1    1    2    0    0  0.18049258157E+03 -0.73110271856E+03  0.62724455450E+02  0.75566071381E+03  0.00000000000E+00 0.  1.
<mgrwt>
<rscale>  0 0.18001306E+04</rscale>
<asrwt>0</asrwt>
<pdfrwt beam="1">  1        1 0.27699718E+00 0.18001306E+04</pdfrwt>
<pdfrwt beam="2">  1       -1 0.69222295E-01 0.18001306E+04</pdfrwt>
<totfact> 0.81092992E+00</totfact>
</mgrwt>
</event>
<event>
 6    1  0.3272255E-005  0.2830743E+04  0.7818608E-02  0.8293787E-01
         -2   -1    0    0    0  501 -0.00000000000E+00  0.00000000000E+00  0.12735502265E+04  0.12735502265E+04  0.00000000000E+00 0. -1.
          2   -1    0    0  501    0  0.00000000000E+00 -0.00000000000E+00 -0.15729859875E+04  0.15729859875E+04  0.00000000000E+00 0.  1.
         23    2    1    2    0    0  0.42121622371E+03  0.12268134701E+04  0.41563683431E+03  0.13653801742E+04  0.94945482169E+02 0.  0.
         11    1    3    3    0    0  0.19125149847E+03  0.61132801722E+03  0.25145678590E+03  0.68813486722E+03  0.00000000000E+00 0. -1.
        -11    1    3    3    0    0  0.22996472524E+03  0.61548545290E+03  0.16418004841E+03  0.67724530702E+03  0.00000000000E+00 0.  1.
         22    1    1    2    0    0 -0.42121622371E+03 -0.12268134701E+04 -0.71507259535E+03  0.14811560398E+04  0.00000000000E+00 0.  1.
<mgrwt>
<rscale>  0 0.28307431E+04</rscale>
<asrwt>0</asrwt>
<pdfrwt beam="1">  1        2 0.24199784E+00 0.28307431E+04</pdfrwt>
<pdfrwt beam="2">  1       -2 0.19593081E+00 0.28307431E+04</pdfrwt>
<totfact> 0.14183177E+00</totfact>
</mgrwt>
</event>
<event>
 6    1  0.1831439E-005  0.6395287E+03  0.7818608E-02  0.9826629E-01
          2   -1    0    0  501    0  0.00000000000E+00  0.00000000000E+00  0.21535320945E+04  0.21535320945E+04  0.00000000000E+00 0. -1.
         -2   -1    0    0    0  501 -0.00000000000E+00 -0.00000000000E+00 -0.47479780290E+02  0.47479780290E+02  0.00000000000E+00 0.  1.
         23    2    1    2    0    0  0.21322084605E+03  0.22654744726E+03  0.96243042157E+03  0.10158292271E+04  0.94073520360E+02 0.  0.
         11    1    3    3    0    0  0.63945266063E+02  0.12136082444E+03  0.50487244063E+03  0.52317647889E+03  0.00000000000E+00 0.  1.
        -11    1    3    3    0    0  0.14927557998E+03  0.10518662282E+03  0.45755798094E+03  0.49265274821E+03  0.00000000000E+00 0. -1.
         22    1    1    2    0    0 -0.21322084605E+03 -0.22654744726E+03  0.11436218927E+04  0.11851826477E+04  0.00000000000E+00 0.  1.
<mgrwt>
<rscale>  0 0.63952867E+03</rscale>
<asrwt>0</asrwt>
<pdfrwt beam="1">  1        2 0.33131255E+00 0.63952867E+03</pdfrwt>
<pdfrwt beam="2">  1       -2 0.73045832E-02 0.63952867E+03</pdfrwt>
<totfact> 0.64623874E+02</totfact>
</mgrwt>
</event>
<event>
 6    1  0.1831439E-005  0.4920912E+04  0.7818608E-02  0.7840824E-01
         -2   -1    0    0    0  501 -0.00000000000E+00  0.00000000000E+00  0.19459266163E+04  0.19459266163E+04  0.00000000000E+00 0.  1.
          2   -1    0    0  501    0  0.00000000000E+00 -0.00000000000E+00 -0.31110339908E+04  0.31110339908E+04  0.00000000000E+00 0. -1.
         23    2    1    2    0    0 -0.21077742150E+04 -0.11717711523E+04 -0.85922104815E+02  0.24149158267E+04  0.93145407149E+02 0.  0.
         11    1    3    3    0    0 -0.11018343675E+03 -0.85342981750E+02  0.19459311282E+00  0.13936948064E+03  0.00000000000E+00 0.  1.
        -11    1    3    3    0    0 -0.19975907783E+04 -0.10864281706E+04 -0.86116697928E+02  0.22755463460E+04  0.00000000000E+00 0. -1.
         22    1    1    2    0    0  0.21077742150E+04  0.11717711523E+04 -0.10791852697E+04  0.26420447803E+04  0.00000000000E+00 0. -1.
<mgrwt>
<rscale>  0 0.49209120E+04</rscale>
<asrwt>0</asrwt>
<pdfrwt beam="1">  1        2 0.47862061E+00 0.49209120E+04</pdfrwt>
<pdfrwt beam="2">  1       -2 0.29937333E+00 0.49209120E+04</pdfrwt>
<totfact> 0.34754959E-02</totfact>
</mgrwt>
</event>
<event>
 6    1  0.1831439E-005  0.2211683E+04  0.7818608E-02  0.8513581E-01
          2   -1    0    0  501    0  0.00000000000E+00  0.00000000000E+00  0.28578875103E+04  0.28578875103E+04  0.00000000000E+00 0. -1.
         -2   -1    0    0    0  501 -0.00000000000E+00 -0.00000000000E+00 -0.42789829036E+03  0.42789829036E+03  0.00000000000E+00 0.  1.
         23    2    1    2    0    0  0.57803733969E+03  0.42140658770E+03  0.24660897118E+04  0.25695358975E+04  0.95945731642E+02 0.  0.
         11    1    3    3    0    0  0.35907135982E+03  0.31155865685E+03  0.17010639543E+04  0.17662444946E+04  0.00000000000E+00 0. -1.
        -11    1    3    3    0    0  0.21896597987E+03  0.10984793086E+03  0.76502575751E+03  0.80329140286E+03  0.00000000000E+00 0.  1.
         22    1    1    2    0    0 -0.57803733969E+03 -0.42140658770E+03 -0.36100491919E+02  0.71624990314E+03  0.00000000000E+00 0.  1.
<mgrwt>
<rscale>  0 0.22116828E+04</rscale>
<asrwt>0</asrwt>
<pdfrwt beam="1">  1        2 0.43967499E+00 0.22116828E+04</pdfrwt>
<pdfrwt beam="2">  1       -2 0.65830508E-01 0.22116828E+04</pdfrwt>
<totfact> 0.41391952E+00</totfact>
</mgrwt>
</event>
<event>
 6    1  0.1831439E-005  0.3009870E+04  0.7818608E-02  0.8240918E-01
         -1   -1    0    0    0  501 -0.00000000000E+00  0.00000000000E+00  0.75098203779E+03  0.75098203779E+03  0.00000000000E+00 0. -1.
          1   -1    0    0  501    0  0.00000000000E+00 -0.00000000000E+00 -0.30158230722E+04  0.30158230722E+04  0.00000000000E+00 0.  1.
         23    2    1    2    0    0  0.10774773471E+04 -0.47024331488E+03 -0.23064117769E+04  0.25904487289E+04  0.93824964852E+02 0.  0.
         13    1    3    3    0    0  0.37079532303E+03 -0.11377481886E+03 -0.76149432702E+03  0.85458030112E+03  0.00000000000E+00 0. -1.
        -13    1    3    3    0    0  0.70668202406E+03 -0.35646849603E+03 -0.15449174499E+04  0.17358684278E+04  0.00000000000E+00 0.  1.
         22    1    1    2    0    0 -0.10774773471E+04  0.47024331488E+03  0.41570742434E+02  0.11763563811E+04  0.00000000000E+00 0. -1.
<mgrwt>
<rscale>  0 0.30098697E+04</rscale>
<asrwt>0</asrwt>
<pdfrwt beam="1">  1        1 0.46397278E+00 0.30098697E+04</pdfrwt>
<pdfrwt beam="2">  1       -1 0.11553570E+00 0.30098697E+04</pdfrwt>
<totfact> 0.33568448E-01</totfact>
</mgrwt>
</event>
<event>
 6    1  0.1831439E-005  0.4587804E+04  0.7818608E-02  0.7895443E-01
          2   -1    0    0  501    0  0.00000000000E+00  0.00000000000E+00  0.21703969230E+04  0.21703969230E+04  0.00000000000E+00 0. -1.
         -2   -1    0    0    0  501 -0.00000000000E+00 -0.00000000000E+00 -0.24244349285E+04  0.24244349285E+04  0.00000000000E+00 0.  1.
         23    2    1    2    0    0 -0.14408994335E+04 -0.17227360338E+04  0.33605293973E+03  0.22727168795E+04  0.91103328594E+02 0.  0.
         11    1    3    3    0    0 -0.13044306997E+04 -0.15959893527E+04  0.31739849703E+03  0.20855366864E+04  0.00000000000E+00 0.  1.
        -11    1    3    3    0    0 -0.13646873379E+03 -0.12674668115E+03  0.18654442704E+02  0.18718019317E+03  0.00000000000E+00 0. -1.
         22    1    1    2    0    0  0.14408994335E+04  0.17227360338E+04 -0.59009094525E+03  0.23221149720E+04  0.00000000000E+00 0.  1.
<mgrwt>
<rscale>  0 0.45878039E+04</rscale>
<asrwt>0</asrwt>
<pdfrwt beam="1">  1        2 0.33390722E+00 0.45878039E+04</pdfrwt>
<pdfrwt beam="2">  1       -2 0.37298999E+00 0.45878039E+04</pdfrwt>
<totfact> 0.44845718E-02</totfact>
</mgrwt>
</event>
<event>
 6    1  0.1831439E-005  0.2951020E+04  0.7818608E-02  0.8257857E-01
         -2   -1    0    0    0  501 -0.00000000000E+00  0.00000000000E+00  0.11093566385E+04  0.11093566385E+04  0.00000000000E+00 0.  1.
          2   -1    0    0  501    0  0.00000000000E+00 -0.00000000000E+00 -0.19625152283E+04  0.19625152283E+04  0.00000000000E+00 0. -1.
         23    2    1    2    0    0 -0.51373622836E+03 -0.56414613129E+03 -0.17400580538E+04  0.19019246761E+04  0.85613510126E+02 0.  0.
         13    1    3    3    0    0 -0.33566973416E+03 -0.30736856075E+03 -0.10521187573E+04  0.11463435271E+04  0.00000000000E+00 0.  1.
        -13    1    3    3    0    0 -0.17806649420E+03 -0.25677757053E+03 -0.68793929648E+03  0.75558114900E+03  0.00000000000E+00 0. -1.
         22    1    1    2    0    0  0.51373622836E+03  0.56414613129E+03  0.88689946397E+03  0.11699471907E+04  0.00000000000E+00 0.  1.
<mgrwt>
<rscale>  0 0.29510197E+04</rscale>
<asrwt>0</asrwt>
<pdfrwt beam="1">  1        2 0.30192542E+00 0.29510197E+04</pdfrwt>
<pdfrwt beam="2">  1       -2 0.17067025E+00 0.29510197E+04</pdfrwt>
<totfact> 0.12701654E+00</totfact>
</mgrwt>
</event>
<event>
 6    1  0.1831439E-005  0.1307853E+04  0.7818608E-02  0.9023360E-01
         -2   -1    0    0    0  501 -0.00000000000E+00  0.00000000000E+00  0.10888364675E+04  0.10888364675E+04  0.00000000000E+00 0.  1.
          2   -1    0    0  501    0  0.00000000000E+00 -0.00000000000E+00 -0.39273127620E+03  0.39273127620E+03  0.00000000000E+00 0. -1.
         23    2    1    2    0    0  0.17863717955E+03  0.62211059305E+03  0.42543458891E+03  0.78000134848E+03  0.92058037620E+02 0.  0.
         13    1    3    3    0    0  0.11125090257E+03  0.22851683167E+03  0.17672667225E+03  0.30956263076E+03  0.00000000000E+00 0. -1.
        -13    1    3    3    0    0  0.67386276986E+02  0.39359376138E+03  0.24870791666E+03  0.47043871772E+03  0.00000000000E+00 0.  1.
         22    1    1    2    0    0 -0.17863717955E+03 -0.62211059305E+03  0.27067060239E+03  0.70156639522E+03  0.00000000000E+00 0.  1.
<mgrwt>
<rscale>  0 0.13078534E+04</rscale>
<asrwt>0</asrwt>
<pdfrwt beam="1">  1        2 0.60420197E-01 0.13078534E+04</pdfrwt>
<pdfrwt beam="2">  1       -2 0.16751330E+00 0.13078534E+04</pdfrwt>
<totfact> 0.17638323E+01</totfact>
</mgrwt>
</event>
<event>
 6    1  0.1831439E-005  0.2046661E+04  0.7818608E-02  0.8585111E-01
         -2   -1    0    0    0  501 -0.00000000000E+00  0.00000000000E+00  0.74803810942E+03  0.74803810942E+03  0.00000000000E+00 0.  1.
          2   -1    0    0  501    0  0.00000000000E+00 -0.00000000000E+00 -0.13999359486E+04  0.13999359486E+04  0.00000000000E+00 0. -1.
         23    2    1    2    0    0 -0.99665258674E+03  0.22312532626E+03 -0.33225526481E+03  0.10777999295E+04  0.90320746330E+02 0.  0.
         11    1    3    3    0    0 -0.91495760209E+03  0.22391092979E+03 -0.28864363255E+03  0.98518965927E+03  0.00000000000E+00 0. -1.
        -11    1    3    3    0    0 -0.81694984650E+02 -0.78560353837E+00 -0.43611632262E+02  0.92610270264E+02  0.00000000000E+00 0.  1.
         22    1    1    2    0    0  0.99665258674E+03 -0.22312532626E+03 -0.31964257433E+03  0.10701741285E+04  0.00000000000E+00 0.  1.
<mgrwt>
<rscale>  0 0.20466611E+04</rscale>
<asrwt>0</asrwt>
<pdfrwt beam="1">  1        2 0.21537476E+00 0.20466611E+04</pdfrwt>
<pdfrwt beam="2">  1       -2 0.11508279E+00 0.20466611E+04</pdfrwt>
<totfact> 0.78855488E+00</totfact>
</mgrwt>
</event>
<event>
 6    1  0.1831439E-005  0.2590617E+04  0.7818608E-02  0.8371395E-01
         -2   -1    0    0    0  501 -0.00000000000E+00  0.00000000000E+00  0.15643858553E+04  0.15643858553E+04  0.00000000000E+00 0.  1.
          2   -1    0    0  501    0  0.00000000000E+00 -0.00000000000E+00 -0.10725131871E+04  0.10725131871E+04  0.00000000000E+00 0. -1.
         23    2    1    2    0    0  0.85439062399E+03  0.28349196246E+03  0.11921251978E+04  0.14964146557E+04  0.87996042565E+02 0.  0.
         11    1    3    3    0    0  0.20475491455E+03  0.47415486395E+02  0.33266433396E+03  0.39349506029E+03  0.00000000000E+00 0. -1.
        -11    1    3    3    0    0  0.64963570944E+03  0.23607647606E+03  0.85946086380E+03  0.11029195954E+04  0.00000000000E+00 0.  1.
         22    1    1    2    0    0 -0.85439062399E+03 -0.28349196246E+03 -0.70025252959E+03  0.11404843867E+04  0.00000000000E+00 0. -1.
<mgrwt>
<rscale>  0 0.25906173E+04</rscale>
<asrwt>0</asrwt>
<pdfrwt beam="1">  1        2 0.16500203E+00 0.25906173E+04</pdfrwt>
<pdfrwt beam="2">  1       -2 0.24067474E+00 0.25906173E+04</pdfrwt>
<totfact> 0.14715432E+00</totfact>
</mgrwt>
</event>
<event>
 6    1  0.1831439E-005  0.8107445E+03  0.7818608E-02  0.9544594E-01
          1   -1    0    0  501    0  0.00000000000E+00  0.00000000000E+00  0.26818216044E+03  0.26818216044E+03  0.00000000000E+00 0. -1.
         -1   -1    0    0    0  501 -0.00000000000E+00 -0.00000000000E+00 -0.61274265638E+03  0.61274265638E+03  0.00000000000E+00 0.  1.
         23    2    1    2    0    0  0.30247687072E+03 -0.21714909989E+03 -0.18916333278E+02  0.38626320563E+03  0.10097250840E+03 0.  0.
         11    1    3    3    0    0  0.19218399359E+03 -0.88978411648E+02 -0.41062781025E+02  0.21572667224E+03  0.00000000000E+00 0.  1.
        -11    1    3    3    0    0  0.11029287713E+03 -0.12817068825E+03  0.22146447747E+02  0.17053653339E+03  0.00000000000E+00 0. -1.
         22    1    1    2    0    0 -0.30247687072E+03  0.21714909989E+03 -0.32564416267E+03  0.49466161119E+03  0.00000000000E+00 0.  1.
<mgrwt>
<rscale>  0 0.81074447E+03</rscale>
<asrwt>0</asrwt>
<pdfrwt beam="1">  1        1 0.41258794E-01 0.81074447E+03</pdfrwt>
<pdfrwt beam="2">  1       -1 0.94268101E-01 0.81074447E+03</pdfrwt>
<totfact> 0.11192842E+02</totfact>
</mgrwt>
</event>
<event>
 6    1  0.1831439E-005  0.3490822E+04  0.7818608E-02  0.8115968E-01
         -2   -1    0    0    0  501 -0.00000000000E+00  0.00000000000E+00  0.73032812453E+03  0.73032812453E+03  0.00000000000E+00 0.  1.
          2   -1    0    0  501    0  0.00000000000E+00 -0.00000000000E+00 -0.41713572193E+04  0.41713572193E+04  0.00000000000E+00 0. -1.
         23    2    1    2    0    0 -0.13442052442E+04 -0.84270589501E+03 -0.70370274211E+03  0.17378274891E+04  0.88350825902E+02 0.  0.
         11    1    3    3    0    0 -0.87530206555E+03 -0.55223820949E+03 -0.41281044749E+03  0.11142410922E+04  0.00000000000E+00 0. -1.
        -11    1    3    3    0    0 -0.46890317869E+03 -0.29046768552E+03 -0.29089229463E+03  0.62358639690E+03  0.00000000000E+00 0.  1.
         22    1    1    2    0    0  0.13442052442E+04  0.84270589501E+03 -0.27373263527E+04  0.31638578548E+04  0.00000000000E+00 0. -1.
<mgrwt>
<rscale>  0 0.34908220E+04</rscale>
<asrwt>0</asrwt>
<pdfrwt beam="1">  1        2 0.64174725E+00 0.34908220E+04</pdfrwt>
<pdfrwt beam="2">  1       -2 0.11235818E+00 0.34908220E+04</pdfrwt>
<totfact> 0.12591427E-01</totfact>
</mgrwt>
</event>
<event>
 6    1  0.1831439E-005  0.3172308E+04  0.7818608E-02  0.8196169E-01
         -2   -1    0    0    0  501 -0.00000000000E+00  0.00000000000E+00  0.12309314075E+04  0.12309314075E+04  0.00000000000E+00 0.  1.
          2   -1    0    0  501    0  0.00000000000E+00 -0.00000000000E+00 -0.20438867525E+04  0.20438867525E+04  0.00000000000E+00 0. -1.
         23    2    1    2    0    0  0.10039401895E+04  0.12249353533E+04 -0.34737211991E+03  0.16240213029E+04  0.91734827888E+02 0.  0.
         13    1    3    3    0    0  0.29266736703E+03  0.39287867155E+03 -0.14422889993E+03  0.51069542181E+03  0.00000000000E+00 0. -1.
        -13    1    3    3    0    0  0.71127282243E+03  0.83205668176E+03 -0.20314321998E+03  0.11133258811E+04  0.00000000000E+00 0.  1.
         22    1    1    2    0    0 -0.10039401895E+04 -0.12249353533E+04 -0.46558322511E+03  0.16507968571E+04  0.00000000000E+00 0. -1.
<mgrwt>
<rscale>  0 0.31723079E+04</rscale>
<asrwt>0</asrwt>
<pdfrwt beam="1">  1        2 0.31444411E+00 0.31723079E+04</pdfrwt>
<pdfrwt beam="2">  1       -2 0.18937406E+00 0.31723079E+04</pdfrwt>
<totfact> 0.83427656E-01</totfact>
</mgrwt>
</event>
<event>
 6    1  0.1831439E-005  0.3915417E+04  0.7818608E-02  0.8021830E-01
         -2   -1    0    0    0  501 -0.00000000000E+00  0.00000000000E+00  0.90384007223E+03  0.90384007223E+03  0.00000000000E+00 0.  1.
          2   -1    0    0  501    0  0.00000000000E+00 -0.00000000000E+00 -0.42403773345E+04  0.42403773345E+04  0.00000000000E+00 0. -1.
         23    2    1    2    0    0 -0.16240357430E+04  0.79716462626E+03 -0.68995278283E+03  0.19383832028E+04  0.91274654020E+02 0.  0.
         11    1    3    3    0    0 -0.47833684773E+03  0.18896750428E+03 -0.19512631789E+03  0.55008102813E+03  0.00000000000E+00 0. -1.
        -11    1    3    3    0    0 -0.11456988953E+04  0.60819712198E+03 -0.49482646494E+03  0.13883021747E+04  0.00000000000E+00 0.  1.
         22    1    1    2    0    0  0.16240357430E+04 -0.79716462626E+03 -0.26465844794E+04  0.32058342039E+04  0.00000000000E+00 0.  1.
<mgrwt>
<rscale>  0 0.39154172E+04</rscale>
<asrwt>0</asrwt>
<pdfrwt beam="1">  1        2 0.65236573E+00 0.39154172E+04</pdfrwt>
<pdfrwt beam="2">  1       -2 0.13905232E+00 0.39154172E+04</pdfrwt>
<totfact> 0.61937086E-02</totfact>
</mgrwt>
</event>
<event>
 6    1  0.1831439E-005  0.6164963E+04  0.7818608E-02  0.7670278E-01
          1   -1    0    0  501    0  0.00000000000E+00  0.00000000000E+00  0.41529355140E+04  0.41529355140E+04  0.00000000000E+00 0. -1.
         -1   -1    0    0    0  501 -0.00000000000E+00 -0.00000000000E+00 -0.22879461534E+04  0.22879461534E+04  0.00000000000E+00 0.  1.
         23    2    1    2    0    0  0.13699077323E+03 -0.12885090449E+04  0.38540599585E+04  0.40669768937E+04  0.86607501552E+02 0.  0.
         11    1    3    3    0    0  0.65638132850E+02 -0.38877265607E+03  0.12730635450E+04  0.13327202753E+04  0.00000000000E+00 0. -1.
        -11    1    3    3    0    0  0.71352640381E+02 -0.89973638888E+03  0.25809964134E+04  0.27342566183E+04  0.00000000000E+00 0.  1.
         22    1    1    2    0    0 -0.13699077323E+03  0.12885090449E+04 -0.19890705979E+04  0.23739047737E+04  0.00000000000E+00 0.  1.
<mgrwt>
<rscale>  0 0.61649632E+04</rscale>
<asrwt>0</asrwt>
<pdfrwt beam="1">  1        1 0.63891316E+00 0.61649632E+04</pdfrwt>
<pdfrwt beam="2">  1       -1 0.35199172E+00 0.61649632E+04</pdfrwt>
<totfact> 0.69172728E-04</totfact>
</mgrwt>
</event>
<event>
 6    1  0.1831439E-005  0.3998378E+04  0.7818608E-02  0.8004874E-01
         -2   -1    0    0    0  501 -0.00000000000E+00  0.00000000000E+00  0.24555950509E+04  0.24555950509E+04  0.00000000000E+00 0.  1.
          2   -1    0    0  501    0  0.00000000000E+00 -0.00000000000E+00 -0.16276120317E+04  0.16276120317E+04  0.00000000000E+00 0. -1.
         23    2    1    2    0    0 -0.82561854346E+03  0.14445509699E+04 -0.71569705480E+03  0.18135547624E+04  0.91570289337E+02 0.  0.
         11    1    3    3    0    0 -0.16366248881E+03  0.31743764716E+03 -0.19143185793E+03  0.40521380321E+03  0.00000000000E+00 0.  1.
        -11    1    3    3    0    0 -0.66195605465E+03  0.11271133228E+04 -0.52426519687E+03  0.14083409592E+04  0.00000000000E+00 0. -1.
         22    1    1    2    0    0  0.82561854346E+03 -0.14445509699E+04  0.15436800740E+04  0.22696523202E+04  0.00000000000E+00 0.  1.
<mgrwt>
<rscale>  0 0.39983777E+04</rscale>
<asrwt>0</asrwt>
<pdfrwt beam="1">  1        2 0.25040185E+00 0.39983777E+04</pdfrwt>
<pdfrwt beam="2">  1       -2 0.37778386E+00 0.39983777E+04</pdfrwt>
<totfact> 0.87824279E-02</totfact>
</mgrwt>
</event>
<event>
 6    1  0.1831439E-005  0.1170226E+04  0.7818608E-02  0.9139324E-01
         -1   -1    0    0    0  501 -0.00000000000E+00  0.00000000000E+00  0.90521996628E+03  0.90521996628E+03  0.00000000000E+00 0.  1.
          1   -1    0    0  501    0  0.00000000000E+00 -0.00000000000E+00 -0.37820336911E+03  0.37820336911E+03  0.00000000000E+00 0. -1.
         23    2    1    2    0    0 -0.34545822838E+03 -0.25711728225E+03  0.69382345683E+03  0.82160604163E+03  0.90525212011E+02 0.  0.
         13    1    3    3    0    0 -0.15504891634E+03 -0.14973330755E+03  0.27747563215E+03  0.35135872877E+03  0.00000000000E+00 0.  1.
        -13    1    3    3    0    0 -0.19040931205E+03 -0.10738397470E+03  0.41634782468E+03  0.47024731286E+03  0.00000000000E+00 0. -1.
         22    1    1    2    0    0  0.34545822838E+03  0.25711728225E+03 -0.16680685966E+03  0.46181729376E+03  0.00000000000E+00 0. -1.
<mgrwt>
<rscale>  0 0.11702260E+04</rscale>
<asrwt>0</asrwt>
<pdfrwt beam="1">  1        1 0.58185134E-01 0.11702260E+04</pdfrwt>
<pdfrwt beam="2">  1       -1 0.13926461E+00 0.11702260E+04</pdfrwt>
<totfact> 0.27250037E+01</totfact>
</mgrwt>
</event>
<event>
 6    1  0.1831439E-005  0.2614679E+04  0.7818608E-02  0.8363232E-01
          2   -1    0    0  501    0  0.00000000000E+00  0.00000000000E+00  0.83915358605E+03  0.83915358605E+03  0.00000000000E+00 0. -1.
         -2   -1    0    0    0  501 -0.00000000000E+00 -0.00000000000E+00 -0.20367390358E+04  0.20367390358E+04  0.00000000000E+00 0.  1.
         23    2    1    2    0    0 -0.12209880819E+04 -0.46257008911E+03 -0.58888595716E+03  0.14353031398E+04  0.92333358009E+02 0.  0.
         11    1    3    3    0    0 -0.10224314885E+04 -0.40115323088E+03 -0.52861194594E+03  0.12189014123E+04  0.00000000000E+00 0.  1.
        -11    1    3    3    0    0 -0.19855659337E+03 -0.61416858230E+02 -0.60274011221E+02  0.21640172752E+03  0.00000000000E+00 0. -1.
         22    1    1    2    0    0  0.12209880819E+04  0.46257008911E+03 -0.60869949258E+03  0.14405894821E+04  0.00000000000E+00 0. -1.
<mgrwt>
<rscale>  0 0.26146792E+04</rscale>
<asrwt>0</asrwt>
<pdfrwt beam="1">  1        2 0.12910055E+00 0.26146792E+04</pdfrwt>
<pdfrwt beam="2">  1       -2 0.31334446E+00 0.26146792E+04</pdfrwt>
<totfact> 0.75112796E-01</totfact>
</mgrwt>
</event>
<event>
 6    1  0.1831439E-005  0.4175545E+04  0.7818608E-02  0.7970040E-01
          2   -1    0    0  501    0  0.00000000000E+00  0.00000000000E+00  0.31523388007E+04  0.31523388007E+04  0.00000000000E+00 0.  1.
         -2   -1    0    0    0  501 -0.00000000000E+00 -0.00000000000E+00 -0.13827177874E+04  0.13827177874E+04  0.00000000000E+00 0. -1.
         23    2    1    2    0    0  0.99896658991E+03 -0.16279710600E+04 -0.27579853918E+02  0.19124329061E+04  0.91733047853E+02 0.  0.
         13    1    3    3    0    0  0.34820668533E+03 -0.65130309241E+03 -0.19112560416E+02  0.73878880870E+03  0.00000000000E+00 0. -1.
        -13    1    3    3    0    0  0.65075990458E+03 -0.97666796757E+03 -0.84672935020E+01  0.11736440974E+04  0.00000000000E+00 0.  1.
         22    1    1    2    0    0 -0.99896658991E+03  0.16279710600E+04  0.17972008673E+04  0.26226236820E+04  0.00000000000E+00 0.  1.
<mgrwt>
<rscale>  0 0.41755454E+04</rscale>
<asrwt>0</asrwt>
<pdfrwt beam="1">  1        2 0.48497520E+00 0.41755454E+04</pdfrwt>
<pdfrwt beam="2">  1       -2 0.21272581E+00 0.41755454E+04</pdfrwt>
<totfact> 0.11902100E-01</totfact>
</mgrwt>
</event>
<event>
 6    1  0.1831439E-005  0.1985868E+04  0.7818608E-02  0.8613257E-01
          2   -1    0    0  501    0  0.00000000000E+00  0.00000000000E+00  0.15957297051E+04  0.15957297051E+04  0.00000000000E+00 0. -1.
         -2   -1    0    0    0  501 -0.00000000000E+00 -0.00000000000E+00 -0.61784764723E+03  0.61784764723E+03  0.00000000000E+00 0.  1.
         23    2    1    2    0    0  0.21736479745E+03  0.91960621512E+02  0.15626352419E+04  0.15829899299E+04  0.91235999656E+02 0.  0.
         13    1    3    3    0    0  0.16741267511E+03  0.74108302525E+02  0.91195911477E+03  0.93015507917E+03  0.00000000000E+00 0. -1.
        -13    1    3    3    0    0  0.49952122337E+02  0.17852318987E+02  0.65067612717E+03  0.65283485070E+03  0.00000000000E+00 0.  1.
         22    1    1    2    0    0 -0.21736479745E+03 -0.91960621512E+02 -0.58475318407E+03  0.63058742246E+03  0.00000000000E+00 0.  1.
<mgrwt>
<rscale>  0 0.19858679E+04</rscale>
<asrwt>0</asrwt>
<pdfrwt beam="1">  1        2 0.24549688E+00 0.19858679E+04</pdfrwt>
<pdfrwt beam="2">  1       -2 0.95053485E-01 0.19858679E+04</pdfrwt>
<totfact> 0.97084815E+00</totfact>
</mgrwt>
</event>
<event>
 6    1  0.1831439E-005  0.3902973E+04  0.7818608E-02  0.8024411E-01
          2   -1    0    0  501    0  0.00000000000E+00  0.00000000000E+00  0.24752448815E+04  0.24752448815E+04  0.00000000000E+00 0. -1.
         -2   -1    0    0    0  501 -0.00000000000E+00 -0.00000000000E+00 -0.15385548701E+04  0.15385548701E+04  0.00000000000E+00 0.  1.
         23    2    1    2    0    0 -0.97857560082E+03 -0.29814986007E+03  0.21763621792E+04  0.24065379094E+04  0.91481302082E+02 0.  0.
         11    1    3    3    0    0 -0.62799977843E+03 -0.19089875418E+03  0.12911436368E+04  0.14484053117E+04  0.00000000000E+00 0.  1.
        -11    1    3    3    0    0 -0.35057582239E+03 -0.10725110589E+03  0.88521854238E+03  0.95813259768E+03  0.00000000000E+00 0. -1.
         22    1    1    2    0    0  0.97857560082E+03  0.29814986007E+03 -0.12396721678E+04  0.16072618421E+04  0.00000000000E+00 0.  1.
<mgrwt>
<rscale>  0 0.39029733E+04</rscale>
<asrwt>0</asrwt>
<pdfrwt beam="1">  1        2 0.38080690E+00 0.39029733E+04</pdfrwt>
<pdfrwt beam="2">  1       -2 0.23670075E+00 0.39029733E+04</pdfrwt>
<totfact> 0.22213713E-01</totfact>
</mgrwt>
</event>
<event>
 6    1  0.1831439E-005  0.2031128E+04  0.7818608E-02  0.8592204E-01
          1   -1    0    0  501    0  0.00000000000E+00  0.00000000000E+00  0.71330605295E+03  0.71330605295E+03  0.00000000000E+00 0. -1.
         -1   -1    0    0    0  501 -0.00000000000E+00 -0.00000000000E+00 -0.14459011848E+04  0.14459011848E+04  0.00000000000E+00 0.  1.
         23    2    1    2    0    0  0.27522206176E+02  0.66751603736E+03 -0.11773108480E+04  0.13566443429E+04  0.89932799496E+02 0.  0.
         13    1    3    3    0    0  0.48218015729E+02  0.48605251023E+03 -0.79722908756E+03  0.93495788023E+03  0.00000000000E+00 0. -1.
        -13    1    3    3    0    0 -0.20695809553E+02  0.18146352713E+03 -0.38008176044E+03  0.42168646270E+03  0.00000000000E+00 0.  1.
         22    1    1    2    0    0 -0.27522206176E+02 -0.66751603736E+03  0.44471571615E+03  0.80256289483E+03  0.00000000000E+00 0. -1.
<mgrwt>
<rscale>  0 0.20311278E+04</rscale>
<asrwt>0</asrwt>
<pdfrwt beam="1">  1        1 0.10973939E+00 0.20311278E+04</pdfrwt>
<pdfrwt beam="2">  1       -1 0.22244633E+00 0.20311278E+04</pdfrwt>
<totfact> 0.25950745E+00</totfact>
</mgrwt>
</event>
<event>
 6    1  0.1831439E-005  0.6948448E+04  0.7818608E-02  0.7582775E-01
         -2   -1    0    0    0  501 -0.00000000000E+00  0.00000000000E+00  0.39470263101E+04  0.39470263101E+04  0.00000000000E+00 0. -1.
          2   -1    0    0  501    0  0.00000000000E+00 -0.00000000000E+00 -0.30580576595E+04  0.30580576595E+04  0.00000000000E+00 0.  1.
         23    2    1    2    0    0  0.21132379037E+04  0.23925504240E+04  0.18254046355E+04  0.36783762392E+04  0.90981893694E+02 0.  0.
         11    1    3    3    0    0  0.15848284088E+04  0.17852877280E+04  0.14097300477E+04  0.27724126973E+04  0.00000000000E+00 0. -1.
        -11    1    3    3    0    0  0.52840949499E+03  0.60726269594E+03  0.41567458783E+03  0.90596354189E+03  0.00000000000E+00 0.  1.
         22    1    1    2    0    0 -0.21132379037E+04 -0.23925504240E+04 -0.93643598493E+03  0.33267077303E+04  0.00000000000E+00 0. -1.
<mgrwt>
<rscale>  0 0.69484485E+04</rscale>
<asrwt>0</asrwt>
<pdfrwt beam="1">  1        2 0.47047041E+00 0.69484485E+04</pdfrwt>
<pdfrwt beam="2">  1       -2 0.60723481E+00 0.69484485E+04</pdfrwt>
<totfact> 0.49065035E-04</totfact>
</mgrwt>
</event>
<event>
 6    1  0.1831439E-005  0.7402164E+03  0.7818608E-02  0.9650826E-01
         -2   -1    0    0    0  501 -0.00000000000E+00  0.00000000000E+00  0.96364257664E+02  0.96364257664E+02  0.00000000000E+00 0. -1.
          2   -1    0    0  501    0  0.00000000000E+00 -0.00000000000E+00 -0.14214821431E+04  0.14214821431E+04  0.00000000000E+00 0.  1.
         23    2    1    2    0    0  0.26470669728E+03 -0.24443312942E+03 -0.55402268107E+03  0.66672654754E+03  0.88124728184E+02 0.  0.
         11    1    3    3    0    0  0.21546253800E+03 -0.14589034348E+03 -0.40553129063E+03  0.48183371123E+03  0.00000000000E+00 0. -1.
        -11    1    3    3    0    0  0.49244159284E+02 -0.98542785940E+02 -0.14849139044E+03  0.18489283631E+03  0.00000000000E+00 0.  1.
         22    1    1    2    0    0 -0.26470669728E+03  0.24443312942E+03 -0.77109520436E+03  0.85111985321E+03  0.00000000000E+00 0.  1.
<mgrwt>
<rscale>  0 0.74021638E+03</rscale>
<asrwt>0</asrwt>
<pdfrwt beam="1">  1        2 0.21868956E+00 0.74021638E+03</pdfrwt>
<pdfrwt beam="2">  1       -2 0.14825270E-01 0.74021638E+03</pdfrwt>
<totfact> 0.50848763E+02</totfact>
</mgrwt>
</event>
<event>
 6    1  0.1831439E-005  0.2062578E+04  0.7818608E-02  0.8577910E-01
          2   -1    0    0  501    0  0.00000000000E+00  0.00000000000E+00  0.64398481762E+03  0.64398481762E+03  0.00000000000E+00 0. -1.
         -2   -1    0    0    0  501 -0.00000000000E+00 -0.00000000000E+00 -0.16515246668E+04  0.16515246668E+04  0.00000000000E+00 0.  1.
         23    2    1    2    0    0 -0.41189994976E+03 -0.94004938275E+03 -0.60103535891E+03  0.11916071739E+04  0.73005092542E+02 0.  0.
         13    1    3    3    0    0 -0.20912855964E+03 -0.56358465841E+03 -0.33992749072E+03  0.69058896647E+03  0.00000000000E+00 0.  1.
        -13    1    3    3    0    0 -0.20277139012E+03 -0.37646472434E+03 -0.26110786819E+03  0.50101820741E+03  0.00000000000E+00 0. -1.
         22    1    1    2    0    0  0.41189994976E+03  0.94004938275E+03 -0.40650449029E+03  0.11039023106E+04  0.00000000000E+00 0. -1.
<mgrwt>
<rscale>  0 0.20625778E+04</rscale>
<asrwt>0</asrwt>
<pdfrwt beam="1">  1        2 0.99074589E-01 0.20625778E+04</pdfrwt>
<pdfrwt beam="2">  1       -2 0.25408071E+00 0.20625778E+04</pdfrwt>
<totfact> 0.25497388E+00</totfact>
</mgrwt>
</event>
<event>
 6    1  0.1831439E-005  0.1418855E+04  0.7818608E-02  0.8940283E-01
          1   -1    0    0  501    0  0.00000000000E+00  0.00000000000E+00  0.63019039307E+03  0.63019039307E+03  0.00000000000E+00 0. -1.
         -1   -1    0    0    0  501 -0.00000000000E+00 -0.00000000000E+00 -0.79862700816E+03  0.79862700816E+03  0.00000000000E+00 0.  1.
         23    2    1    2    0    0  0.62240863351E+03 -0.32867531358E+03 -0.14630969564E+03  0.72460893112E+03  0.90728205116E+02 0.  0.
         13    1    3    3    0    0  0.25553668348E+03 -0.17662801115E+03 -0.37871218584E+02  0.31293878016E+03  0.00000000000E+00 0. -1.
        -13    1    3    3    0    0  0.36687195002E+03 -0.15204730242E+03 -0.10843847705E+03  0.41167015096E+03  0.00000000000E+00 0.  1.
         22    1    1    2    0    0 -0.62240863351E+03  0.32867531358E+03 -0.22126919458E+02  0.70420847011E+03  0.00000000000E+00 0.  1.
<mgrwt>
<rscale>  0 0.14188546E+04</rscale>
<asrwt>0</asrwt>
<pdfrwt beam="1">  1        1 0.96952368E-01 0.14188546E+04</pdfrwt>
<pdfrwt beam="2">  1       -1 0.12286569E+00 0.14188546E+04</pdfrwt>
<totfact> 0.18136358E+01</totfact>
</mgrwt>
</event>
<event>
 6    1  0.1831439E-005  0.2258595E+04  0.7818608E-02  0.8494428E-01
         -1   -1    0    0    0  501 -0.00000000000E+00  0.00000000000E+00  0.46244293947E+03  0.46244293947E+03  0.00000000000E+00 0.  1.
          1   -1    0    0  501    0  0.00000000000E+00 -0.00000000000E+00 -0.27577724178E+04  0.27577724178E+04  0.00000000000E+00 0. -1.
         23    2    1    2    0    0 -0.43529162983E+03  0.28869872850E+02 -0.26316929022E+04  0.26693500149E+04  0.96486774566E+02 0.  0.
         11    1    3    3    0    0 -0.10984151077E+03  0.41593971686E+02 -0.55713358211E+03  0.56937952570E+03  0.00000000000E+00 0.  1.
        -11    1    3    3    0    0 -0.32545011906E+03 -0.12724098836E+02 -0.20745593201E+04  0.20999704892E+04  0.00000000000E+00 0. -1.
         22    1    1    2    0    0  0.43529162983E+03 -0.28869872850E+02  0.33636342388E+03  0.55086534242E+03  0.00000000000E+00 0.  1.
<mgrwt>
<rscale>  0 0.22585946E+04</rscale>
<asrwt>0</asrwt>
<pdfrwt beam="1">  1        1 0.42427267E+00 0.22585946E+04</pdfrwt>
<pdfrwt beam="2">  1       -1 0.71145069E-01 0.22585946E+04</pdfrwt>
<totfact> 0.16169558E+00</totfact>
</mgrwt>
</event>
<event>
 6    1  0.1831439E-005  0.2262355E+04  0.7818608E-02  0.8492914E-01
          2   -1    0    0  501    0  0.00000000000E+00  0.00000000000E+00  0.48327713392E+04  0.48327713392E+04  0.00000000000E+00 0. -1.
         -2   -1    0    0    0  501 -0.00000000000E+00 -0.00000000000E+00 -0.26476780912E+03  0.26476780912E+03  0.00000000000E+00 0.  1.
         23    2    1    2    0    0  0.75626484913E+03 -0.36087831481E+03  0.58156934553E+03  0.10239869898E+04  0.90314846879E+02 0.  0.
         13    1    3    3    0    0  0.42830720307E+03 -0.23292222844E+03  0.29317002448E+03  0.56890112318E+03  0.00000000000E+00 0.  1.
        -13    1    3    3    0    0  0.32795764606E+03 -0.12795608636E+03  0.28839932105E+03  0.45508586665E+03  0.00000000000E+00 0. -1.
         22    1    1    2    0    0 -0.75626484913E+03  0.36087831481E+03  0.39864341846E+04  0.40735521585E+04  0.00000000000E+00 0. -1.
<mgrwt>
<rscale>  0 0.22623548E+04</rscale>
<asrwt>0</asrwt>
<pdfrwt beam="1">  1        2 0.74350322E+00 0.22623548E+04</pdfrwt>
<pdfrwt beam="2">  1       -2 0.40733513E-01 0.22623548E+04</pdfrwt>
<totfact> 0.28741672E-01</totfact>
</mgrwt>
</event>
<event>
 6    1  0.1831439E-005  0.1269449E+04  0.7818608E-02  0.9054150E-01
         -3   -1    0    0    0  501 -0.00000000000E+00  0.00000000000E+00  0.64460440219E+03  0.64460440219E+03  0.00000000000E+00 0.  1.
          3   -1    0    0  501    0  0.00000000000E+00 -0.00000000000E+00 -0.62499593944E+03  0.62499593944E+03  0.00000000000E+00 0. -1.
         23    2    1    2    0    0 -0.17808884029E+03  0.58784934574E+03 -0.13677288179E+03  0.63577259432E+03  0.90650329142E+02 0.  0.
         13    1    3    3    0    0 -0.53877622904E+02  0.33340325606E+03 -0.76423070755E+02  0.34626725970E+03  0.00000000000E+00 0.  1.
        -13    1    3    3    0    0 -0.12421121739E+03  0.25444608968E+03 -0.60349811035E+02  0.28950533462E+03  0.00000000000E+00 0. -1.
         22    1    1    2    0    0  0.17808884029E+03 -0.58784934574E+03  0.15638134454E+03  0.63382774730E+03  0.00000000000E+00 0.  1.
<mgrwt>
<rscale>  0 0.12694489E+04</rscale>
<asrwt>0</asrwt>
<pdfrwt beam="1">  1        3 0.96153221E-01 0.12694489E+04</pdfrwt>
<pdfrwt beam="2">  1       -3 0.99169908E-01 0.12694489E+04</pdfrwt>
<totfact> 0.21987872E+00</totfact>
</mgrwt>
</event>
<event>
 6    1  0.1831439E-005  0.4057315E+04  0.7818608E-02  0.7993083E-01
         -1   -1    0    0    0  501 -0.00000000000E+00  0.00000000000E+00  0.14948157570E+04  0.14948157570E+04  0.00000000000E+00 0.  1.
          1   -1    0    0  501    0  0.00000000000E+00 -0.00000000000E+00 -0.27531498704E+04  0.27531498704E+04  0.00000000000E+00 0. -1.
         23    2    1    2    0    0 -0.77786657315E+03 -0.75011266478E+03 -0.24257382128E+04  0.26571866526E+04  0.93218101904E+02 0.  0.
         13    1    3    3    0    0 -0.27710609842E+03 -0.28456029945E+03 -0.78774439070E+03  0.88221515453E+03  0.00000000000E+00 0. -1.
        -13    1    3    3    0    0 -0.50076047474E+03 -0.46555236533E+03 -0.16379938221E+04  0.17749714981E+04  0.00000000000E+00 0.  1.
         22    1    1    2    0    0  0.77786657315E+03  0.75011266478E+03  0.11674040993E+04  0.15907789748E+04  0.00000000000E+00 0.  1.
<mgrwt>
<rscale>  0 0.40573153E+04</rscale>
<asrwt>0</asrwt>
<pdfrwt beam="1">  1        1 0.42356151E+00 0.40573153E+04</pdfrwt>
<pdfrwt beam="2">  1       -1 0.22997166E+00 0.40573153E+04</pdfrwt>
<totfact> 0.66189128E-02</totfact>
</mgrwt>
</event>
<event>
 6    1  0.1831439E-005  0.4930064E+04  0.7818608E-02  0.7839387E-01
          2   -1    0    0  501    0  0.00000000000E+00  0.00000000000E+00  0.29141634712E+04  0.29141634712E+04  0.00000000000E+00 0. -1.
         -2   -1    0    0    0  501 -0.00000000000E+00 -0.00000000000E+00 -0.20851208072E+04  0.20851208072E+04  0.00000000000E+00 0.  1.
         23    2    1    2    0    0 -0.66981284939E+03  0.13717451193E+04 -0.15468983375E+04  0.21752039736E+04  0.91016123182E+02 0.  0.
         13    1    3    3    0    0 -0.36902085573E+03  0.71244851359E+03 -0.75394680081E+03  0.11009973002E+04  0.00000000000E+00 0. -1.
        -13    1    3    3    0    0 -0.30079199366E+03  0.65929660568E+03 -0.79295153672E+03  0.10742066735E+04  0.00000000000E+00 0.  1.
         22    1    1    2    0    0  0.66981284939E+03 -0.13717451193E+04  0.23759410015E+04  0.28240803048E+04  0.00000000000E+00 0. -1.
<mgrwt>
<rscale>  0 0.49300641E+04</rscale>
<asrwt>0</asrwt>
<pdfrwt beam="1">  1        2 0.44833285E+00 0.49300641E+04</pdfrwt>
<pdfrwt beam="2">  1       -2 0.32078781E+00 0.49300641E+04</pdfrwt>
<totfact> 0.34118969E-02</totfact>
</mgrwt>
</event>
<event>
 6    1  0.1831439E-005  0.2342906E+04  0.7818608E-02  0.8461193E-01
         -2   -1    0    0    0  501 -0.00000000000E+00  0.00000000000E+00  0.38195777141E+03  0.38195777141E+03  0.00000000000E+00 0.  1.
          2   -1    0    0  501    0  0.00000000000E+00 -0.00000000000E+00 -0.35928118843E+04  0.35928118843E+04  0.00000000000E+00 0. -1.
         23    2    1    2    0    0 -0.90180664682E+03  0.42015277215E+03 -0.26515191663E+04  0.28334374680E+04  0.89612587278E+02 0.  0.
         11    1    3    3    0    0 -0.27821880501E+03  0.13686089526E+03 -0.71387049204E+03  0.77829794264E+03  0.00000000000E+00 0. -1.
        -11    1    3    3    0    0 -0.62358784180E+03  0.28329187688E+03 -0.19376486742E+04  0.20551395254E+04  0.00000000000E+00 0.  1.
         22    1    1    2    0    0  0.90180664682E+03 -0.42015277215E+03 -0.55933494661E+03  0.11413321877E+04  0.00000000000E+00 0.  1.
<mgrwt>
<rscale>  0 0.23429062E+04</rscale>
<asrwt>0</asrwt>
<pdfrwt beam="1">  1        2 0.55274027E+00 0.23429062E+04</pdfrwt>
<pdfrwt beam="2">  1       -2 0.58762736E-01 0.23429062E+04</pdfrwt>
<totfact> 0.17131477E+00</totfact>
</mgrwt>
</event>
<event>
 6    1  0.1831439E-005  0.4922456E+03  0.7818608E-02  0.1015823E+00
         -1   -1    0    0    0  501 -0.00000000000E+00  0.00000000000E+00  0.11897159117E+03  0.11897159117E+03  0.00000000000E+00 0.  1.
          1   -1    0    0  501    0  0.00000000000E+00 -0.00000000000E+00 -0.50916721145E+03  0.50916721145E+03  0.00000000000E+00 0. -1.
         23    2    1    2    0    0  0.64272742202E+02 -0.22734256180E+03 -0.16238498658E+03  0.29994174197E+03  0.88207363152E+02 0.  0.
         13    1    3    3    0    0 -0.53569689985E+00 -0.10279902949E+03 -0.30285947601E+02  0.10716886702E+03  0.00000000000E+00 0.  1.
        -13    1    3    3    0    0  0.64808439102E+02 -0.12454353230E+03 -0.13209903898E+03  0.19277287495E+03  0.00000000000E+00 0. -1.
         22    1    1    2    0    0 -0.64272742202E+02  0.22734256180E+03 -0.22781063371E+03  0.32819706066E+03  0.00000000000E+00 0.  1.
<mgrwt>
<rscale>  0 0.49224560E+03</rscale>
<asrwt>0</asrwt>
<pdfrwt beam="1">  1        1 0.78333418E-01 0.49224560E+03</pdfrwt>
<pdfrwt beam="2">  1       -1 0.18303322E-01 0.49224560E+03</pdfrwt>
<totfact> 0.10285216E+03</totfact>
</mgrwt>
</event>
<event>
 6    1  0.1831439E-005  0.9376365E+03  0.7818608E-02  0.9379720E-01
          2   -1    0    0  501    0  0.00000000000E+00  0.00000000000E+00  0.10091225429E+04  0.10091225429E+04  0.00000000000E+00 0. -1.
         -2   -1    0    0    0  501 -0.00000000000E+00 -0.00000000000E+00 -0.21780360591E+03  0.21780360591E+03  0.00000000000E+00 0.  1.
         23    2    1    2    0    0  0.51884002444E+02  0.40345568723E+03  0.12183010609E+03  0.44354646055E+03  0.12815009421E+03 0.  0.
         13    1    3    3    0    0 -0.18341138549E+02  0.28536880130E+03  0.10715332138E+03  0.30537449861E+03  0.00000000000E+00 0. -1.
        -13    1    3    3    0    0  0.70225140993E+02  0.11808688593E+03  0.14676784709E+02  0.13817196193E+03  0.00000000000E+00 0.  1.
         22    1    1    2    0    0 -0.51884002444E+02 -0.40345568723E+03  0.66948883087E+03  0.78337968823E+03  0.00000000000E+00 0. -1.
<mgrwt>
<rscale>  0 0.93763645E+03</rscale>
<asrwt>0</asrwt>
<pdfrwt beam="1">  1        2 0.15524962E+00 0.93763645E+03</pdfrwt>
<pdfrwt beam="2">  1       -2 0.33508248E-01 0.93763645E+03</pdfrwt>
<totfact> 0.20685737E+02</totfact>
</mgrwt>
</event>
<event>
 6    1  0.1831439E-005  0.1734364E+04  0.7818608E-02  0.8742005E-01
         -2   -1    0    0    0  501 -0.00000000000E+00  0.00000000000E+00  0.82291608826E+03  0.82291608826E+03  0.00000000000E+00 0.  1.
          2   -1    0    0  501    0  0.00000000000E+00 -0.00000000000E+00 -0.91382859885E+03  0.91382859885E+03  0.00000000000E+00 0. -1.
         23    2    1    2    0    0 -0.41462287279E+03  0.74302071564E+03 -0.19994244018E+03  0.87891053294E+03  0.92275863620E+02 0.  0.
         11    1    3    3    0    0 -0.20403838630E+03  0.38686084982E+03 -0.56557143049E+02  0.44101212074E+03  0.00000000000E+00 0. -1.
        -11    1    3    3    0    0 -0.21058448650E+03  0.35615986582E+03 -0.14338529713E+03  0.43789841220E+03  0.00000000000E+00 0.  1.
         22    1    1    2    0    0  0.41462287279E+03 -0.74302071564E+03  0.10902992959E+03  0.85783415417E+03  0.00000000000E+00 0. -1.
<mgrwt>
<rscale>  0 0.17343636E+04</rscale>
<asrwt>0</asrwt>
<pdfrwt beam="1">  1        2 0.14058902E+00 0.17343636E+04</pdfrwt>
<pdfrwt beam="2">  1       -2 0.12660247E+00 0.17343636E+04</pdfrwt>
<totfact> 0.12645844E+01</totfact>
</mgrwt>
</event>
<event>
 6    1  0.1831439E-005  0.2570765E+04  0.7818608E-02  0.8378200E-01
         -2   -1    0    0    0  501 -0.00000000000E+00  0.00000000000E+00  0.87316291020E+03  0.87316291020E+03  0.00000000000E+00 0.  1.
          2   -1    0    0  501    0  0.00000000000E+00 -0.00000000000E+00 -0.18922103298E+04  0.18922103298E+04  0.00000000000E+00 0. -1.
         23    2    1    2    0    0 -0.34097909617E+03 -0.80648931013E+02  0.81829972535E+03  0.89491459967E+03  0.92123320049E+02 0.  0.
         13    1    3    3    0    0 -0.11948744594E+03 -0.17503861242E+02  0.39455871763E+03  0.41262600082E+03  0.00000000000E+00 0.  1.
        -13    1    3    3    0    0 -0.22149165022E+03 -0.63145069771E+02  0.42374100773E+03  0.48228859885E+03  0.00000000000E+00 0. -1.
         22    1    1    2    0    0  0.34097909617E+03  0.80648931013E+02 -0.18373471449E+04  0.18704586403E+04  0.00000000000E+00 0. -1.
<mgrwt>
<rscale>  0 0.25707648E+04</rscale>
<asrwt>0</asrwt>
<pdfrwt beam="1">  1        2 0.29110928E+00 0.25707648E+04</pdfrwt>
<pdfrwt beam="2">  1       -2 0.13433276E+00 0.25707648E+04</pdfrwt>
<totfact> 0.27173115E+00</totfact>
</mgrwt>
</event>
<event>
 6    1  0.1831439E-005  0.3095960E+04  0.7818608E-02  0.8216848E-01
         -2   -1    0    0    0  501 -0.00000000000E+00  0.00000000000E+00  0.99330400877E+03  0.99330400877E+03  0.00000000000E+00 0.  1.
          2   -1    0    0  501    0  0.00000000000E+00 -0.00000000000E+00 -0.24123950638E+04  0.24123950638E+04  0.00000000000E+00 0. -1.
         23    2    1    2    0    0 -0.47099014287E+03 -0.81341618694E+03 -0.20615662698E+04  0.22671684364E+04  0.80744205075E+02 0.  0.
         13    1    3    3    0    0 -0.35421910131E+03 -0.54133809778E+03 -0.14442018803E+04  0.15824781764E+04  0.00000000000E+00 0.  1.
        -13    1    3    3    0    0 -0.11677104157E+03 -0.27207808917E+03 -0.61736438949E+03  0.68469026002E+03  0.00000000000E+00 0. -1.
         22    1    1    2    0    0  0.47099014287E+03  0.81341618694E+03  0.64247521474E+03  0.11385306361E+04  0.00000000000E+00 0.  1.
<mgrwt>
<rscale>  0 0.30959597E+04</rscale>
<asrwt>0</asrwt>
<pdfrwt beam="1">  1        2 0.37113770E+00 0.30959597E+04</pdfrwt>
<pdfrwt beam="2">  1       -2 0.15281600E+00 0.30959597E+04</pdfrwt>
<totfact> 0.94699511E-01</totfact>
</mgrwt>
</event>
<event>
 6    1  0.1831439E-005  0.2518374E+04  0.7818608E-02  0.8396469E-01
          1   -1    0    0  501    0  0.00000000000E+00  0.00000000000E+00  0.13198166132E+04  0.13198166132E+04  0.00000000000E+00 0. -1.
         -1   -1    0    0    0  501 -0.00000000000E+00 -0.00000000000E+00 -0.12013428769E+04  0.12013428769E+04  0.00000000000E+00 0.  1.
         23    2    1    2    0    0  0.33372761234E+03  0.11392602851E+04  0.47489615424E+03  0.12816736868E+04  0.88729734214E+02 0.  0.
         13    1    3    3    0    0  0.68994377520E+02  0.13158914982E+03  0.59183713918E+02  0.15993323755E+03  0.00000000000E+00 0. -1.
        -13    1    3    3    0    0  0.26473323482E+03  0.10076711353E+04  0.41571244032E+03  0.11217404493E+04  0.00000000000E+00 0.  1.
         22    1    1    2    0    0 -0.33372761234E+03 -0.11392602851E+04 -0.35642241788E+03  0.12394858033E+04  0.00000000000E+00 0.  1.
<mgrwt>
<rscale>  0 0.25183743E+04</rscale>
<asrwt>0</asrwt>
<pdfrwt beam="1">  1        1 0.20304871E+00 0.25183743E+04</pdfrwt>
<pdfrwt beam="2">  1       -1 0.18482198E+00 0.25183743E+04</pdfrwt>
<totfact> 0.14929675E+00</totfact>
</mgrwt>
</event>
<event>
 6    1  0.1831439E-005  0.1334756E+04  0.7818608E-02  0.9002448E-01
          2   -1    0    0  501    0  0.00000000000E+00  0.00000000000E+00  0.35879783603E+03  0.35879783603E+03  0.00000000000E+00 0. -1.
         -2   -1    0    0    0  501 -0.00000000000E+00 -0.00000000000E+00 -0.12413494039E+04  0.12413494039E+04  0.00000000000E+00 0.  1.
         23    2    1    2    0    0  0.47608446157E+03 -0.10753499241E+02 -0.99856632267E+03  0.11100130995E+04  0.90677053019E+02 0.  0.
         11    1    3    3    0    0  0.43499572275E+03 -0.35000886147E+02 -0.88190034745E+03  0.98396878186E+03  0.00000000000E+00 0.  1.
        -11    1    3    3    0    0  0.41088738823E+02  0.24247386905E+02 -0.11666597522E+03  0.12604431762E+03  0.00000000000E+00 0. -1.
         22    1    1    2    0    0 -0.47608446157E+03  0.10753499241E+02  0.11601475481E+03  0.49013414045E+03  0.00000000000E+00 0. -1.
<mgrwt>
<rscale>  0 0.13347561E+04</rscale>
<asrwt>0</asrwt>
<pdfrwt beam="1">  1        2 0.55199667E-01 0.13347561E+04</pdfrwt>
<pdfrwt beam="2">  1       -2 0.19097683E+00 0.13347561E+04</pdfrwt>
<totfact> 0.13402788E+01</totfact>
</mgrwt>
</event>
<event>
 6    1  0.1831439E-005  0.2134622E+04  0.7818608E-02  0.8546143E-01
          2   -1    0    0  501    0  0.00000000000E+00  0.00000000000E+00  0.10715907940E+04  0.10715907940E+04  0.00000000000E+00 0. -1.
         -2   -1    0    0    0  501 -0.00000000000E+00 -0.00000000000E+00 -0.10630486109E+04  0.10630486109E+04  0.00000000000E+00 0.  1.
         23    2    1    2    0    0  0.11650966122E+03 -0.61459524152E+03  0.86673949962E+03  0.10726580274E+04  0.89755621385E+02 0.  0.
         11    1    3    3    0    0  0.29047171932E+02 -0.29321151725E+03  0.46902084208E+03  0.55389284375E+03  0.00000000000E+00 0. -1.
        -11    1    3    3    0    0  0.87462489291E+02 -0.32138372427E+03  0.39771865754E+03  0.51876518370E+03  0.00000000000E+00 0.  1.
         22    1    1    2    0    0 -0.11650966122E+03  0.61459524152E+03 -0.85819731651E+03  0.10619813775E+04  0.00000000000E+00 0.  1.
<mgrwt>
<rscale>  0 0.21346223E+04</rscale>
<asrwt>0</asrwt>
<pdfrwt beam="1">  1        2 0.16486012E+00 0.21346223E+04</pdfrwt>
<pdfrwt beam="2">  1       -2 0.16354594E+00 0.21346223E+04</pdfrwt>
<totfact> 0.49459599E+00</totfact>
</mgrwt>
</event>
<event>
 6    1  0.1831439E-005  0.1084997E+04  0.7818608E-02  0.9219940E-01
          2   -1    0    0  501    0  0.00000000000E+00  0.00000000000E+00  0.21975587193E+04  0.21975587193E+04  0.00000000000E+00 0.  1.
         -2   -1    0    0    0  501 -0.00000000000E+00 -0.00000000000E+00 -0.13392334478E+03  0.13392334478E+03  0.00000000000E+00 0. -1.
         23    2    1    2    0    0  0.36441325365E+03  0.38871923091E+03  0.86417784941E+03  0.10190042492E+04  0.87559377862E+02 0.  0.
         13    1    3    3    0    0  0.81131411739E+02  0.48538205860E+02  0.11573226261E+03  0.14943968686E+03  0.00000000000E+00 0. -1.
        -13    1    3    3    0    0  0.28328184191E+03  0.34018102505E+03  0.74844558680E+03  0.86956456239E+03  0.00000000000E+00 0.  1.
         22    1    1    2    0    0 -0.36441325365E+03 -0.38871923091E+03  0.11994575251E+04  0.13124778149E+04  0.00000000000E+00 0.  1.
<mgrwt>
<rscale>  0 0.10849966E+04</rscale>
<asrwt>0</asrwt>
<pdfrwt beam="1">  1        2 0.33808593E+00 0.10849966E+04</pdfrwt>
<pdfrwt beam="2">  1       -2 0.20603593E-01 0.10849966E+04</pdfrwt>
<totfact> 0.10489909E+02</totfact>
</mgrwt>
</event>
<event>
 6    1  0.1831439E-005  0.7424777E+03  0.7818608E-02  0.9647226E-01
          1   -1    0    0  501    0  0.00000000000E+00  0.00000000000E+00  0.21976615839E+04  0.21976615839E+04  0.00000000000E+00 0. -1.
         -1   -1    0    0    0  501 -0.00000000000E+00 -0.00000000000E+00 -0.62711323824E+02  0.62711323824E+02  0.00000000000E+00 0.  1.
         23    2    1    2    0    0  0.44494170410E+02 -0.34561189423E+03  0.74139770259E+03  0.82391335622E+03  0.87950852879E+02 0.  0.
         13    1    3    3    0    0  0.23803236815E+02 -0.70352761888E+02  0.24401884361E+03  0.25507116895E+03  0.00000000000E+00 0.  1.
        -13    1    3    3    0    0  0.20690933595E+02 -0.27525913234E+03  0.49737885898E+03  0.56884218728E+03  0.00000000000E+00 0. -1.
         22    1    1    2    0    0 -0.44494170410E+02  0.34561189423E+03  0.13935525575E+04  0.14364595515E+04  0.00000000000E+00 0. -1.
<mgrwt>
<rscale>  0 0.74247766E+03</rscale>
<asrwt>0</asrwt>
<pdfrwt beam="1">  1        1 0.33810172E+00 0.74247766E+03</pdfrwt>
<pdfrwt beam="2">  1       -1 0.96478977E-02 0.74247766E+03</pdfrwt>
<totfact> 0.15114600E+02</totfact>
</mgrwt>
</event>
<event>
 6    1  0.1831439E-005  0.2337259E+04  0.7818608E-02  0.8463374E-01
         -2   -1    0    0    0  501 -0.00000000000E+00  0.00000000000E+00  0.84814633314E+03  0.84814633314E+03  0.00000000000E+00 0.  1.
          2   -1    0    0  501    0  0.00000000000E+00 -0.00000000000E+00 -0.16102117855E+04  0.16102117855E+04  0.00000000000E+00 0. -1.
         23    2    1    2    0    0  0.94457218605E+03 -0.20052780997E+03  0.30795970237E+03  0.10170455748E+04  0.84347529222E+02 0.  0.
         13    1    3    3    0    0  0.79606155618E+03 -0.14020284367E+03  0.24256758471E+03  0.84392527617E+03  0.00000000000E+00 0. -1.
        -13    1    3    3    0    0  0.14851062987E+03 -0.60324966296E+02  0.65392117669E+02  0.17312029863E+03  0.00000000000E+00 0.  1.
         22    1    1    2    0    0 -0.94457218605E+03  0.20052780997E+03 -0.10700251547E+04  0.14413125438E+04  0.00000000000E+00 0. -1.
<mgrwt>
<rscale>  0 0.23372593E+04</rscale>
<asrwt>0</asrwt>
<pdfrwt beam="1">  1        2 0.24772489E+00 0.23372593E+04</pdfrwt>
<pdfrwt beam="2">  1       -2 0.13048405E+00 0.23372593E+04</pdfrwt>
<totfact> 0.42805643E+00</totfact>
</mgrwt>
</event>
<event>
 6    1  0.1831439E-005  0.8502400E+03  0.7818608E-02  0.9490015E-01
          2   -1    0    0  501    0  0.00000000000E+00  0.00000000000E+00  0.11777889704E+04  0.11777889704E+04  0.00000000000E+00 0. -1.
         -2   -1    0    0    0  501 -0.00000000000E+00 -0.00000000000E+00 -0.15344601055E+03  0.15344601055E+03  0.00000000000E+00 0.  1.
         23    2    1    2    0    0  0.22416396562E+02  0.16241009495E+03  0.11239335464E+04  0.11394074055E+04  0.90239045441E+02 0.  0.
         11    1    3    3    0    0 -0.88499531957E+01  0.15417665285E+03  0.90034364722E+03  0.91349189654E+03  0.00000000000E+00 0. -1.
        -11    1    3    3    0    0  0.31266349758E+02  0.82334421059E+01  0.22358989918E+03  0.22591550901E+03  0.00000000000E+00 0.  1.
         22    1    1    2    0    0 -0.22416396562E+02 -0.16241009495E+03 -0.99590586508E+02  0.19182757544E+03  0.00000000000E+00 0.  1.
<mgrwt>
<rscale>  0 0.85024001E+03</rscale>
<asrwt>0</asrwt>
<pdfrwt beam="1">  1        2 0.18119830E+00 0.85024001E+03</pdfrwt>
<pdfrwt beam="2">  1       -2 0.23607079E-01 0.85024001E+03</pdfrwt>
<totfact> 0.31166023E+02</totfact>
</mgrwt>
</event>
<event>
 6    1  0.1831439E-005  0.6898523E+03  0.7818608E-02  0.9734745E-01
         -2   -1    0    0    0  501 -0.00000000000E+00  0.00000000000E+00  0.67613149527E+03  0.67613149527E+03  0.00000000000E+00 0.  1.
          2   -1    0    0  501    0  0.00000000000E+00 -0.00000000000E+00 -0.17596290334E+03  0.17596290334E+03  0.00000000000E+00 0. -1.
         23    2    1    2    0    0  0.33724732569E+03 -0.22301165624E+02  0.28731622008E+03  0.45267077277E+03  0.90150527051E+02 0.  0.
         13    1    3    3    0    0  0.12931342951E+03 -0.39719359907E+02  0.73680119099E+02  0.15404009398E+03  0.00000000000E+00 0.  1.
        -13    1    3    3    0    0  0.20793389618E+03  0.17418194284E+02  0.21363610098E+03  0.29863067879E+03  0.00000000000E+00 0. -1.
         22    1    1    2    0    0 -0.33724732569E+03  0.22301165624E+02  0.21285237185E+03  0.39942362584E+03  0.00000000000E+00 0.  1.
<mgrwt>
<rscale>  0 0.68985233E+03</rscale>
<asrwt>0</asrwt>
<pdfrwt beam="1">  1        2 0.27071216E-01 0.68985233E+03</pdfrwt>
<pdfrwt beam="2">  1       -2 0.10402023E+00 0.68985233E+03</pdfrwt>
<totfact> 0.15199447E+02</totfact>
</mgrwt>
</event>
<event>
 6    1  0.1831439E-005  0.3058141E+04  0.7818608E-02  0.8227320E-01
         -2   -1    0    0    0  501 -0.00000000000E+00  0.00000000000E+00  0.74437566486E+03  0.74437566486E+03  0.00000000000E+00 0.  1.
          2   -1    0    0  501    0  0.00000000000E+00 -0.00000000000E+00 -0.31409636222E+04  0.31409636222E+04  0.00000000000E+00 0. -1.
         23    2    1    2    0    0  0.55187911212E+03  0.70760883781E+03 -0.27701604478E+04  0.29133119072E+04  0.91195066972E+02 0.  0.
         13    1    3    3    0    0  0.27678871926E+03  0.30643728819E+03 -0.11617362646E+04  0.12329423974E+04  0.00000000000E+00 0. -1.
        -13    1    3    3    0    0  0.27509039286E+03  0.40117154962E+03 -0.16084241832E+04  0.16803695098E+04  0.00000000000E+00 0.  1.
         22    1    1    2    0    0 -0.55187911212E+03 -0.70760883781E+03  0.37357249041E+03  0.97202737992E+03  0.00000000000E+00 0.  1.
<mgrwt>
<rscale>  0 0.30581412E+04</rscale>
<asrwt>0</asrwt>
<pdfrwt beam="1">  1        2 0.48322517E+00 0.30581412E+04</pdfrwt>
<pdfrwt beam="2">  1       -2 0.11451933E+00 0.30581412E+04</pdfrwt>
<totfact> 0.71829015E-01</totfact>
</mgrwt>
</event>
<event>
 6    1  0.1831439E-005  0.2887689E+04  0.7818608E-02  0.8276550E-01
          2   -1    0    0  501    0  0.00000000000E+00  0.00000000000E+00  0.11687367916E+04  0.11687367916E+04  0.00000000000E+00 0. -1.
         -2   -1    0    0    0  501 -0.00000000000E+00 -0.00000000000E+00 -0.17837090435E+04  0.17837090435E+04  0.00000000000E+00 0.  1.
         23    2    1    2    0    0  0.10429462956E+04  0.99632565319E+03 -0.30120823899E+03  0.14763531421E+04  0.92143443784E+02 0.  0.
         11    1    3    3    0    0  0.41405208103E+03  0.43729041520E+03 -0.16039130248E+03  0.62320735149E+03  0.00000000000E+00 0.  1.
        -11    1    3    3    0    0  0.62889421454E+03  0.55903523798E+03 -0.14081693650E+03  0.85314579059E+03  0.00000000000E+00 0. -1.
         22    1    1    2    0    0 -0.10429462956E+04 -0.99632565319E+03 -0.31376401289E+03  0.14760926930E+04  0.00000000000E+00 0. -1.
<mgrwt>
<rscale>  0 0.28876886E+04</rscale>
<asrwt>0</asrwt>
<pdfrwt beam="1">  1        2 0.17980566E+00 0.28876886E+04</pdfrwt>
<pdfrwt beam="2">  1       -2 0.27441678E+00 0.28876886E+04</pdfrwt>
<totfact> 0.77829133E-01</totfact>
</mgrwt>
</event>
<event>
 6    1  0.1831439E-005  0.1170844E+04  0.7818608E-02  0.9138767E-01
          1   -1    0    0  501    0  0.00000000000E+00  0.00000000000E+00  0.50714774774E+03  0.50714774774E+03  0.00000000000E+00 0. -1.
         -1   -1    0    0    0  501 -0.00000000000E+00 -0.00000000000E+00 -0.67577678194E+03  0.67577678194E+03  0.00000000000E+00 0.  1.
         23    2    1    2    0    0  0.11640895640E+03 -0.24072710353E+03  0.43737105256E+03  0.52055251287E+03  0.90448314150E+02 0.  0.
         13    1    3    3    0    0  0.80814670141E+02 -0.67995057599E+02  0.15225128204E+03  0.18529649660E+03  0.00000000000E+00 0. -1.
        -13    1    3    3    0    0  0.35594286259E+02 -0.17273204593E+03  0.28511977051E+03  0.33525601627E+03  0.00000000000E+00 0.  1.
         22    1    1    2    0    0 -0.11640895640E+03  0.24072710353E+03 -0.60600008676E+03  0.66237201682E+03  0.00000000000E+00 0.  1.
<mgrwt>
<rscale>  0 0.11708436E+04</rscale>
<asrwt>0</asrwt>
<pdfrwt beam="1">  1        1 0.78022730E-01 0.11708436E+04</pdfrwt>
<pdfrwt beam="2">  1       -1 0.10396566E+00 0.11708436E+04</pdfrwt>
<totfact> 0.37570320E+01</totfact>
</mgrwt>
</event>
<event>
 6    1  0.1831439E-005  0.3008236E+04  0.7818608E-02  0.8241383E-01
         -1   -1    0    0    0  501 -0.00000000000E+00  0.00000000000E+00  0.14673477204E+04  0.14673477204E+04  0.00000000000E+00 0.  1.
          1   -1    0    0  501    0  0.00000000000E+00 -0.00000000000E+00 -0.15418096113E+04  0.15418096113E+04  0.00000000000E+00 0. -1.
         23    2    1    2    0    0 -0.60327729701E+03 -0.45598204413E+03 -0.13362633516E+04  0.15381012323E+04  0.91063353516E+02 0.  0.
         13    1    3    3    0    0 -0.46427723484E+03 -0.31843826310E+03 -0.92798867686E+03  0.10854120243E+04  0.00000000000E+00 0. -1.
        -13    1    3    3    0    0 -0.13900006217E+03 -0.13754378103E+03 -0.40827467470E+03  0.45268920794E+03  0.00000000000E+00 0.  1.
         22    1    1    2    0    0  0.60327729701E+03  0.45598204413E+03  0.12618014606E+04  0.14710560994E+04  0.00000000000E+00 0.  1.
<mgrwt>
<rscale>  0 0.30082359E+04</rscale>
<asrwt>0</asrwt>
<pdfrwt beam="1">  1        1 0.23720148E+00 0.30082359E+04</pdfrwt>
<pdfrwt beam="2">  1       -1 0.22574580E+00 0.30082359E+04</pdfrwt>
<totfact> 0.52434422E-01</totfact>
</mgrwt>
</event>
<event>
 6    1  0.1831439E-005  0.2356285E+04  0.7818608E-02  0.8456054E-01
         -2   -1    0    0    0  501 -0.00000000000E+00  0.00000000000E+00  0.87490004222E+03  0.87490004222E+03  0.00000000000E+00 0. -1.
          2   -1    0    0  501    0  0.00000000000E+00 -0.00000000000E+00 -0.15864889687E+04  0.15864889687E+04  0.00000000000E+00 0.  1.
         23    2    1    2    0    0 -0.24036601782E+02 -0.80960463980E+03 -0.12474810172E+04  0.14901950222E+04  0.91841629055E+02 0.  0.
         11    1    3    3    0    0 -0.53523584707E+02 -0.35191789280E+03 -0.57241040964E+03  0.67406576419E+03  0.00000000000E+00 0. -1.
        -11    1    3    3    0    0  0.29486982925E+02 -0.45768674700E+03 -0.67507060755E+03  0.81612925798E+03  0.00000000000E+00 0.  1.
         22    1    1    2    0    0  0.24036601782E+02  0.80960463980E+03  0.53589209067E+03  0.97119398879E+03  0.00000000000E+00 0. -1.
<mgrwt>
<rscale>  0 0.23562846E+04</rscale>
<asrwt>0</asrwt>
<pdfrwt beam="1">  1        2 0.24407522E+00 0.23562846E+04</pdfrwt>
<pdfrwt beam="2">  1       -2 0.13460001E+00 0.23562846E+04</pdfrwt>
<totfact> 0.40716837E+00</totfact>
</mgrwt>
</event>
<event>
 6    1  0.1831439E-005  0.1172746E+04  0.7818608E-02  0.9137052E-01
          2   -1    0    0  501    0  0.00000000000E+00  0.00000000000E+00  0.11143225184E+04  0.11143225184E+04  0.00000000000E+00 0. -1.
         -2   -1    0    0    0  501 -0.00000000000E+00 -0.00000000000E+00 -0.30855840617E+03  0.30855840617E+03  0.00000000000E+00 0.  1.
         23    2    1    2    0    0 -0.12274968414E+03 -0.56560147719E+03  0.33030612763E+03  0.67385968919E+03  0.10006111533E+03 0.  0.
         11    1    3    3    0    0 -0.10875923093E+03 -0.50542121831E+03  0.25502141726E+03  0.57646778010E+03  0.00000000000E+00 0.  1.
        -11    1    3    3    0    0 -0.13990453213E+02 -0.60180258884E+02  0.75284710371E+02  0.97391909090E+02  0.00000000000E+00 0. -1.
         22    1    1    2    0    0  0.12274968414E+03  0.56560147719E+03  0.47545798462E+03  0.74902123541E+03  0.00000000000E+00 0.  1.
<mgrwt>
<rscale>  0 0.11727465E+04</rscale>
<asrwt>0</asrwt>
<pdfrwt beam="1">  1        2 0.17143423E+00 0.11727465E+04</pdfrwt>
<pdfrwt beam="2">  1       -2 0.47470525E-01 0.11727465E+04</pdfrwt>
<totfact> 0.88710675E+01</totfact>
</mgrwt>
</event>
<event>
 6    1  0.1831439E-005  0.2794709E+04  0.7818608E-02  0.8304913E-01
         -4   -1    0    0    0  501 -0.00000000000E+00  0.00000000000E+00  0.68926225364E+03  0.68926225364E+03  0.00000000000E+00 0.  1.
          4   -1    0    0  501    0  0.00000000000E+00 -0.00000000000E+00 -0.28328825047E+04  0.28328825047E+04  0.00000000000E+00 0. -1.
         23    2    1    2    0    0 -0.12007760000E+04 -0.40948512897E+02 -0.19683997789E+04  0.23079610833E+04  0.92449390812E+02 0.  0.
         13    1    3    3    0    0 -0.89983868283E+03  0.73002748906E+01 -0.14951718413E+04  0.17450793060E+04  0.00000000000E+00 0.  1.
        -13    1    3    3    0    0 -0.30093731716E+03 -0.48248787788E+02 -0.47322793755E+03  0.56288177734E+03  0.00000000000E+00 0. -1.
         22    1    1    2    0    0  0.12007760000E+04  0.40948512897E+02 -0.17522047222E+03  0.12141836750E+04  0.00000000000E+00 0.  1.
<mgrwt>
<rscale>  0 0.27947086E+04</rscale>
<asrwt>0</asrwt>
<pdfrwt beam="1">  1        4 0.43582808E+00 0.27947086E+04</pdfrwt>
<pdfrwt beam="2">  1       -4 0.10604035E+00 0.27947086E+04</pdfrwt>
<totfact> 0.46824826E-03</totfact>
</mgrwt>
</event>
<event>
 6    1  0.1831439E-005  0.6215119E+03  0.7818608E-02  0.9861754E-01
         -2   -1    0    0    0  501 -0.00000000000E+00  0.00000000000E+00  0.11234605872E+03  0.11234605872E+03  0.00000000000E+00 0.  1.
          2   -1    0    0  501    0  0.00000000000E+00 -0.00000000000E+00 -0.85956950780E+03  0.85956950780E+03  0.00000000000E+00 0. -1.
         23    2    1    2    0    0 -0.26159177493E+03  0.71186960527E+02 -0.59622056181E+03  0.66159361753E+03  0.93430810610E+02 0.  0.
         11    1    3    3    0    0 -0.16675240753E+03  0.17677114252E+02 -0.44253576302E+03  0.47324068648E+03  0.00000000000E+00 0. -1.
        -11    1    3    3    0    0 -0.94839367404E+02  0.53509846275E+02 -0.15368479879E+03  0.18835293106E+03  0.00000000000E+00 0.  1.
         22    1    1    2    0    0  0.26159177493E+03 -0.71186960527E+02 -0.15100288726E+03  0.31032194899E+03  0.00000000000E+00 0.  1.
<mgrwt>
<rscale>  0 0.62151185E+03</rscale>
<asrwt>0</asrwt>
<pdfrwt beam="1">  1        2 0.13224146E+00 0.62151185E+03</pdfrwt>
<pdfrwt beam="2">  1       -2 0.17284009E-01 0.62151185E+03</pdfrwt>
<totfact> 0.86497673E+02</totfact>
</mgrwt>
</event>
<event>
 6    1  0.1831439E-005  0.1666140E+04  0.7818608E-02  0.8780915E-01
         -1   -1    0    0    0  501 -0.00000000000E+00  0.00000000000E+00  0.53628427595E+03  0.53628427595E+03  0.00000000000E+00 0.  1.
          1   -1    0    0  501    0  0.00000000000E+00 -0.00000000000E+00 -0.12941002376E+04  0.12941002376E+04  0.00000000000E+00 0. -1.
         23    2    1    2    0    0 -0.69679595701E+03 -0.45090447138E+03 -0.40985053890E+03  0.93042930161E+03  0.94243159185E+02 0.  0.
         13    1    3    3    0    0 -0.41588502397E+03 -0.30965780814E+03 -0.28880023326E+03  0.59350980281E+03  0.00000000000E+00 0. -1.
        -13    1    3    3    0    0 -0.28091093304E+03 -0.14124666324E+03 -0.12105030564E+03  0.33691949881E+03  0.00000000000E+00 0.  1.
         22    1    1    2    0    0  0.69679595701E+03  0.45090447138E+03 -0.34796542272E+03  0.89995521190E+03  0.00000000000E+00 0.  1.
<mgrwt>
<rscale>  0 0.16661400E+04</rscale>
<asrwt>0</asrwt>
<pdfrwt beam="1">  1        1 0.19909234E+00 0.16661400E+04</pdfrwt>
<pdfrwt beam="2">  1       -1 0.82505274E-01 0.16661400E+04</pdfrwt>
<totfact> 0.12728414E+01</totfact>
</mgrwt>
</event>
<event>
 6    1  0.1831439E-005  0.2003624E+04  0.7818608E-02  0.8604928E-01
         -2   -1    0    0    0  501 -0.00000000000E+00  0.00000000000E+00  0.22411475450E+03  0.22411475450E+03  0.00000000000E+00 0.  1.
          2   -1    0    0  501    0  0.00000000000E+00 -0.00000000000E+00 -0.44781842314E+04  0.44781842314E+04  0.00000000000E+00 0. -1.
         23    2    1    2    0    0 -0.25104820782E+03 -0.50417791684E+03 -0.40699665536E+04  0.41097498649E+04  0.90529719264E+02 0.  0.
         11    1    3    3    0    0 -0.13994346132E+03 -0.27512724495E+03 -0.25496088349E+04  0.25682259216E+04  0.00000000000E+00 0. -1.
        -11    1    3    3    0    0 -0.11110474650E+03 -0.22905067189E+03 -0.15203577187E+04  0.15415239433E+04  0.00000000000E+00 0.  1.
         22    1    1    2    0    0  0.25104820782E+03  0.50417791684E+03 -0.18410292333E+03  0.59254912105E+03  0.00000000000E+00 0.  1.
<mgrwt>
<rscale>  0 0.20036239E+04</rscale>
<asrwt>0</asrwt>
<pdfrwt beam="1">  1        2 0.68895142E+00 0.20036239E+04</pdfrwt>
<pdfrwt beam="2">  1       -2 0.34479193E-01 0.20036239E+04</pdfrwt>
<totfact> 0.96192756E-01</totfact>
</mgrwt>
</event>
<event>
 6    1  0.1831439E-005  0.4606301E+04  0.7818608E-02  0.7892286E-01
          2   -1    0    0  501    0  0.00000000000E+00  0.00000000000E+00  0.32286792581E+04  0.32286792581E+04  0.00000000000E+00 0.  1.
         -2   -1    0    0    0  501 -0.00000000000E+00 -0.00000000000E+00 -0.16429323618E+04  0.16429323618E+04  0.00000000000E+00 0. -1.
         23    2    1    2    0    0  0.61659751803E+03 -0.62318761411E+03 -0.14582765741E+04  0.17038625468E+04  0.89563999325E+02 0.  0.
         13    1    3    3    0    0  0.18081567581E+03 -0.20909788342E+03 -0.53364873109E+03  0.60099683998E+03  0.00000000000E+00 0.  1.
        -13    1    3    3    0    0  0.43578184222E+03 -0.41408973069E+03 -0.92462784304E+03  0.11028657068E+04  0.00000000000E+00 0. -1.
         22    1    1    2    0    0 -0.61659751803E+03  0.62318761411E+03  0.30440234705E+04  0.31677490732E+04  0.00000000000E+00 0.  1.
<mgrwt>
<rscale>  0 0.46063007E+04</rscale>
<asrwt>0</asrwt>
<pdfrwt beam="1">  1        2 0.49671989E+00 0.46063007E+04</pdfrwt>
<pdfrwt beam="2">  1       -2 0.25275882E+00 0.46063007E+04</pdfrwt>
<totfact> 0.57593692E-02</totfact>
</mgrwt>
</event>
<event>
 6    1  0.1831439E-005  0.5107108E+03  0.7818608E-02  0.1011020E+00
         -2   -1    0    0    0  501 -0.00000000000E+00  0.00000000000E+00  0.75949204729E+02  0.75949204729E+02  0.00000000000E+00 0.  1.
          2   -1    0    0  501    0  0.00000000000E+00 -0.00000000000E+00 -0.85855244266E+03  0.85855244266E+03  0.00000000000E+00 0. -1.
         23    2    1    2    0    0 -0.83371333796E+01 -0.17515120223E+03 -0.90843163516E+02  0.22086346736E+03  0.98897620920E+02 0.  0.
         13    1    3    3    0    0 -0.82400649315E+01 -0.76073396566E+02 -0.94651265808E+02  0.12171245809E+03  0.00000000000E+00 0.  1.
        -13    1    3    3    0    0 -0.97068448156E-01 -0.99077805661E+02  0.38081022922E+01  0.99151009274E+02  0.00000000000E+00 0. -1.
         22    1    1    2    0    0  0.83371333796E+01  0.17515120223E+03 -0.69176007441E+03  0.71363818002E+03  0.00000000000E+00 0. -1.
<mgrwt>
<rscale>  0 0.51071078E+03</rscale>
<asrwt>0</asrwt>
<pdfrwt beam="1">  1        2 0.13208499E+00 0.51071078E+03</pdfrwt>
<pdfrwt beam="2">  1       -2 0.11684493E-01 0.51071078E+03</pdfrwt>
<totfact> 0.16714769E+03</totfact>
</mgrwt>
</event>
<event>
 6    1  0.1831439E-005  0.1533970E+04  0.7818608E-02  0.8862173E-01
          2   -1    0    0  501    0  0.00000000000E+00  0.00000000000E+00  0.66730312257E+03  0.66730312257E+03  0.00000000000E+00 0. -1.
         -2   -1    0    0    0  501 -0.00000000000E+00 -0.00000000000E+00 -0.88155697742E+03  0.88155697742E+03  0.00000000000E+00 0.  1.
         23    2    1    2    0    0  0.52084457288E+03  0.30413592993E+03  0.36650815535E+03  0.71156550102E+03  0.90661465509E+02 0.  0.
         13    1    3    3    0    0  0.19572049699E+03  0.70855410438E+02  0.15021851610E+03  0.25669554868E+03  0.00000000000E+00 0. -1.
        -13    1    3    3    0    0  0.32512407589E+03  0.23328051949E+03  0.21628963925E+03  0.45486995234E+03  0.00000000000E+00 0.  1.
         22    1    1    2    0    0 -0.52084457288E+03 -0.30413592993E+03 -0.58076201020E+03  0.83729459897E+03  0.00000000000E+00 0.  1.
<mgrwt>
<rscale>  0 0.15339697E+04</rscale>
<asrwt>0</asrwt>
<pdfrwt beam="1">  1        2 0.10266202E+00 0.15339697E+04</pdfrwt>
<pdfrwt beam="2">  1       -2 0.13562415E+00 0.15339697E+04</pdfrwt>
<totfact> 0.16344056E+01</totfact>
</mgrwt>
</event>
<event>
 6    1  0.1831439E-005  0.3886454E+04  0.7818608E-02  0.8027852E-01
          2   -1    0    0  501    0  0.00000000000E+00  0.00000000000E+00  0.41679296943E+04  0.41679296943E+04  0.00000000000E+00 0. -1.
         -2   -1    0    0    0  501 -0.00000000000E+00 -0.00000000000E+00 -0.90599670698E+03  0.90599670698E+03  0.00000000000E+00 0.  1.
         23    2    1    2    0    0 -0.10721727733E+04  0.49107938262E+03 -0.38280258011E+03  0.12431548377E+04  0.90458384027E+02 0.  0.
         11    1    3    3    0    0 -0.54370441677E+03  0.29425917728E+03 -0.21985623683E+03  0.65615525686E+03  0.00000000000E+00 0.  1.
        -11    1    3    3    0    0 -0.52846835655E+03  0.19682020534E+03 -0.16294634328E+03  0.58699958083E+03  0.00000000000E+00 0. -1.
         22    1    1    2    0    0  0.10721727733E+04 -0.49107938262E+03  0.36447355675E+04  0.38307715636E+04  0.00000000000E+00 0. -1.
<mgrwt>
<rscale>  0 0.38864537E+04</rscale>
<asrwt>0</asrwt>
<pdfrwt beam="1">  1        2 0.64121995E+00 0.38864537E+04</pdfrwt>
<pdfrwt beam="2">  1       -2 0.13938411E+00 0.38864537E+04</pdfrwt>
<totfact> 0.71371842E-02</totfact>
</mgrwt>
</event>
<event>
 6    1  0.1831439E-005  0.3222420E+04  0.7818608E-02  0.8182921E-01
          2   -1    0    0  501    0  0.00000000000E+00  0.00000000000E+00  0.27308437592E+04  0.27308437592E+04  0.00000000000E+00 0.  1.
         -2   -1    0    0    0  501 -0.00000000000E+00 -0.00000000000E+00 -0.95062107773E+03  0.95062107773E+03  0.00000000000E+00 0. -1.
         23    2    1    2    0    0 -0.70120681084E+03 -0.11668808758E+04  0.18726249319E+04  0.23169722039E+04  0.91291226347E+02 0.  0.
         13    1    3    3    0    0 -0.56986136535E+03 -0.87675322660E+03  0.14546707046E+04  0.17915091557E+04  0.00000000000E+00 0. -1.
        -13    1    3    3    0    0 -0.13134544548E+03 -0.29012764919E+03  0.41795422729E+03  0.52546304816E+03  0.00000000000E+00 0.  1.
         22    1    1    2    0    0  0.70120681084E+03  0.11668808758E+04 -0.92402250432E+02  0.13644926331E+04  0.00000000000E+00 0. -1.
<mgrwt>
<rscale>  0 0.32224200E+04</rscale>
<asrwt>0</asrwt>
<pdfrwt beam="1">  1        2 0.42012981E+00 0.32224200E+04</pdfrwt>
<pdfrwt beam="2">  1       -2 0.14624940E+00 0.32224200E+04</pdfrwt>
<totfact> 0.68505063E-01</totfact>
</mgrwt>
</event>
<event>
 6    1  0.1831439E-005  0.3473688E+04  0.7818608E-02  0.8120054E-01
          2   -1    0    0  501    0  0.00000000000E+00  0.00000000000E+00  0.32998693314E+04  0.32998693314E+04  0.00000000000E+00 0. -1.
         -2   -1    0    0    0  501 -0.00000000000E+00 -0.00000000000E+00 -0.91416585668E+03  0.91416585668E+03  0.00000000000E+00 0.  1.
         23    2    1    2    0    0  0.23430533801E+03  0.94650366557E+03 -0.54774322884E+03  0.11227769098E+04  0.99182478820E+02 0.  0.
         11    1    3    3    0    0  0.20383364536E+03  0.80256381973E+03 -0.42273021808E+03  0.92970838277E+03  0.00000000000E+00 0. -1.
        -11    1    3    3    0    0  0.30471692651E+02  0.14393984584E+03 -0.12501301076E+03  0.19306852704E+03  0.00000000000E+00 0.  1.
         22    1    1    2    0    0 -0.23430533801E+03 -0.94650366557E+03  0.29334467036E+04  0.30912582783E+04  0.00000000000E+00 0. -1.
<mgrwt>
<rscale>  0 0.34736885E+04</rscale>
<asrwt>0</asrwt>
<pdfrwt beam="1">  1        2 0.50767220E+00 0.34736885E+04</pdfrwt>
<pdfrwt beam="2">  1       -2 0.14064090E+00 0.34736885E+04</pdfrwt>
<totfact> 0.32521116E-01</totfact>
</mgrwt>
</event>
<event>
 6    1  0.1831439E-005  0.3725860E+04  0.7818608E-02  0.8062255E-01
          2   -1    0    0  501    0  0.00000000000E+00  0.00000000000E+00  0.30569687458E+04  0.30569687458E+04  0.00000000000E+00 0. -1.
         -2   -1    0    0    0  501 -0.00000000000E+00 -0.00000000000E+00 -0.11352774804E+04  0.11352774804E+04  0.00000000000E+00 0.  1.
         23    2    1    2    0    0  0.30881905096E+03 -0.11604521596E+04  0.25623195437E+04  0.28312087499E+04  0.90791631343E+02 0.  0.
         13    1    3    3    0    0  0.32769313075E+02 -0.25466190047E+03  0.58345891321E+03  0.63745651996E+03  0.00000000000E+00 0.  1.
        -13    1    3    3    0    0  0.27604973788E+03 -0.90579025916E+03  0.19788606305E+04  0.21937522299E+04  0.00000000000E+00 0. -1.
         22    1    1    2    0    0 -0.30881905096E+03  0.11604521596E+04 -0.64062827831E+03  0.13610374763E+04  0.00000000000E+00 0.  1.
<mgrwt>
<rscale>  0 0.37258598E+04</rscale>
<asrwt>0</asrwt>
<pdfrwt beam="1">  1        2 0.47030288E+00 0.37258598E+04</pdfrwt>
<pdfrwt beam="2">  1       -2 0.17465808E+00 0.37258598E+04</pdfrwt>
<totfact> 0.25526895E-01</totfact>
</mgrwt>
</event>
<event>
 6    1  0.1831439E-005  0.4197764E+04  0.7818608E-02  0.7965798E-01
         -1   -1    0    0    0  501 -0.00000000000E+00  0.00000000000E+00  0.25367498589E+04  0.25367498589E+04  0.00000000000E+00 0.  1.
          1   -1    0    0  501    0  0.00000000000E+00 -0.00000000000E+00 -0.17365944193E+04  0.17365944193E+04  0.00000000000E+00 0. -1.
         23    2    1    2    0    0  0.71670517577E+03 -0.18533972120E+04  0.10849895149E+04  0.22658886784E+04  0.91113780704E+02 0.  0.
         13    1    3    3    0    0  0.62398815114E+02 -0.17482383693E+03  0.72493133069E+02  0.19927930256E+03  0.00000000000E+00 0.  1.
        -13    1    3    3    0    0  0.65430636065E+03 -0.16785733751E+04  0.10124963818E+04  0.20666093759E+04  0.00000000000E+00 0. -1.
         22    1    1    2    0    0 -0.71670517577E+03  0.18533972120E+04 -0.28483407534E+03  0.20074555998E+04  0.00000000000E+00 0. -1.
<mgrwt>
<rscale>  0 0.41977640E+04</rscale>
<asrwt>0</asrwt>
<pdfrwt beam="1">  1        1 0.26716837E+00 0.41977640E+04</pdfrwt>
<pdfrwt beam="2">  1       -1 0.39026921E+00 0.41977640E+04</pdfrwt>
<totfact> 0.28868823E-02</totfact>
</mgrwt>
</event>
<event>
 6    1  0.1831439E-005  0.2260126E+04  0.7818608E-02  0.8493811E-01
         -1   -1    0    0    0  501 -0.00000000000E+00  0.00000000000E+00  0.90140632819E+03  0.90140632819E+03  0.00000000000E+00 0.  1.
          1   -1    0    0  501    0  0.00000000000E+00 -0.00000000000E+00 -0.14167228128E+04  0.14167228128E+04  0.00000000000E+00 0. -1.
         23    2    1    2    0    0 -0.35077235218E+03 -0.23885671759E+03  0.81443920241E+03  0.92229821938E+03  0.85023622843E+02 0.  0.
         11    1    3    3    0    0 -0.15512073045E+03 -0.58909724244E+02  0.28211684455E+03  0.32729605956E+03  0.00000000000E+00 0.  1.
        -11    1    3    3    0    0 -0.19565162173E+03 -0.17994699335E+03  0.53232235786E+03  0.59500215981E+03  0.00000000000E+00 0. -1.
         22    1    1    2    0    0  0.35077235218E+03  0.23885671759E+03 -0.13297556871E+04  0.13958309217E+04  0.00000000000E+00 0. -1.
<mgrwt>
<rscale>  0 0.22601265E+04</rscale>
<asrwt>0</asrwt>
<pdfrwt beam="1">  1        1 0.21795736E+00 0.22601265E+04</pdfrwt>
<pdfrwt beam="2">  1       -1 0.13867790E+00 0.22601265E+04</pdfrwt>
<totfact> 0.29144406E+00</totfact>
</mgrwt>
</event>
<event>
 6    1  0.1831439E-005  0.6009092E+03  0.7818608E-02  0.9903522E-01
         -1   -1    0    0    0  501 -0.00000000000E+00  0.00000000000E+00  0.18649550695E+03  0.18649550695E+03  0.00000000000E+00 0. -1.
          1   -1    0    0  501    0  0.00000000000E+00 -0.00000000000E+00 -0.48404896324E+03  0.48404896324E+03  0.00000000000E+00 0.  1.
         23    2    1    2    0    0  0.15658922755E+03  0.23305700529E+03 -0.24749517620E+03  0.38534000791E+03  0.91636813336E+02 0.  0.
         13    1    3    3    0    0  0.73820393949E+02  0.18058705707E+03 -0.14164505715E+03  0.24109014488E+03  0.00000000000E+00 0.  1.
        -13    1    3    3    0    0  0.82768833601E+02  0.52469948215E+02 -0.10585011905E+03  0.14424986303E+03  0.00000000000E+00 0. -1.
         22    1    1    2    0    0 -0.15658922755E+03 -0.23305700529E+03 -0.50058280099E+02  0.28520446228E+03  0.00000000000E+00 0. -1.
<mgrwt>
<rscale>  0 0.60090917E+03</rscale>
<asrwt>0</asrwt>
<pdfrwt beam="1">  1        1 0.74469071E-01 0.60090917E+03</pdfrwt>
<pdfrwt beam="2">  1       -1 0.28691617E-01 0.60090917E+03</pdfrwt>
<totfact> 0.51662598E+02</totfact>
</mgrwt>
</event>
<event>
 6    1  0.1831439E-005  0.3931621E+04  0.7818608E-02  0.8018485E-01
         -2   -1    0    0    0  501 -0.00000000000E+00  0.00000000000E+00  0.13987602897E+04  0.13987602897E+04  0.00000000000E+00 0.  1.
          2   -1    0    0  501    0  0.00000000000E+00 -0.00000000000E+00 -0.27627399781E+04  0.27627399781E+04  0.00000000000E+00 0. -1.
         23    2    1    2    0    0 -0.13373510007E+04 -0.24853709553E+02 -0.22055722256E+04  0.25811827666E+04  0.93969285585E+02 0.  0.
         13    1    3    3    0    0 -0.10377999635E+04 -0.56207753635E+02 -0.17350030293E+04  0.20224795642E+04  0.00000000000E+00 0.  1.
        -13    1    3    3    0    0 -0.29955103721E+03  0.31354044081E+02 -0.47056919623E+03  0.55870320244E+03  0.00000000000E+00 0. -1.
         22    1    1    2    0    0  0.13373510007E+04  0.24853709553E+02  0.84159253712E+03  0.15803175011E+04  0.00000000000E+00 0.  1.
<mgrwt>
<rscale>  0 0.39316210E+04</rscale>
<asrwt>0</asrwt>
<pdfrwt beam="1">  1        2 0.42503691E+00 0.39316210E+04</pdfrwt>
<pdfrwt beam="2">  1       -2 0.21519389E+00 0.39316210E+04</pdfrwt>
<totfact> 0.20481542E-01</totfact>
</mgrwt>
</event>
<event>
 6    1  0.1831439E-005  0.2342573E+04  0.7818608E-02  0.8461322E-01
          2   -1    0    0  501    0  0.00000000000E+00  0.00000000000E+00  0.12932719831E+04  0.12932719831E+04  0.00000000000E+00 0. -1.
         -2   -1    0    0    0  501 -0.00000000000E+00 -0.00000000000E+00 -0.10608066927E+04  0.10608066927E+04  0.00000000000E+00 0.  1.
         23    2    1    2    0    0 -0.10215288031E+04  0.29253786533E+03 -0.37452504344E+03  0.11303398296E+04  0.91102272364E+02 0.  0.
         13    1    3    3    0    0 -0.53444487717E+03  0.14313675259E+03 -0.14775815600E+03  0.57267087349E+03  0.00000000000E+00 0.  1.
        -13    1    3    3    0    0 -0.48708392592E+03  0.14940111274E+03 -0.22676688744E+03  0.55766895612E+03  0.00000000000E+00 0. -1.
         22    1    1    2    0    0  0.10215288031E+04 -0.29253786533E+03  0.60699033382E+03  0.12237388461E+04  0.00000000000E+00 0. -1.
<mgrwt>
<rscale>  0 0.23425726E+04</rscale>
<asrwt>0</asrwt>
<pdfrwt beam="1">  1        2 0.19896492E+00 0.23425726E+04</pdfrwt>
<pdfrwt beam="2">  1       -2 0.16320103E+00 0.23425726E+04</pdfrwt>
<totfact> 0.35964803E+00</totfact>
</mgrwt>
</event>
<event>
 6    1  0.1831439E-005  0.5944401E+03  0.7818608E-02  0.9917009E-01
          1   -1    0    0  501    0  0.00000000000E+00  0.00000000000E+00  0.92039137274E+03  0.92039137274E+03  0.00000000000E+00 0. -1.
         -1   -1    0    0    0  501 -0.00000000000E+00 -0.00000000000E+00 -0.95980631957E+02  0.95980631957E+02  0.00000000000E+00 0.  1.
         23    2    1    2    0    0  0.31714713672E+02 -0.27905226932E+03  0.29765120227E+03  0.41942007741E+03  0.91874757380E+02 0.  0.
         11    1    3    3    0    0 -0.27990680846E+02 -0.14000228484E+03  0.12419167176E+03  0.18922919782E+03  0.00000000000E+00 0.  1.
        -11    1    3    3    0    0  0.59705394518E+02 -0.13904998449E+03  0.17345953052E+03  0.23019087959E+03  0.00000000000E+00 0. -1.
         22    1    1    2    0    0 -0.31714713672E+02  0.27905226932E+03  0.52675953851E+03  0.59695192728E+03  0.00000000000E+00 0. -1.
<mgrwt>
<rscale>  0 0.59444006E+03</rscale>
<asrwt>0</asrwt>
<pdfrwt beam="1">  1        1 0.14159867E+00 0.59444006E+03</pdfrwt>
<pdfrwt beam="2">  1       -1 0.14766252E-01 0.59444006E+03</pdfrwt>
<totfact> 0.59872971E+02</totfact>
</mgrwt>
</event>
<event>
 6    1  0.1831439E-005  0.1474876E+04  0.7818608E-02  0.8901334E-01
          1   -1    0    0  501    0  0.00000000000E+00  0.00000000000E+00  0.32690673405E+04  0.32690673405E+04  0.00000000000E+00 0. -1.
         -1   -1    0    0    0  501 -0.00000000000E+00 -0.00000000000E+00 -0.16635172001E+03  0.16635172001E+03  0.00000000000E+00 0.  1.
         23    2    1    2    0    0 -0.52578247942E+03 -0.33282213193E+03  0.24664920038E+04  0.25454762098E+04  0.92997540083E+02 0.  0.
         11    1    3    3    0    0 -0.36859756989E+03 -0.28114859698E+03  0.17941700966E+04  0.18530933699E+04  0.00000000000E+00 0. -1.
        -11    1    3    3    0    0 -0.15718490954E+03 -0.51673534956E+02  0.67232190719E+03  0.69238283983E+03  0.00000000000E+00 0.  1.
         22    1    1    2    0    0  0.52578247942E+03  0.33282213193E+03  0.63622361668E+03  0.88994285074E+03  0.00000000000E+00 0. -1.
<mgrwt>
<rscale>  0 0.14748762E+04</rscale>
<asrwt>0</asrwt>
<pdfrwt beam="1">  1        1 0.50293339E+00 0.14748762E+04</pdfrwt>
<pdfrwt beam="2">  1       -1 0.25592575E-01 0.14748762E+04</pdfrwt>
<totfact> 0.49631889E+00</totfact>
</mgrwt>
</event>
<event>
 6    1  0.1831439E-005  0.1300833E+04  0.7818608E-02  0.9028904E-01
          1   -1    0    0  501    0  0.00000000000E+00  0.00000000000E+00  0.39137862283E+03  0.39137862283E+03  0.00000000000E+00 0. -1.
         -1   -1    0    0    0  501 -0.00000000000E+00 -0.00000000000E+00 -0.10809019581E+04  0.10809019581E+04  0.00000000000E+00 0.  1.
         23    2    1    2    0    0 -0.16191224100E+03  0.62274544677E+03 -0.42728048703E+03  0.77744335054E+03  0.88442543196E+02 0.  0.
         11    1    3    3    0    0 -0.17956355131E+02  0.11384474281E+03 -0.11720229145E+03  0.16437589019E+03  0.00000000000E+00 0. -1.
        -11    1    3    3    0    0 -0.14395588587E+03  0.50890070396E+03 -0.31007819559E+03  0.61306746035E+03  0.00000000000E+00 0.  1.
         22    1    1    2    0    0  0.16191224100E+03 -0.62274544677E+03 -0.26224284821E+03  0.69483723036E+03  0.00000000000E+00 0.  1.
<mgrwt>
<rscale>  0 0.13008335E+04</rscale>
<asrwt>0</asrwt>
<pdfrwt beam="1">  1        1 0.60212097E-01 0.13008335E+04</pdfrwt>
<pdfrwt beam="2">  1       -1 0.16629260E+00 0.13008335E+04</pdfrwt>
<totfact> 0.15904425E+01</totfact>
</mgrwt>
</event>
<event>
 6    1  0.1831439E-005  0.1444060E+04  0.7818608E-02  0.8922529E-01
         -1   -1    0    0    0  501 -0.00000000000E+00  0.00000000000E+00  0.94430367580E+03  0.94430367580E+03  0.00000000000E+00 0.  1.
          1   -1    0    0  501    0  0.00000000000E+00 -0.00000000000E+00 -0.55207576404E+03  0.55207576404E+03  0.00000000000E+00 0. -1.
         23    2    1    2    0    0 -0.37912328175E+03  0.87056571873E+02  0.82364413143E+03  0.91548937789E+03  0.91748767462E+02 0.  0.
         13    1    3    3    0    0 -0.38766427665E+02  0.24531656036E+01  0.16255465338E+03  0.16713129351E+03  0.00000000000E+00 0. -1.
        -13    1    3    3    0    0 -0.34035685409E+03  0.84603406269E+02  0.66108947804E+03  0.74835808438E+03  0.00000000000E+00 0.  1.
         22    1    1    2    0    0  0.37912328175E+03 -0.87056571873E+02 -0.43141621967E+03  0.58089006194E+03  0.00000000000E+00 0. -1.
<mgrwt>
<rscale>  0 0.14440598E+04</rscale>
<asrwt>0</asrwt>
<pdfrwt beam="1">  1        1 0.84934733E-01 0.14440598E+04</pdfrwt>
<pdfrwt beam="2">  1       -1 0.14527749E+00 0.14440598E+04</pdfrwt>
<totfact> 0.14254046E+01</totfact>
</mgrwt>
</event>
<event>
 6    1  0.1831439E-005  0.1811104E+04  0.7818608E-02  0.8700417E-01
         -1   -1    0    0    0  501 -0.00000000000E+00  0.00000000000E+00  0.15025196223E+04  0.15025196223E+04  0.00000000000E+00 0.  1.
          1   -1    0    0  501    0  0.00000000000E+00 -0.00000000000E+00 -0.54576613819E+03  0.54576613819E+03  0.00000000000E+00 0. -1.
         23    2    1    2    0    0  0.23245198787E+03 -0.15638220935E+03  0.14508226069E+04  0.14803125039E+04  0.89160252174E+02 0.  0.
         11    1    3    3    0    0  0.18199647463E+03 -0.15821281853E+03  0.11207425598E+04  0.11463934307E+04  0.00000000000E+00 0. -1.
        -11    1    3    3    0    0  0.50455513243E+02  0.18306091771E+01  0.33008004710E+03  0.33391907319E+03  0.00000000000E+00 0.  1.
         22    1    1    2    0    0 -0.23245198787E+03  0.15638220935E+03 -0.49406912278E+03  0.56797325655E+03  0.00000000000E+00 0. -1.
<mgrwt>
<rscale>  0 0.18111039E+04</rscale>
<asrwt>0</asrwt>
<pdfrwt beam="1">  1        1 0.83964022E-01 0.18111039E+04</pdfrwt>
<pdfrwt beam="2">  1       -1 0.23115686E+00 0.18111039E+04</pdfrwt>
<totfact> 0.34283024E+00</totfact>
</mgrwt>
</event>
<event>
 6    1  0.1831439E-005  0.1021663E+04  0.7818608E-02  0.9285100E-01
         -2   -1    0    0    0  501 -0.00000000000E+00  0.00000000000E+00  0.21675479525E+03  0.21675479525E+03  0.00000000000E+00 0. -1.
          2   -1    0    0  501    0  0.00000000000E+00 -0.00000000000E+00 -0.12038886796E+04  0.12038886796E+04  0.00000000000E+00 0.  1.
         23    2    1    2    0    0 -0.15751507035E+02  0.16393125014E+03 -0.11640290158E+04  0.11789547239E+04  0.88595297623E+02 0.  0.
         13    1    3    3    0    0 -0.31457238787E+02  0.10072462588E+03 -0.93212112857E+03  0.93807505375E+03  0.00000000000E+00 0. -1.
        -13    1    3    3    0    0  0.15705731752E+02  0.63206624263E+02 -0.23190788722E+03  0.24087967020E+03  0.00000000000E+00 0.  1.
         22    1    1    2    0    0  0.15751507035E+02 -0.16393125014E+03  0.17689513149E+03  0.24168875086E+03  0.00000000000E+00 0. -1.
<mgrwt>
<rscale>  0 0.10216627E+04</rscale>
<asrwt>0</asrwt>
<pdfrwt beam="1">  1        2 0.18521364E+00 0.10216627E+04</pdfrwt>
<pdfrwt beam="2">  1       -2 0.33346892E-01 0.10216627E+04</pdfrwt>
<totfact> 0.15764621E+02</totfact>
</mgrwt>
</event>
<event>
 6    1  0.1831439E-005  0.4541711E+03  0.7818608E-02  0.1026485E+00
          1   -1    0    0  501    0  0.00000000000E+00  0.00000000000E+00  0.92023822417E+03  0.92023822417E+03  0.00000000000E+00 0. -1.
         -1   -1    0    0    0  501 -0.00000000000E+00 -0.00000000000E+00 -0.56037490869E+02  0.56037490869E+02  0.00000000000E+00 0.  1.
         23    2    1    2    0    0  0.41724491874E+02 -0.12931567281E+03  0.81589524328E+03  0.83206442275E+03  0.90458162369E+02 0.  0.
         13    1    3    3    0    0  0.31253971248E+02 -0.17267635745E+02  0.38725089970E+03  0.38889361178E+03  0.00000000000E+00 0.  1.
        -13    1    3    3    0    0  0.10470520626E+02 -0.11204803707E+03  0.42864434358E+03  0.44317081097E+03  0.00000000000E+00 0. -1.
         22    1    1    2    0    0 -0.41724491874E+02  0.12931567281E+03  0.48305490019E+02  0.14421129229E+03  0.00000000000E+00 0.  1.
<mgrwt>
<rscale>  0 0.45417107E+03</rscale>
<asrwt>0</asrwt>
<pdfrwt beam="1">  1        1 0.14157510E+00 0.45417107E+03</pdfrwt>
<pdfrwt beam="2">  1       -1 0.86211531E-02 0.45417107E+03</pdfrwt>
<totfact> 0.14111236E+03</totfact>
</mgrwt>
</event>
<event>
 6    1  0.1831439E-005  0.1320210E+04  0.7818608E-02  0.9013691E-01
         -1   -1    0    0    0  501 -0.00000000000E+00  0.00000000000E+00  0.22772488599E+03  0.22772488599E+03  0.00000000000E+00 0.  1.
          1   -1    0    0  501    0  0.00000000000E+00 -0.00000000000E+00 -0.19134417318E+04  0.19134417318E+04  0.00000000000E+00 0. -1.
         23    2    1    2    0    0 -0.10748393810E+03 -0.59499902392E+03 -0.12635977384E+04  0.14037649794E+04  0.91105639186E+02 0.  0.
         13    1    3    3    0    0 -0.41421761538E+02 -0.44828636861E+03 -0.90936707773E+03  0.10147043474E+04  0.00000000000E+00 0.  1.
        -13    1    3    3    0    0 -0.66062176564E+02 -0.14671265530E+03 -0.35423066072E+03  0.38906063203E+03  0.00000000000E+00 0. -1.
         22    1    1    2    0    0  0.10748393810E+03  0.59499902392E+03 -0.42211910733E+03  0.73740163831E+03  0.00000000000E+00 0.  1.
<mgrwt>
<rscale>  0 0.13202095E+04</rscale>
<asrwt>0</asrwt>
<pdfrwt beam="1">  1        1 0.29437564E+00 0.13202095E+04</pdfrwt>
<pdfrwt beam="2">  1       -1 0.35034599E-01 0.13202095E+04</pdfrwt>
<totfact> 0.25947768E+01</totfact>
</mgrwt>
</event>
<event>
 6    1  0.1831439E-005  0.7320849E+03  0.7818608E-02  0.9663883E-01
         -1   -1    0    0    0  501 -0.00000000000E+00  0.00000000000E+00  0.13925448162E+03  0.13925448162E+03  0.00000000000E+00 0.  1.
          1   -1    0    0  501    0  0.00000000000E+00 -0.00000000000E+00 -0.96217436793E+03  0.96217436793E+03  0.00000000000E+00 0. -1.
         23    2    1    2    0    0  0.42311050165E+01  0.17148667679E+03 -0.89457764762E+03  0.91552452651E+03  0.92143412484E+02 0.  0.
         13    1    3    3    0    0 -0.34468075916E+02  0.10071484211E+03 -0.62981151762E+03  0.63874413923E+03  0.00000000000E+00 0. -1.
        -13    1    3    3    0    0  0.38699180933E+02  0.70771834680E+02 -0.26476613000E+03  0.27678038728E+03  0.00000000000E+00 0.  1.
         22    1    1    2    0    0 -0.42311050165E+01 -0.17148667679E+03  0.71657761306E+02  0.18590432303E+03  0.00000000000E+00 0.  1.
<mgrwt>
<rscale>  0 0.73208495E+03</rscale>
<asrwt>0</asrwt>
<pdfrwt beam="1">  1        1 0.14802683E+00 0.73208495E+03</pdfrwt>
<pdfrwt beam="2">  1       -1 0.21423766E-01 0.73208495E+03</pdfrwt>
<totfact> 0.29866493E+02</totfact>
</mgrwt>
</event>
<event>
 6    1  0.1831439E-005  0.2524678E+04  0.7818608E-02  0.8394246E-01
         -1   -1    0    0    0  501 -0.00000000000E+00  0.00000000000E+00  0.82835037096E+03  0.82835037096E+03  0.00000000000E+00 0.  1.
          1   -1    0    0  501    0  0.00000000000E+00 -0.00000000000E+00 -0.19237027237E+04  0.19237027237E+04  0.00000000000E+00 0. -1.
         23    2    1    2    0    0  0.12566336130E+03  0.82252741214E+03  0.48341555252E+03  0.96743808777E+03  0.99514989529E+02 0.  0.
         11    1    3    3    0    0  0.11730240957E+03  0.44016536031E+03  0.25945106893E+03  0.52423301773E+03  0.00000000000E+00 0.  1.
        -11    1    3    3    0    0  0.83609517246E+01  0.38236205184E+03  0.22396448359E+03  0.44320507004E+03  0.00000000000E+00 0. -1.
         22    1    1    2    0    0 -0.12566336130E+03 -0.82252741214E+03 -0.15787679052E+04  0.17846150068E+04  0.00000000000E+00 0. -1.
<mgrwt>
<rscale>  0 0.25246781E+04</rscale>
<asrwt>0</asrwt>
<pdfrwt beam="1">  1        1 0.29595426E+00 0.25246781E+04</pdfrwt>
<pdfrwt beam="2">  1       -1 0.12743852E+00 0.25246781E+04</pdfrwt>
<totfact> 0.15868599E+00</totfact>
</mgrwt>
</event>
<event>
 6    1  0.1831439E-005  0.2663223E+04  0.7818608E-02  0.8347038E-01
         -2   -1    0    0    0  501 -0.00000000000E+00  0.00000000000E+00  0.29102521273E+04  0.29102521273E+04  0.00000000000E+00 0.  1.
          2   -1    0    0  501    0  0.00000000000E+00 -0.00000000000E+00 -0.60929037552E+03  0.60929037552E+03  0.00000000000E+00 0. -1.
         23    2    1    2    0    0  0.12765055441E+04  0.32596386963E+03  0.13941976812E+04  0.19201864048E+04  0.87234204350E+02 0.  0.
         13    1    3    3    0    0  0.16956508098E+03  0.38310648219E+02  0.14367148017E+03  0.22552498014E+03  0.00000000000E+00 0.  1.
        -13    1    3    3    0    0  0.11069404632E+04  0.28765322141E+03  0.12505262010E+04  0.16946614247E+04  0.00000000000E+00 0. -1.
         22    1    1    2    0    0 -0.12765055441E+04 -0.32596386963E+03  0.90676407059E+03  0.15993560980E+04  0.00000000000E+00 0. -1.
<mgrwt>
<rscale>  0 0.26632226E+04</rscale>
<asrwt>0</asrwt>
<pdfrwt beam="1">  1        2 0.93736983E-01 0.26632226E+04</pdfrwt>
<pdfrwt beam="2">  1       -2 0.44773109E+00 0.26632226E+04</pdfrwt>
<totfact> 0.15372224E-01</totfact>
</mgrwt>
</event>
<event>
 6    1  0.1831439E-005  0.2632963E+04  0.7818608E-02  0.8357090E-01
         -2   -1    0    0    0  501 -0.00000000000E+00  0.00000000000E+00  0.10901064173E+04  0.10901064173E+04  0.00000000000E+00 0.  1.
          2   -1    0    0  501    0  0.00000000000E+00 -0.00000000000E+00 -0.15898661528E+04  0.15898661528E+04  0.00000000000E+00 0. -1.
         23    2    1    2    0    0 -0.74969597831E+03 -0.77642220655E+03 -0.10145657436E+04  0.14841880039E+04  0.92708576497E+02 0.  0.
         13    1    3    3    0    0 -0.59271060478E+03 -0.63135197464E+03 -0.76383350357E+03  0.11547089668E+04  0.00000000000E+00 0.  1.
        -13    1    3    3    0    0 -0.15698537353E+03 -0.14507023191E+03 -0.25073224001E+03  0.32947903707E+03  0.00000000000E+00 0. -1.
         22    1    1    2    0    0  0.74969597831E+03  0.77642220655E+03  0.51480600807E+03  0.11957845662E+04  0.00000000000E+00 0. -1.
<mgrwt>
<rscale>  0 0.26329628E+04</rscale>
<asrwt>0</asrwt>
<pdfrwt beam="1">  1        2 0.24459479E+00 0.26329628E+04</pdfrwt>
<pdfrwt beam="2">  1       -2 0.16770868E+00 0.26329628E+04</pdfrwt>
<totfact> 0.22063714E+00</totfact>
</mgrwt>
</event>
<event>
 6    1  0.1831439E-005  0.3224838E+04  0.7818608E-02  0.8182288E-01
          2   -1    0    0  501    0  0.00000000000E+00  0.00000000000E+00  0.85826244725E+03  0.85826244725E+03  0.00000000000E+00 0.  1.
         -2   -1    0    0    0  501 -0.00000000000E+00 -0.00000000000E+00 -0.30292534014E+04  0.30292534014E+04  0.00000000000E+00 0. -1.
         23    2    1    2    0    0  0.26701972071E+03  0.46877262001E+03 -0.29164736925E+04  0.29673029310E+04  0.89557718632E+02 0.  0.
         13    1    3    3    0    0  0.11634374560E+03  0.18625562342E+03 -0.95963325302E+03  0.98444045259E+03  0.00000000000E+00 0. -1.
        -13    1    3    3    0    0  0.15067597511E+03  0.28251699659E+03 -0.19568404395E+04  0.19828624784E+04  0.00000000000E+00 0.  1.
         22    1    1    2    0    0 -0.26701972071E+03 -0.46877262001E+03  0.74548273837E+03  0.92021291760E+03  0.00000000000E+00 0.  1.
<mgrwt>
<rscale>  0 0.32248376E+04</rscale>
<asrwt>0</asrwt>
<pdfrwt beam="1">  1        2 0.13204037E+00 0.32248376E+04</pdfrwt>
<pdfrwt beam="2">  1       -2 0.46603899E+00 0.32248376E+04</pdfrwt>
<totfact> 0.71511402E-02</totfact>
</mgrwt>
</event>
<event>
 6    1  0.1831439E-005  0.3857497E+03  0.7818608E-02  0.1048829E+00
          1   -1    0    0  501    0  0.00000000000E+00  0.00000000000E+00  0.87079958276E+03  0.87079958276E+03  0.00000000000E+00 0. -1.
         -1   -1    0    0    0  501 -0.00000000000E+00 -0.00000000000E+00 -0.42720174627E+02  0.42720174627E+02  0.00000000000E+00 0.  1.
         23    2    1    2    0    0  0.14324489822E+03  0.76950845211E+01  0.17096643823E+03  0.24093090050E+03  0.90773678020E+02 0.  0.
         11    1    3    3    0    0  0.14213853650E+03 -0.11443182447E+02  0.16978632467E+03  0.22172439205E+03  0.00000000000E+00 0.  1.
        -11    1    3    3    0    0  0.11063617231E+01  0.19138266968E+02  0.11801135544E+01  0.19206508449E+02  0.00000000000E+00 0. -1.
         22    1    1    2    0    0 -0.14324489822E+03 -0.76950845211E+01  0.65711296991E+03  0.67258885689E+03  0.00000000000E+00 0. -1.
<mgrwt>
<rscale>  0 0.38574971E+03</rscale>
<asrwt>0</asrwt>
<pdfrwt beam="1">  1        1 0.13396915E+00 0.38574971E+03</pdfrwt>
<pdfrwt beam="2">  1       -1 0.65723352E-02 0.38574971E+03</pdfrwt>
<totfact> 0.23499230E+03</totfact>
</mgrwt>
</event>
<event>
 6    1  0.1831439E-005  0.1055747E+04  0.7818608E-02  0.9249431E-01
         -2   -1    0    0    0  501 -0.00000000000E+00  0.00000000000E+00  0.11441680537E+03  0.11441680537E+03  0.00000000000E+00 0. -1.
          2   -1    0    0  501    0  0.00000000000E+00 -0.00000000000E+00 -0.24353981200E+04  0.24353981200E+04  0.00000000000E+00 0.  1.
         23    2    1    2    0    0 -0.35137836989E+03 -0.31706528428E+03 -0.62589607361E+03  0.78989699330E+03  0.90521885398E+02 0.  0.
         11    1    3    3    0    0 -0.28163458999E+03 -0.23898567245E+03 -0.54120903092E+03  0.65523996297E+03  0.00000000000E+00 0. -1.
        -11    1    3    3    0    0 -0.69743779897E+02 -0.78079611831E+02 -0.84687042687E+02  0.13465703033E+03  0.00000000000E+00 0.  1.
         22    1    1    2    0    0  0.35137836989E+03  0.31706528428E+03 -0.16950852410E+04  0.17599179321E+04  0.00000000000E+00 0.  1.
<mgrwt>
<rscale>  0 0.10557471E+04</rscale>
<asrwt>0</asrwt>
<pdfrwt beam="1">  1        2 0.37467664E+00 0.10557471E+04</pdfrwt>
<pdfrwt beam="2">  1       -2 0.17602585E-01 0.10557471E+04</pdfrwt>
<totfact> 0.10175321E+02</totfact>
</mgrwt>
</event>
<event>
 6    1  0.1831439E-005  0.1754788E+04  0.7818608E-02  0.8730719E-01
         -2   -1    0    0    0  501 -0.00000000000E+00  0.00000000000E+00  0.36640877240E+03  0.36640877240E+03  0.00000000000E+00 0.  1.
          2   -1    0    0  501    0  0.00000000000E+00 -0.00000000000E+00 -0.21009879749E+04  0.21009879749E+04  0.00000000000E+00 0. -1.
         23    2    1    2    0    0 -0.75126673997E+03 -0.26332837032E+02 -0.24032637125E+03  0.79470829555E+03  0.93324045195E+02 0.  0.
         13    1    3    3    0    0 -0.39525630369E+03  0.29377087650E+02 -0.14421173558E+03  0.42176721490E+03  0.00000000000E+00 0. -1.
        -13    1    3    3    0    0 -0.35601043628E+03 -0.55709924683E+02 -0.96114635662E+02  0.37294108065E+03  0.00000000000E+00 0.  1.
         22    1    1    2    0    0  0.75126673997E+03  0.26332837032E+02 -0.14942528312E+04  0.16726884517E+04  0.00000000000E+00 0. -1.
<mgrwt>
<rscale>  0 0.17547882E+04</rscale>
<asrwt>0</asrwt>
<pdfrwt beam="1">  1        2 0.32322893E+00 0.17547882E+04</pdfrwt>
<pdfrwt beam="2">  1       -2 0.56370579E-01 0.17547882E+04</pdfrwt>
<totfact> 0.16423803E+01</totfact>
</mgrwt>
</event>
<event>
 6    1  0.1831439E-005  0.3124153E+04  0.7818608E-02  0.8209140E-01
         -1   -1    0    0    0  501 -0.00000000000E+00  0.00000000000E+00  0.24056642072E+04  0.24056642072E+04  0.00000000000E+00 0.  1.
          1   -1    0    0  501    0  0.00000000000E+00 -0.00000000000E+00 -0.10143073091E+04  0.10143073091E+04  0.00000000000E+00 0. -1.
         23    2    1    2    0    0 -0.10069348398E+04  0.10452448543E+04  0.13246178789E+04  0.19670748670E+04  0.91194463743E+02 0.  0.
         13    1    3    3    0    0 -0.49132682652E+03  0.52632315760E+03  0.71682249796E+03  0.10159983318E+04  0.00000000000E+00 0.  1.
        -13    1    3    3    0    0 -0.51560801324E+03  0.51892169672E+03  0.60779538092E+03  0.95107653515E+03  0.00000000000E+00 0. -1.
         22    1    1    2    0    0  0.10069348398E+04 -0.10452448543E+04  0.66739019178E+02  0.14528966493E+04  0.00000000000E+00 0. -1.
<mgrwt>
<rscale>  0 0.31241529E+04</rscale>
<asrwt>0</asrwt>
<pdfrwt beam="1">  1        1 0.15604728E+00 0.31241529E+04</pdfrwt>
<pdfrwt beam="2">  1       -1 0.37010218E+00 0.31241529E+04</pdfrwt>
<totfact> 0.14159394E-01</totfact>
</mgrwt>
</event>
<event>
 6    1  0.1831439E-005  0.1175984E+04  0.7818608E-02  0.9134141E-01
         -2   -1    0    0    0  501 -0.00000000000E+00  0.00000000000E+00  0.26790413753E+03  0.26790413753E+03  0.00000000000E+00 0.  1.
          2   -1    0    0  501    0  0.00000000000E+00 -0.00000000000E+00 -0.12905165491E+04  0.12905165491E+04  0.00000000000E+00 0. -1.
         23    2    1    2    0    0  0.50241647228E+03 -0.22822914193E+02 -0.11978382691E+03  0.52495919712E+03  0.91053810522E+02 0.  0.
         13    1    3    3    0    0  0.20674002964E+03 -0.49575682171E+02 -0.70676294337E+02  0.22404090408E+03  0.00000000000E+00 0. -1.
        -13    1    3    3    0    0  0.29567644264E+03  0.26752767978E+02 -0.49107532575E+02  0.30091829304E+03  0.00000000000E+00 0.  1.
         22    1    1    2    0    0 -0.50241647228E+03  0.22822914193E+02 -0.90282858462E+03  0.10334614895E+04  0.00000000000E+00 0. -1.
<mgrwt>
<rscale>  0 0.11759842E+04</rscale>
<asrwt>0</asrwt>
<pdfrwt beam="1">  1        2 0.19854101E+00 0.11759842E+04</pdfrwt>
<pdfrwt beam="2">  1       -2 0.41216020E-01 0.11759842E+04</pdfrwt>
<totfact> 0.92211143E+01</totfact>
</mgrwt>
</event>
<event>
 6    1  0.1831439E-005  0.1632756E+04  0.7818608E-02  0.8800674E-01
         -2   -1    0    0    0  501 -0.00000000000E+00  0.00000000000E+00  0.14867939873E+03  0.14867939873E+03  0.00000000000E+00 0.  1.
          2   -1    0    0  501    0  0.00000000000E+00 -0.00000000000E+00 -0.44826196761E+04  0.44826196761E+04  0.00000000000E+00 0. -1.
         23    2    1    2    0    0  0.76230616460E+03 -0.28169307279E+03 -0.20479414634E+04  0.22051390938E+04  0.90069472171E+02 0.  0.
         11    1    3    3    0    0  0.24993215280E+03 -0.11643721079E+03 -0.59896611021E+03  0.65938160896E+03  0.00000000000E+00 0. -1.
        -11    1    3    3    0    0  0.51237401180E+03 -0.16525586200E+03 -0.14489753532E+04  0.15457574848E+04  0.00000000000E+00 0.  1.
         22    1    1    2    0    0 -0.76230616460E+03  0.28169307279E+03 -0.22859988140E+04  0.24261599810E+04  0.00000000000E+00 0. -1.
<mgrwt>
<rscale>  0 0.16327562E+04</rscale>
<asrwt>0</asrwt>
<pdfrwt beam="1">  1        2 0.68963376E+00 0.16327562E+04</pdfrwt>
<pdfrwt beam="2">  1       -2 0.22873755E-01 0.16327562E+04</pdfrwt>
<totfact> 0.21219094E+00</totfact>
</mgrwt>
</event>
<event>
 6    1  0.1831439E-005  0.1301471E+04  0.7818608E-02  0.9028399E-01
         -1   -1    0    0    0  501 -0.00000000000E+00  0.00000000000E+00  0.59969816851E+03  0.59969816851E+03  0.00000000000E+00 0. -1.
          1   -1    0    0  501    0  0.00000000000E+00 -0.00000000000E+00 -0.70611655142E+03  0.70611655142E+03  0.00000000000E+00 0.  1.
         23    2    1    2    0    0 -0.52795518157E+03  0.24230391808E+03  0.23393460328E+03  0.63254804344E+03  0.89127808132E+02 0.  0.
         13    1    3    3    0    0 -0.10203439885E+03  0.39415950023E+02  0.82692074341E+02  0.13712262696E+03  0.00000000000E+00 0.  1.
        -13    1    3    3    0    0 -0.42592078272E+03  0.20288796806E+03  0.15124252894E+03  0.49542541648E+03  0.00000000000E+00 0. -1.
         22    1    1    2    0    0  0.52795518157E+03 -0.24230391808E+03 -0.34035298619E+03  0.67326667649E+03  0.00000000000E+00 0.  1.
<mgrwt>
<rscale>  0 0.13014712E+04</rscale>
<asrwt>0</asrwt>
<pdfrwt beam="1">  1        1 0.10863331E+00 0.13014712E+04</pdfrwt>
<pdfrwt beam="2">  1       -1 0.92261257E-01 0.13014712E+04</pdfrwt>
<totfact> 0.30210115E+01</totfact>
</mgrwt>
</event>
<event>
 6    1  0.1831439E-005  0.6133546E+03  0.7818608E-02  0.9878080E-01
          1   -1    0    0  501    0  0.00000000000E+00  0.00000000000E+00  0.60242856089E+03  0.60242856089E+03  0.00000000000E+00 0. -1.
         -1   -1    0    0    0  501 -0.00000000000E+00 -0.00000000000E+00 -0.15611971845E+03  0.15611971845E+03  0.00000000000E+00 0.  1.
         23    2    1    2    0    0  0.70192425967E+02  0.27920942296E+03  0.12425961303E+03  0.32657538123E+03  0.91247737871E+02 0.  0.
         11    1    3    3    0    0  0.88484375022E+01 -0.38350906009E-01 -0.76586878972E+01  0.11702641468E+02  0.00000000000E+00 0. -1.
        -11    1    3    3    0    0  0.61343988465E+02  0.27924777386E+03  0.13191830092E+03  0.31487273977E+03  0.00000000000E+00 0.  1.
         22    1    1    2    0    0 -0.70192425967E+02 -0.27920942296E+03  0.32204922942E+03  0.43197289811E+03  0.00000000000E+00 0. -1.
<mgrwt>
<rscale>  0 0.61335464E+03</rscale>
<asrwt>0</asrwt>
<pdfrwt beam="1">  1        1 0.92681316E-01 0.61335464E+03</pdfrwt>
<pdfrwt beam="2">  1       -1 0.24018419E-01 0.61335464E+03</pdfrwt>
<totfact> 0.51596428E+02</totfact>
</mgrwt>
</event>
<event>
 6    1  0.2083482E-005  0.3678218E+04  0.7818608E-02  0.8072806E-01
         -2   -1    0    0    0  501 -0.00000000000E+00  0.00000000000E+00  0.11851176345E+04  0.11851176345E+04  0.00000000000E+00 0.  1.
          2   -1    0    0  501    0  0.00000000000E+00 -0.00000000000E+00 -0.28539965166E+04  0.28539965166E+04  0.00000000000E+00 0. -1.
         23    2    1    2    0    0  0.24105191713E+02  0.17092113336E+04 -0.15766947454E+04  0.23272489817E+04  0.90205650034E+02 0.  0.
         13    1    3    3    0    0 -0.64313894214E+01  0.64627143065E+03 -0.65208744521E+03  0.91811010290E+03  0.00000000000E+00 0.  1.
        -13    1    3    3    0    0  0.30536581134E+02  0.10629399030E+04 -0.92460730016E+03  0.14091388788E+04  0.00000000000E+00 0. -1.
         22    1    1    2    0    0 -0.24105191713E+02 -0.17092113336E+04 -0.92184136731E+02  0.17118651695E+04  0.00000000000E+00 0.  1.
<mgrwt>
<rscale>  0 0.36782178E+04</rscale>
<asrwt>0</asrwt>
<pdfrwt beam="1">  1        2 0.43907639E+00 0.36782178E+04</pdfrwt>
<pdfrwt beam="2">  1       -2 0.18232579E+00 0.36782178E+04</pdfrwt>
<totfact> 0.30329221E-01</totfact>
</mgrwt>
</event>
<event>
 6    1  0.1831439E-005  0.8875365E+03  0.7818608E-02  0.9441297E-01
         -1   -1    0    0    0  501 -0.00000000000E+00  0.00000000000E+00  0.49169427030E+03  0.49169427030E+03  0.00000000000E+00 0.  1.
          1   -1    0    0  501    0  0.00000000000E+00 -0.00000000000E+00 -0.40051363110E+03  0.40051363110E+03  0.00000000000E+00 0. -1.
         23    2    1    2    0    0 -0.19577310563E+03 -0.35193285300E+03  0.22139100315E+03  0.46896024246E+03  0.93412476837E+02 0.  0.
         11    1    3    3    0    0 -0.12743065782E+03 -0.13726744119E+03  0.85745229191E+02  0.20599312438E+03  0.00000000000E+00 0. -1.
        -11    1    3    3    0    0 -0.68342447806E+02 -0.21466541182E+03  0.13564577396E+03  0.26296711809E+03  0.00000000000E+00 0.  1.
         22    1    1    2    0    0  0.19577310563E+03  0.35193285300E+03 -0.13021036395E+03  0.42324765893E+03  0.00000000000E+00 0. -1.
<mgrwt>
<rscale>  0 0.88753650E+03</rscale>
<asrwt>0</asrwt>
<pdfrwt beam="1">  1        1 0.61617482E-01 0.88753650E+03</pdfrwt>
<pdfrwt beam="2">  1       -1 0.75645273E-01 0.88753650E+03</pdfrwt>
<totfact> 0.10612988E+02</totfact>
</mgrwt>
</event>
<event>
 6    1  0.1831439E-005  0.4036755E+04  0.7818608E-02  0.7997173E-01
         -2   -1    0    0    0  501 -0.00000000000E+00  0.00000000000E+00  0.17438009020E+04  0.17438009020E+04  0.00000000000E+00 0.  1.
          2   -1    0    0  501    0  0.00000000000E+00 -0.00000000000E+00 -0.23361890584E+04  0.23361890584E+04  0.00000000000E+00 0. -1.
         23    2    1    2    0    0 -0.13278628928E+03 -0.11052262778E+04 -0.19967468998E+04  0.22879573702E+04  0.92700713904E+02 0.  0.
         11    1    3    3    0    0 -0.81841752192E+02 -0.48197361207E+03 -0.95739662312E+03  0.10749906647E+04  0.00000000000E+00 0.  1.
        -11    1    3    3    0    0 -0.50944537087E+02 -0.62325266568E+03 -0.10393502767E+04  0.12129667056E+04  0.00000000000E+00 0. -1.
         22    1    1    2    0    0  0.13278628928E+03  0.11052262778E+04  0.14043587435E+04  0.17920325901E+04  0.00000000000E+00 0.  1.
<mgrwt>
<rscale>  0 0.40367554E+04</rscale>
<asrwt>0</asrwt>
<pdfrwt beam="1">  1        2 0.35941370E+00 0.40367554E+04</pdfrwt>
<pdfrwt beam="2">  1       -2 0.26827706E+00 0.40367554E+04</pdfrwt>
<totfact> 0.16888307E-01</totfact>
</mgrwt>
</event>
<event>
 6    1  0.1831439E-005  0.7224817E+03  0.7818608E-02  0.9679540E-01
          2   -1    0    0  501    0  0.00000000000E+00  0.00000000000E+00  0.56980463560E+03  0.56980463560E+03  0.00000000000E+00 0. -1.
         -2   -1    0    0    0  501 -0.00000000000E+00 -0.00000000000E+00 -0.22901700100E+03  0.22901700100E+03  0.00000000000E+00 0.  1.
         23    2    1    2    0    0 -0.67625902185E+02 -0.27175046408E+03 -0.68960110394E+02  0.30252052648E+03  0.91332331323E+02 0.  0.
         13    1    3    3    0    0 -0.44090638035E+02 -0.11408502571E+03 -0.74138463606E+02  0.14302408622E+03  0.00000000000E+00 0.  1.
        -13    1    3    3    0    0 -0.23535264150E+02 -0.15766543836E+03  0.51783532113E+01  0.15949644026E+03  0.00000000000E+00 0. -1.
         22    1    1    2    0    0  0.67625902185E+02  0.27175046408E+03  0.40974774499E+03  0.49630111011E+03  0.00000000000E+00 0. -1.
<mgrwt>
<rscale>  0 0.72248169E+03</rscale>
<asrwt>0</asrwt>
<pdfrwt beam="1">  1        2 0.87662252E-01 0.72248169E+03</pdfrwt>
<pdfrwt beam="2">  1       -2 0.35233385E-01 0.72248169E+03</pdfrwt>
<totfact> 0.40194212E+02</totfact>
</mgrwt>
</event>
<event>
 6    1  0.1831439E-005  0.7992106E+03  0.7818608E-02  0.9561160E-01
          2   -1    0    0  501    0  0.00000000000E+00  0.00000000000E+00  0.17571132200E+03  0.17571132200E+03  0.00000000000E+00 0. -1.
         -2   -1    0    0    0  501 -0.00000000000E+00 -0.00000000000E+00 -0.90878836631E+03  0.90878836631E+03  0.00000000000E+00 0.  1.
         23    2    1    2    0    0  0.14205114598E+03 -0.67377636852E+01  0.12654566563E+03  0.21319312401E+03  0.95987379917E+02 0.  0.
         13    1    3    3    0    0  0.70777756068E+02  0.63803731791E+01  0.44429679721E+01  0.71203510309E+02  0.00000000000E+00 0.  1.
        -13    1    3    3    0    0  0.71273389908E+02 -0.13118136864E+02  0.12210269766E+03  0.14198961370E+03  0.00000000000E+00 0. -1.
         22    1    1    2    0    0 -0.14205114598E+03  0.67377636852E+01 -0.85962270994E+03  0.87130656429E+03  0.00000000000E+00 0.  1.
<mgrwt>
<rscale>  0 0.79921062E+03</rscale>
<asrwt>0</asrwt>
<pdfrwt beam="1">  1        2 0.27032510E-01 0.79921062E+03</pdfrwt>
<pdfrwt beam="2">  1       -2 0.13981360E+00 0.79921062E+03</pdfrwt>
<totfact> 0.72779029E+01</totfact>
</mgrwt>
</event>
<event>
 6    1  0.1831439E-005  0.5015825E+04  0.7818608E-02  0.7826071E-01
         -1   -1    0    0    0  501 -0.00000000000E+00  0.00000000000E+00  0.29479087403E+04  0.29479087403E+04  0.00000000000E+00 0.  1.
          1   -1    0    0  501    0  0.00000000000E+00 -0.00000000000E+00 -0.21335886525E+04  0.21335886525E+04  0.00000000000E+00 0. -1.
         23    2    1    2    0    0  0.89669314600E+03 -0.23389993006E+04  0.30410058768E+03  0.25250740584E+04  0.92441907817E+02 0.  0.
         13    1    3    3    0    0  0.64182569897E+03 -0.17484736790E+04  0.19537635192E+03  0.18727713028E+04  0.00000000000E+00 0. -1.
        -13    1    3    3    0    0  0.25486744703E+03 -0.59052562168E+03  0.10872423575E+03  0.65230275552E+03  0.00000000000E+00 0.  1.
         22    1    1    2    0    0 -0.89669314600E+03  0.23389993006E+04  0.51021950015E+03  0.25564233344E+04  0.00000000000E+00 0. -1.
<mgrwt>
<rscale>  0 0.50158248E+04</rscale>
<asrwt>0</asrwt>
<pdfrwt beam="1">  1        1 0.32824441E+00 0.50158248E+04</pdfrwt>
<pdfrwt beam="2">  1       -1 0.45352442E+00 0.50158248E+04</pdfrwt>
<totfact> 0.53477773E-03</totfact>
</mgrwt>
</event>
<event>
 6    1  0.1831439E-005  0.1900144E+04  0.7818608E-02  0.8654785E-01
          1   -1    0    0  501    0  0.00000000000E+00  0.00000000000E+00  0.17291182537E+04  0.17291182537E+04  0.00000000000E+00 0. -1.
         -1   -1    0    0    0  501 -0.00000000000E+00 -0.00000000000E+00 -0.52202151389E+03  0.52202151389E+03  0.00000000000E+00 0.  1.
         23    2    1    2    0    0  0.74977909769E+03 -0.50791126881E+03  0.27348991065E+03  0.95046138161E+03  0.91856161419E+02 0.  0.
         13    1    3    3    0    0  0.28881028081E+03 -0.14778238382E+03  0.11758906897E+03  0.34507709343E+03  0.00000000000E+00 0. -1.
        -13    1    3    3    0    0  0.46096881688E+03 -0.36012888499E+03  0.15590084168E+03  0.60538428818E+03  0.00000000000E+00 0.  1.
         22    1    1    2    0    0 -0.74977909769E+03  0.50791126881E+03  0.93360682919E+03  0.13006783860E+04  0.00000000000E+00 0. -1.
<mgrwt>
<rscale>  0 0.19001441E+04</rscale>
<asrwt>0</asrwt>
<pdfrwt beam="1">  1        1 0.26601819E+00 0.19001441E+04</pdfrwt>
<pdfrwt beam="2">  1       -1 0.80311003E-01 0.19001441E+04</pdfrwt>
<totfact> 0.65892813E+00</totfact>
</mgrwt>
</event>
<event>
 6    1  0.1831439E-005  0.2506722E+04  0.7818608E-02  0.8400595E-01
         -1   -1    0    0    0  501 -0.00000000000E+00  0.00000000000E+00  0.17325252864E+04  0.17325252864E+04  0.00000000000E+00 0.  1.
          1   -1    0    0  501    0  0.00000000000E+00 -0.00000000000E+00 -0.90671882836E+03  0.90671882836E+03  0.00000000000E+00 0. -1.
         23    2    1    2    0    0 -0.19219688588E+01 -0.11415749038E+04 -0.12708218768E+03  0.11522358007E+04  0.91107096708E+02 0.  0.
         11    1    3    3    0    0 -0.29722094394E+02 -0.19592614203E+03 -0.40137635051E+02  0.20219170550E+03  0.00000000000E+00 0.  1.
        -11    1    3    3    0    0  0.27800125535E+02 -0.94564876177E+03 -0.86944552634E+02  0.95004409521E+03  0.00000000000E+00 0. -1.
         22    1    1    2    0    0  0.19219688588E+01  0.11415749038E+04  0.95288864577E+03  0.14870083141E+04  0.00000000000E+00 0.  1.
<mgrwt>
<rscale>  0 0.25067216E+04</rscale>
<asrwt>0</asrwt>
<pdfrwt beam="1">  1        1 0.13949520E+00 0.25067216E+04</pdfrwt>
<pdfrwt beam="2">  1       -1 0.26654235E+00 0.25067216E+04</pdfrwt>
<totfact> 0.86795690E-01</totfact>
</mgrwt>
</event>
<event>
 6    1  0.1831439E-005  0.1815039E+04  0.7818608E-02  0.8698342E-01
         -2   -1    0    0    0  501 -0.00000000000E+00  0.00000000000E+00  0.99108550065E+03  0.99108550065E+03  0.00000000000E+00 0.  1.
          2   -1    0    0  501    0  0.00000000000E+00 -0.00000000000E+00 -0.83099977304E+03  0.83099977304E+03  0.00000000000E+00 0. -1.
         23    2    1    2    0    0  0.50907104469E+03 -0.56092694872E+03  0.57787877038E+03  0.95701683887E+03  0.90249577725E+02 0.  0.
         13    1    3    3    0    0  0.42255943831E+03 -0.42379031312E+03  0.48379711736E+03  0.76955464989E+03  0.00000000000E+00 0. -1.
        -13    1    3    3    0    0  0.86511606382E+02 -0.13713663560E+03  0.94081653013E+02  0.18746218897E+03  0.00000000000E+00 0.  1.
         22    1    1    2    0    0 -0.50907104469E+03  0.56092694872E+03 -0.41779304277E+03  0.86506843483E+03  0.00000000000E+00 0. -1.
<mgrwt>
<rscale>  0 0.18150392E+04</rscale>
<asrwt>0</asrwt>
<pdfrwt beam="1">  1        2 0.12784612E+00 0.18150392E+04</pdfrwt>
<pdfrwt beam="2">  1       -2 0.15247469E+00 0.18150392E+04</pdfrwt>
<totfact> 0.88499875E+00</totfact>
</mgrwt>
</event>
<event>
 6    1  0.1831439E-005  0.1503166E+04  0.7818608E-02  0.8882350E-01
          1   -1    0    0  501    0  0.00000000000E+00  0.00000000000E+00  0.85055125589E+03  0.85055125589E+03  0.00000000000E+00 0. -1.
         -1   -1    0    0    0  501 -0.00000000000E+00 -0.00000000000E+00 -0.66413025602E+03  0.66413025602E+03  0.00000000000E+00 0.  1.
         23    2    1    2    0    0 -0.20341969218E+03  0.60132162838E+03  0.49392255307E+03  0.80932736176E+03  0.89911168023E+02 0.  0.
         11    1    3    3    0    0 -0.32443996346E+02  0.31167048808E+02  0.24273341821E+02  0.51119398993E+02  0.00000000000E+00 0.  1.
        -11    1    3    3    0    0 -0.17097569583E+03  0.57015457957E+03  0.46964921125E+03  0.75820796276E+03  0.00000000000E+00 0. -1.
         22    1    1    2    0    0  0.20341969218E+03 -0.60132162838E+03 -0.30750155321E+03  0.70535415016E+03  0.00000000000E+00 0. -1.
<mgrwt>
<rscale>  0 0.15031658E+04</rscale>
<asrwt>0</asrwt>
<pdfrwt beam="1">  1        1 0.13085404E+00 0.15031658E+04</pdfrwt>
<pdfrwt beam="2">  1       -1 0.10217389E+00 0.15031658E+04</pdfrwt>
<totfact> 0.17555907E+01</totfact>
</mgrwt>
</event>
<event>
 6    1  0.1831439E-005  0.4132371E+04  0.7818608E-02  0.7978363E-01
          2   -1    0    0  501    0  0.00000000000E+00  0.00000000000E+00  0.30748277306E+04  0.30748277306E+04  0.00000000000E+00 0. -1.
         -2   -1    0    0    0  501 -0.00000000000E+00 -0.00000000000E+00 -0.13884100025E+04  0.13884100025E+04  0.00000000000E+00 0.  1.
         23    2    1    2    0    0 -0.17579228484E+03 -0.16420677625E+04 -0.49572506300E+03  0.17266273070E+04  0.90603836735E+02 0.  0.
         11    1    3    3    0    0 -0.10448883728E+03 -0.12637714625E+04 -0.35615395514E+03  0.13171491436E+04  0.00000000000E+00 0. -1.
        -11    1    3    3    0    0 -0.71303447554E+02 -0.37829629993E+03 -0.13957110786E+03  0.40947816343E+03  0.00000000000E+00 0.  1.
         22    1    1    2    0    0  0.17579228484E+03  0.16420677625E+04  0.21821427911E+04  0.27366104262E+04  0.00000000000E+00 0. -1.
<mgrwt>
<rscale>  0 0.41323705E+04</rscale>
<asrwt>0</asrwt>
<pdfrwt beam="1">  1        2 0.47305042E+00 0.41323705E+04</pdfrwt>
<pdfrwt beam="2">  1       -2 0.21360154E+00 0.41323705E+04</pdfrwt>
<totfact> 0.13222454E-01</totfact>
</mgrwt>
</event>
<event>
 6    1  0.1831439E-005  0.1689797E+04  0.7818608E-02  0.8767205E-01
         -1   -1    0    0    0  501 -0.00000000000E+00  0.00000000000E+00  0.37245973425E+03  0.37245973425E+03  0.00000000000E+00 0.  1.
          1   -1    0    0  501    0  0.00000000000E+00 -0.00000000000E+00 -0.19165917692E+04  0.19165917692E+04  0.00000000000E+00 0. -1.
         23    2    1    2    0    0  0.29156778621E+03 -0.58046563696E+03 -0.47638126757E+02  0.65765757587E+03  0.91060234668E+02 0.  0.
         11    1    3    3    0    0  0.14378091797E+03 -0.37780637867E+03 -0.45815871792E+02  0.40682884146E+03  0.00000000000E+00 0. -1.
        -11    1    3    3    0    0  0.14778686824E+03 -0.20265925829E+03 -0.18222549648E+01  0.25082873441E+03  0.00000000000E+00 0.  1.
         22    1    1    2    0    0 -0.29156778621E+03  0.58046563696E+03 -0.14964939082E+04  0.16313939275E+04  0.00000000000E+00 0. -1.
<mgrwt>
<rscale>  0 0.16897967E+04</rscale>
<asrwt>0</asrwt>
<pdfrwt beam="1">  1        1 0.29486027E+00 0.16897967E+04</pdfrwt>
<pdfrwt beam="2">  1       -1 0.57301498E-01 0.16897967E+04</pdfrwt>
<totfact> 0.99738967E+00</totfact>
</mgrwt>
</event>
<event>
 6    1  0.1831439E-005  0.1319897E+04  0.7818608E-02  0.9013934E-01
         -2   -1    0    0    0  501 -0.00000000000E+00  0.00000000000E+00  0.29588788790E+03  0.29588788790E+03  0.00000000000E+00 0.  1.
          2   -1    0    0  501    0  0.00000000000E+00 -0.00000000000E+00 -0.14719484957E+04  0.14719484957E+04  0.00000000000E+00 0. -1.
         23    2    1    2    0    0 -0.16707305143E+03 -0.23343876278E+03  0.20035951514E+03  0.36179960765E+03  0.91367173036E+02 0.  0.
         13    1    3    3    0    0 -0.11219872184E+03 -0.78645456126E+02  0.89928343168E+02  0.16389254973E+03  0.00000000000E+00 0. -1.
        -13    1    3    3    0    0 -0.54874329589E+02 -0.15479330665E+03  0.11043117197E+03  0.19790705792E+03  0.00000000000E+00 0.  1.
         22    1    1    2    0    0  0.16707305143E+03  0.23343876278E+03 -0.13764201229E+04  0.14060367759E+04  0.00000000000E+00 0. -1.
<mgrwt>
<rscale>  0 0.13198966E+04</rscale>
<asrwt>0</asrwt>
<pdfrwt beam="1">  1        2 0.22645361E+00 0.13198966E+04</pdfrwt>
<pdfrwt beam="2">  1       -2 0.45521214E-01 0.13198966E+04</pdfrwt>
<totfact> 0.58958899E+01</totfact>
</mgrwt>
</event>
<event>
 6    1  0.1831439E-005  0.3898826E+04  0.7818608E-02  0.8025273E-01
          1   -1    0    0  501    0  0.00000000000E+00  0.00000000000E+00  0.40577633430E+04  0.40577633430E+04  0.00000000000E+00 0. -1.
         -1   -1    0    0    0  501 -0.00000000000E+00 -0.00000000000E+00 -0.93652841738E+03  0.93652841738E+03  0.00000000000E+00 0.  1.
         23    2    1    2    0    0  0.59311879448E+03  0.83516239232E+03  0.36845012366E+04  0.38252942997E+04  0.89671572545E+02 0.  0.
         11    1    3    3    0    0  0.57454018597E+03  0.79025146305E+03  0.34426369246E+04  0.35785950867E+04  0.00000000000E+00 0.  1.
        -11    1    3    3    0    0  0.18578608511E+02  0.44910929273E+02  0.24186431205E+03  0.24669921302E+03  0.00000000000E+00 0. -1.
         22    1    1    2    0    0 -0.59311879448E+03 -0.83516239232E+03 -0.56326631099E+03  0.11689974607E+04  0.00000000000E+00 0.  1.
<mgrwt>
<rscale>  0 0.38988258E+04</rscale>
<asrwt>0</asrwt>
<pdfrwt beam="1">  1        1 0.62427127E+00 0.38988258E+04</pdfrwt>
<pdfrwt beam="2">  1       -1 0.14408130E+00 0.38988258E+04</pdfrwt>
<totfact> 0.26057827E-02</totfact>
</mgrwt>
</event>
<event>
 6    1  0.1971588E-005  0.3116293E+04  0.7818608E-02  0.8211281E-01
          2   -1    0    0  501    0  0.00000000000E+00  0.00000000000E+00  0.30795838441E+04  0.30795838441E+04  0.00000000000E+00 0. -1.
         -2   -1    0    0    0  501 -0.00000000000E+00 -0.00000000000E+00 -0.78836000316E+03  0.78836000316E+03  0.00000000000E+00 0.  1.
         23    2    1    2    0    0  0.66857886330E+03 -0.95290164020E+03 -0.13766159081E+03  0.11745252625E+04  0.74428799752E+02 0.  0.
         13    1    3    3    0    0  0.34051317069E+03 -0.47585094427E+03 -0.32124260765E+02  0.58601647477E+03  0.00000000000E+00 0. -1.
        -13    1    3    3    0    0  0.32806569261E+03 -0.47705069593E+03 -0.10553733005E+03  0.58850878769E+03  0.00000000000E+00 0.  1.
         22    1    1    2    0    0 -0.66857886330E+03  0.95290164020E+03  0.24288854317E+04  0.26934185848E+04  0.00000000000E+00 0. -1.
<mgrwt>
<rscale>  0 0.31162931E+04</rscale>
<asrwt>0</asrwt>
<pdfrwt beam="1">  1        2 0.47378212E+00 0.31162931E+04</pdfrwt>
<pdfrwt beam="2">  1       -2 0.12128616E+00 0.31162931E+04</pdfrwt>
<totfact> 0.67935942E-01</totfact>
</mgrwt>
</event>
<event>
 6    1  0.1831439E-005  0.4797183E+04  0.7818608E-02  0.7860579E-01
         -2   -1    0    0    0  501 -0.00000000000E+00  0.00000000000E+00  0.15871831391E+04  0.15871831391E+04  0.00000000000E+00 0.  1.
          2   -1    0    0  501    0  0.00000000000E+00 -0.00000000000E+00 -0.36248119526E+04  0.36248119526E+04  0.00000000000E+00 0. -1.
         23    2    1    2    0    0 -0.75788822925E+03  0.17685398154E+04 -0.25734068221E+04  0.32147004913E+04  0.98736670596E+02 0.  0.
         13    1    3    3    0    0 -0.46996982477E+03  0.11295529676E+04 -0.17115610871E+04  0.21038542957E+04  0.00000000000E+00 0. -1.
        -13    1    3    3    0    0 -0.28791840448E+03  0.63898684772E+03 -0.86184573506E+03  0.11108461956E+04  0.00000000000E+00 0.  1.
         22    1    1    2    0    0  0.75788822925E+03 -0.17685398154E+04  0.53577800862E+03  0.19972946005E+04  0.00000000000E+00 0.  1.
<mgrwt>
<rscale>  0 0.47971827E+04</rscale>
<asrwt>0</asrwt>
<pdfrwt beam="1">  1        2 0.55766337E+00 0.47971827E+04</pdfrwt>
<pdfrwt beam="2">  1       -2 0.24418202E+00 0.47971827E+04</pdfrwt>
<totfact> 0.34124286E-02</totfact>
</mgrwt>
</event>
<event>
 6    1  0.1831439E-005  0.3426065E+04  0.7818608E-02  0.8131539E-01
         -1   -1    0    0    0  501 -0.00000000000E+00  0.00000000000E+00  0.10954426502E+04  0.10954426502E+04  0.00000000000E+00 0.  1.
          1   -1    0    0  501    0  0.00000000000E+00 -0.00000000000E+00 -0.26788083325E+04  0.26788083325E+04  0.00000000000E+00 0. -1.
         23    2    1    2    0    0  0.13229391399E+04 -0.48196395575E+02  0.40323854909E+03  0.13869748711E+04  0.92774486624E+02 0.  0.
         11    1    3    3    0    0  0.24082393097E+03 -0.93235511991E+01  0.36562681001E+02  0.24376202325E+03  0.00000000000E+00 0.  1.
        -11    1    3    3    0    0  0.10821152089E+04 -0.38872844376E+02  0.36667586809E+03  0.11432128479E+04  0.00000000000E+00 0. -1.
         22    1    1    2    0    0 -0.13229391399E+04  0.48196395575E+02 -0.19866042314E+04  0.23872761115E+04  0.00000000000E+00 0. -1.
<mgrwt>
<rscale>  0 0.34260653E+04</rscale>
<asrwt>0</asrwt>
<pdfrwt beam="1">  1        1 0.41212435E+00 0.34260653E+04</pdfrwt>
<pdfrwt beam="2">  1       -1 0.16852964E+00 0.34260653E+04</pdfrwt>
<totfact> 0.21028409E-01</totfact>
</mgrwt>
</event>
<event>
 6    1  0.1831439E-005  0.2210162E+04  0.7818608E-02  0.8514210E-01
         -1   -1    0    0    0  501 -0.00000000000E+00  0.00000000000E+00  0.15597710367E+04  0.15597710367E+04  0.00000000000E+00 0.  1.
          1   -1    0    0  501    0  0.00000000000E+00 -0.00000000000E+00 -0.78293803371E+03  0.78293803371E+03  0.00000000000E+00 0. -1.
         23    2    1    2    0    0 -0.78213852634E+03 -0.38618815874E+03 -0.32691594621E+03  0.93588864435E+03  0.90175109713E+02 0.  0.
         13    1    3    3    0    0 -0.42393299588E+03 -0.18605500200E+03 -0.21578953122E+03  0.51078446584E+03  0.00000000000E+00 0. -1.
        -13    1    3    3    0    0 -0.35820553046E+03 -0.20013315673E+03 -0.11112641499E+03  0.42510417851E+03  0.00000000000E+00 0.  1.
         22    1    1    2    0    0  0.78213852634E+03  0.38618815874E+03  0.11037489492E+04  0.14068204261E+04  0.00000000000E+00 0.  1.
<mgrwt>
<rscale>  0 0.22101620E+04</rscale>
<asrwt>0</asrwt>
<pdfrwt beam="1">  1        1 0.12045201E+00 0.22101620E+04</pdfrwt>
<pdfrwt beam="2">  1       -1 0.23996477E+00 0.22101620E+04</pdfrwt>
<totfact> 0.16909433E+00</totfact>
</mgrwt>
</event>
<event>
 6    1  0.1831439E-005  0.1772845E+04  0.7818608E-02  0.8720875E-01
          1   -1    0    0  501    0  0.00000000000E+00  0.00000000000E+00  0.13047393550E+04  0.13047393550E+04  0.00000000000E+00 0. -1.
         -1   -1    0    0    0  501 -0.00000000000E+00 -0.00000000000E+00 -0.60222339966E+03  0.60222339966E+03  0.00000000000E+00 0.  1.
         23    2    1    2    0    0 -0.70836127298E+03 -0.38730160575E+03  0.73954788293E+03  0.10987860471E+04  0.92851921521E+02 0.  0.
         11    1    3    3    0    0 -0.55553342338E+03 -0.34348833207E+03  0.57891288538E+03  0.87277817779E+03  0.00000000000E+00 0. -1.
        -11    1    3    3    0    0 -0.15282784960E+03 -0.43813273677E+02  0.16063499754E+03  0.22600786933E+03  0.00000000000E+00 0.  1.
         22    1    1    2    0    0  0.70836127298E+03  0.38730160575E+03 -0.37031927622E+02  0.80817670750E+03  0.00000000000E+00 0. -1.
<mgrwt>
<rscale>  0 0.17728447E+04</rscale>
<asrwt>0</asrwt>
<pdfrwt beam="1">  1        1 0.20072913E+00 0.17728447E+04</pdfrwt>
<pdfrwt beam="2">  1       -1 0.92649754E-01 0.17728447E+04</pdfrwt>
<totfact> 0.96144912E+00</totfact>
</mgrwt>
</event>
<event>
 6    1  0.1831439E-005  0.4822086E+04  0.7818608E-02  0.7856554E-01
         -2   -1    0    0    0  501 -0.00000000000E+00  0.00000000000E+00  0.14402784042E+04  0.14402784042E+04  0.00000000000E+00 0.  1.
          2   -1    0    0  501    0  0.00000000000E+00 -0.00000000000E+00 -0.40361140574E+04  0.40361140574E+04  0.00000000000E+00 0. -1.
         23    2    1    2    0    0 -0.27273512725E+03 -0.12222028315E+04 -0.36371151870E+04  0.38477650399E+04  0.92329343886E+02 0.  0.
         13    1    3    3    0    0 -0.77167628813E+02 -0.55642550490E+03 -0.16215805151E+04  0.17161257391E+04  0.00000000000E+00 0. -1.
        -13    1    3    3    0    0 -0.19556749844E+03 -0.66577732658E+03 -0.20155346719E+04  0.21316393008E+04  0.00000000000E+00 0.  1.
         22    1    1    2    0    0  0.27273512725E+03  0.12222028315E+04  0.10412795338E+04  0.16286274216E+04  0.00000000000E+00 0.  1.
<mgrwt>
<rscale>  0 0.48220858E+04</rscale>
<asrwt>0</asrwt>
<pdfrwt beam="1">  1        2 0.62094062E+00 0.48220858E+04</pdfrwt>
<pdfrwt beam="2">  1       -2 0.22158130E+00 0.48220858E+04</pdfrwt>
<totfact> 0.22690357E-02</totfact>
</mgrwt>
</event>
<event>
 6    1  0.1831439E-005  0.2220623E+04  0.7818608E-02  0.8509893E-01
         -1   -1    0    0    0  501 -0.00000000000E+00  0.00000000000E+00  0.50557416256E+03  0.50557416256E+03  0.00000000000E+00 0.  1.
          1   -1    0    0  501    0  0.00000000000E+00 -0.00000000000E+00 -0.24383990345E+04  0.24383990345E+04  0.00000000000E+00 0. -1.
         23    2    1    2    0    0 -0.67624596356E+02 -0.93366841860E+03 -0.18104788089E+03  0.95776262708E+03  0.90670352022E+02 0.  0.
         13    1    3    3    0    0 -0.33666392186E+02 -0.29730179611E+03 -0.16844404256E+02  0.29967568785E+03  0.00000000000E+00 0.  1.
        -13    1    3    3    0    0 -0.33958204171E+02 -0.63636662249E+03 -0.16420347663E+03  0.65808693923E+03  0.00000000000E+00 0. -1.
         22    1    1    2    0    0  0.67624596356E+02  0.93366841860E+03 -0.17517769911E+04  0.19862105700E+04  0.00000000000E+00 0. -1.
<mgrwt>
<rscale>  0 0.22206229E+04</rscale>
<asrwt>0</asrwt>
<pdfrwt beam="1">  1        1 0.37513831E+00 0.22206229E+04</pdfrwt>
<pdfrwt beam="2">  1       -1 0.77780641E-01 0.22206229E+04</pdfrwt>
<totfact> 0.22523835E+00</totfact>
</mgrwt>
</event>
<event>
 6    1  0.1831439E-005  0.1432574E+04  0.7818608E-02  0.8930571E-01
         -2   -1    0    0    0  501 -0.00000000000E+00  0.00000000000E+00  0.20149633851E+04  0.20149633851E+04  0.00000000000E+00 0.  1.
          2   -1    0    0  501    0  0.00000000000E+00 -0.00000000000E+00 -0.25462864823E+03  0.25462864823E+03  0.00000000000E+00 0. -1.
         23    2    1    2    0    0  0.31142834282E+03  0.41329639809E+03  0.16616407950E+04  0.17427694640E+04  0.91617399204E+02 0.  0.
         13    1    3    3    0    0 -0.56681845048E+01  0.14844124300E+02  0.63601861590E+02  0.65556640697E+02  0.00000000000E+00 0. -1.
        -13    1    3    3    0    0  0.31709652732E+03  0.39845227379E+03  0.15980389334E+04  0.16772128233E+04  0.00000000000E+00 0.  1.
         22    1    1    2    0    0 -0.31142834282E+03 -0.41329639809E+03  0.98693941926E+02  0.52682256933E+03  0.00000000000E+00 0. -1.
<mgrwt>
<rscale>  0 0.14325745E+04</rscale>
<asrwt>0</asrwt>
<pdfrwt beam="1">  1        2 0.39173639E-01 0.14325745E+04</pdfrwt>
<pdfrwt beam="2">  1       -2 0.30999436E+00 0.14325745E+04</pdfrwt>
<totfact> 0.35519802E+00</totfact>
</mgrwt>
</event>
<event>
 6    1  0.1831439E-005  0.4032406E+04  0.7818608E-02  0.7998041E-01
         -2   -1    0    0    0  501 -0.00000000000E+00  0.00000000000E+00  0.14354852693E+04  0.14354852693E+04  0.00000000000E+00 0. -1.
          2   -1    0    0  501    0  0.00000000000E+00 -0.00000000000E+00 -0.28318468251E+04  0.28318468251E+04  0.00000000000E+00 0.  1.
         23    2    1    2    0    0  0.11788899185E+04 -0.88680523089E+03  0.75410495918E+03  0.16595147715E+04  0.95446475510E+02 0.  0.
         13    1    3    3    0    0  0.83706734095E+03 -0.66994945554E+03  0.57839296471E+03  0.12182169051E+04  0.00000000000E+00 0.  1.
        -13    1    3    3    0    0  0.34182257758E+03 -0.21685577535E+03  0.17571199447E+03  0.44129786635E+03  0.00000000000E+00 0. -1.
         22    1    1    2    0    0 -0.11788899185E+04  0.88680523089E+03 -0.21504665150E+04  0.26078173229E+04  0.00000000000E+00 0.  1.
<mgrwt>
<rscale>  0 0.40324059E+04</rscale>
<asrwt>0</asrwt>
<pdfrwt beam="1">  1        2 0.43566873E+00 0.40324059E+04</pdfrwt>
<pdfrwt beam="2">  1       -2 0.22084389E+00 0.40324059E+04</pdfrwt>
<totfact> 0.16983687E-01</totfact>
</mgrwt>
</event>
<event>
 6    1  0.1831439E-005  0.1647688E+04  0.7818608E-02  0.8791775E-01
         -2   -1    0    0    0  501 -0.00000000000E+00  0.00000000000E+00  0.43631578030E+03  0.43631578030E+03  0.00000000000E+00 0.  1.
          2   -1    0    0  501    0  0.00000000000E+00 -0.00000000000E+00 -0.15555684689E+04  0.15555684689E+04  0.00000000000E+00 0. -1.
         23    2    1    2    0    0 -0.56803243833E+03  0.55311131602E+03 -0.82077230167E+03  0.11447222102E+04  0.90159794027E+02 0.  0.
         13    1    3    3    0    0 -0.29259248784E+03  0.23676176617E+03 -0.42978265571E+03  0.57129644582E+03  0.00000000000E+00 0.  1.
        -13    1    3    3    0    0 -0.27543995048E+03  0.31634954986E+03 -0.39098964596E+03  0.57342576439E+03  0.00000000000E+00 0. -1.
         22    1    1    2    0    0  0.56803243833E+03 -0.55311131602E+03 -0.29848038691E+03  0.84716203897E+03  0.00000000000E+00 0.  1.
<mgrwt>
<rscale>  0 0.16476882E+04</rscale>
<asrwt>0</asrwt>
<pdfrwt beam="1">  1        2 0.23931823E+00 0.16476882E+04</pdfrwt>
<pdfrwt beam="2">  1       -2 0.67125504E-01 0.16476882E+04</pdfrwt>
<totfact> 0.22979050E+01</totfact>
</mgrwt>
</event>
<event>
 6    1  0.1831439E-005  0.2395011E+04  0.7818608E-02  0.8441374E-01
         -2   -1    0    0    0  501 -0.00000000000E+00  0.00000000000E+00  0.58010837048E+03  0.58010837048E+03  0.00000000000E+00 0. -1.
          2   -1    0    0  501    0  0.00000000000E+00 -0.00000000000E+00 -0.24719856452E+04  0.24719856452E+04  0.00000000000E+00 0.  1.
         23    2    1    2    0    0 -0.42671330061E+03 -0.45229601577E+03 -0.22492874871E+04  0.23348785761E+04  0.75550239651E+02 0.  0.
         11    1    3    3    0    0 -0.84578187484E+02 -0.11682124408E+03 -0.42973040455E+03  0.45328676736E+03  0.00000000000E+00 0.  1.
        -11    1    3    3    0    0 -0.34213511313E+03 -0.33547477169E+03 -0.18195570826E+04  0.18815918088E+04  0.00000000000E+00 0. -1.
         22    1    1    2    0    0  0.42671330061E+03  0.45229601577E+03  0.35741021241E+03  0.71721543955E+03  0.00000000000E+00 0. -1.
<mgrwt>
<rscale>  0 0.23950111E+04</rscale>
<asrwt>0</asrwt>
<pdfrwt beam="1">  1        2 0.38030548E+00 0.23950111E+04</pdfrwt>
<pdfrwt beam="2">  1       -2 0.89247443E-01 0.23950111E+04</pdfrwt>
<totfact> 0.35022843E+00</totfact>
</mgrwt>
</event>
<event>
 6    1  0.1831439E-005  0.2660280E+04  0.7818608E-02  0.8348009E-01
         -2   -1    0    0    0  501 -0.00000000000E+00  0.00000000000E+00  0.94994881397E+03  0.94994881397E+03  0.00000000000E+00 0.  1.
          2   -1    0    0  501    0  0.00000000000E+00 -0.00000000000E+00 -0.18624923281E+04  0.18624923281E+04  0.00000000000E+00 0. -1.
         23    2    1    2    0    0  0.36370151873E+03  0.12605982583E+04 -0.23722997095E+03  0.13368276611E+04  0.97177017908E+02 0.  0.
         11    1    3    3    0    0  0.11716153058E+03  0.39810468313E+03 -0.12115527423E+03  0.43231095689E+03  0.00000000000E+00 0. -1.
        -11    1    3    3    0    0  0.24653998815E+03  0.86249357519E+03 -0.11607469672E+03  0.90451670422E+03  0.00000000000E+00 0.  1.
         22    1    1    2    0    0 -0.36370151873E+03 -0.12605982583E+04 -0.67531354318E+03  0.14756134810E+04  0.00000000000E+00 0.  1.
<mgrwt>
<rscale>  0 0.26602800E+04</rscale>
<asrwt>0</asrwt>
<pdfrwt beam="1">  1        2 0.28653728E+00 0.26602800E+04</pdfrwt>
<pdfrwt beam="2">  1       -2 0.14614597E+00 0.26602800E+04</pdfrwt>
<totfact> 0.22507637E+00</totfact>
</mgrwt>
</event>
<event>
 6    1  0.1831439E-005  0.2525212E+04  0.7818608E-02  0.8394058E-01
          2   -1    0    0  501    0  0.00000000000E+00  0.00000000000E+00  0.28016185326E+04  0.28016185326E+04  0.00000000000E+00 0. -1.
         -2   -1    0    0    0  501 -0.00000000000E+00 -0.00000000000E+00 -0.56901875325E+03  0.56901875325E+03  0.00000000000E+00 0.  1.
         23    2    1    2    0    0  0.92445590363E+03 -0.10194222460E+03 -0.18796700809E+02  0.93469864831E+03  0.91089583824E+02 0.  0.
         11    1    3    3    0    0  0.78802275439E+03 -0.57786253710E+02 -0.31264706673E+02  0.79075697559E+03  0.00000000000E+00 0.  1.
        -11    1    3    3    0    0  0.13643314924E+03 -0.44155970890E+02  0.12468005863E+02  0.14394167272E+03  0.00000000000E+00 0. -1.
         22    1    1    2    0    0 -0.92445590363E+03  0.10194222460E+03  0.22513964801E+04  0.24359386375E+04  0.00000000000E+00 0. -1.
<mgrwt>
<rscale>  0 0.25252117E+04</rscale>
<asrwt>0</asrwt>
<pdfrwt beam="1">  1        2 0.43101823E+00 0.25252117E+04</pdfrwt>
<pdfrwt beam="2">  1       -2 0.87541348E-01 0.25252117E+04</pdfrwt>
<totfact> 0.23128233E+00</totfact>
</mgrwt>
</event>
<event>
 6    1  0.1831439E-005  0.1251373E+04  0.7818608E-02  0.9069042E-01
         -2   -1    0    0    0  501 -0.00000000000E+00  0.00000000000E+00  0.12961724703E+03  0.12961724703E+03  0.00000000000E+00 0.  1.
          2   -1    0    0  501    0  0.00000000000E+00 -0.00000000000E+00 -0.30203030430E+04  0.30203030430E+04  0.00000000000E+00 0. -1.
         23    2    1    2    0    0  0.74720010926E+02  0.28655878214E+03 -0.28309598289E+04  0.28478173162E+04  0.89615278119E+02 0.  0.
         11    1    3    3    0    0  0.46904398970E+02  0.69416010695E+02 -0.54535197639E+03  0.55174938454E+03  0.00000000000E+00 0. -1.
        -11    1    3    3    0    0  0.27815611955E+02  0.21714277144E+03 -0.22856078525E+04  0.22960679317E+04  0.00000000000E+00 0.  1.
         22    1    1    2    0    0 -0.74720010926E+02 -0.28655878214E+03 -0.59725967102E+02  0.30210297383E+03  0.00000000000E+00 0.  1.
<mgrwt>
<rscale>  0 0.12513726E+04</rscale>
<asrwt>0</asrwt>
<pdfrwt beam="1">  1        2 0.46466195E+00 0.12513726E+04</pdfrwt>
<pdfrwt beam="2">  1       -2 0.19941118E-01 0.12513726E+04</pdfrwt>
<totfact> 0.36197507E+01</totfact>
</mgrwt>
</event>
<event>
 6    1  0.1831439E-005  0.1647325E+04  0.7818608E-02  0.8791991E-01
          2   -1    0    0  501    0  0.00000000000E+00  0.00000000000E+00  0.23119488841E+04  0.23119488841E+04  0.00000000000E+00 0. -1.
         -2   -1    0    0    0  501 -0.00000000000E+00 -0.00000000000E+00 -0.29344072873E+03  0.29344072873E+03  0.00000000000E+00 0.  1.
         23    2    1    2    0    0  0.78279698824E+03 -0.20571729659E+03  0.12328680999E+04  0.14774175265E+04  0.87795584944E+02 0.  0.
         11    1    3    3    0    0  0.29992022767E+03 -0.47962359468E+02  0.40735211969E+03  0.50812230841E+03  0.00000000000E+00 0.  1.
        -11    1    3    3    0    0  0.48287676057E+03 -0.15775493712E+03  0.82551598026E+03  0.96929521806E+03  0.00000000000E+00 0. -1.
         22    1    1    2    0    0 -0.78279698824E+03  0.20571729659E+03  0.78564005540E+03  0.11279720863E+04  0.00000000000E+00 0.  1.
<mgrwt>
<rscale>  0 0.16473251E+04</rscale>
<asrwt>0</asrwt>
<pdfrwt beam="1">  1        2 0.35568443E+00 0.16473251E+04</pdfrwt>
<pdfrwt beam="2">  1       -2 0.45144729E-01 0.16473251E+04</pdfrwt>
<totfact> 0.19863822E+01</totfact>
</mgrwt>
</event>
<event>
 6    1  0.1831439E-005  0.2468197E+04  0.7818608E-02  0.8414404E-01
         -2   -1    0    0    0  501 -0.00000000000E+00  0.00000000000E+00  0.75598984201E+03  0.75598984201E+03  0.00000000000E+00 0.  1.
          2   -1    0    0  501    0  0.00000000000E+00 -0.00000000000E+00 -0.20145765669E+04  0.20145765669E+04  0.00000000000E+00 0. -1.
         23    2    1    2    0    0  0.24892341727E+03  0.10818051532E+04 -0.27520070741E+02  0.11129203779E+04  0.74626777851E+02 0.  0.
         13    1    3    3    0    0  0.86478221317E+02  0.29302832016E+03  0.20100170883E+02  0.30618310869E+03  0.00000000000E+00 0. -1.
        -13    1    3    3    0    0  0.16244519595E+03  0.78877683308E+03 -0.47620241624E+02  0.80673726919E+03  0.00000000000E+00 0.  1.
         22    1    1    2    0    0 -0.24892341727E+03 -0.10818051532E+04 -0.12310666541E+04  0.16576460310E+04  0.00000000000E+00 0. -1.
<mgrwt>
<rscale>  0 0.24681973E+04</rscale>
<asrwt>0</asrwt>
<pdfrwt beam="1">  1        2 0.30993485E+00 0.24681973E+04</pdfrwt>
<pdfrwt beam="2">  1       -2 0.11630613E+00 0.24681973E+04</pdfrwt>
<totfact> 0.33633155E+00</totfact>
</mgrwt>
</event>
<event>
 6    1  0.1831439E-005  0.4970707E+04  0.7818608E-02  0.7833042E-01
         -1   -1    0    0    0  501 -0.00000000000E+00  0.00000000000E+00  0.29177544805E+04  0.29177544805E+04  0.00000000000E+00 0.  1.
          1   -1    0    0  501    0  0.00000000000E+00 -0.00000000000E+00 -0.21170331530E+04  0.21170331530E+04  0.00000000000E+00 0. -1.
         23    2    1    2    0    0 -0.23045839149E+04  0.92688315961E+03  0.45216023309E+03  0.25264586581E+04  0.91241779107E+02 0.  0.
         11    1    3    3    0    0 -0.60349737705E+03  0.27743794349E+03  0.14565350151E+03  0.67999694050E+03  0.00000000000E+00 0.  1.
        -11    1    3    3    0    0 -0.17010865378E+04  0.64944521612E+03  0.30650673158E+03  0.18464617176E+04  0.00000000000E+00 0. -1.
         22    1    1    2    0    0  0.23045839149E+04 -0.92688315961E+03  0.34856109438E+03  0.25083289754E+04  0.00000000000E+00 0.  1.
<mgrwt>
<rscale>  0 0.49707074E+04</rscale>
<asrwt>0</asrwt>
<pdfrwt beam="1">  1        1 0.32569741E+00 0.49707074E+04</pdfrwt>
<pdfrwt beam="2">  1       -1 0.44888530E+00 0.49707074E+04</pdfrwt>
<totfact> 0.59266297E-03</totfact>
</mgrwt>
</event>
<event>
 6    1  0.1831439E-005  0.2174188E+04  0.7818608E-02  0.8529249E-01
          1   -1    0    0  501    0  0.00000000000E+00  0.00000000000E+00  0.20591400835E+04  0.20591400835E+04  0.00000000000E+00 0. -1.
         -1   -1    0    0    0  501 -0.00000000000E+00 -0.00000000000E+00 -0.57391580378E+03  0.57391580378E+03  0.00000000000E+00 0.  1.
         23    2    1    2    0    0  0.34792853449E+03 -0.14692069025E+03 -0.48831568565E+03  0.62370277018E+03  0.88954945625E+02 0.  0.
         13    1    3    3    0    0  0.15979516724E+03 -0.20157345896E+02 -0.20957400005E+03  0.26431434990E+03  0.00000000000E+00 0.  1.
        -13    1    3    3    0    0  0.18813336725E+03 -0.12676334435E+03 -0.27874168559E+03  0.35938842028E+03  0.00000000000E+00 0. -1.
         22    1    1    2    0    0 -0.34792853449E+03  0.14692069025E+03  0.19735399653E+04  0.20093531171E+04  0.00000000000E+00 0. -1.
<mgrwt>
<rscale>  0 0.21741877E+04</rscale>
<asrwt>0</asrwt>
<pdfrwt beam="1">  1        1 0.31679078E+00 0.21741877E+04</pdfrwt>
<pdfrwt beam="2">  1       -1 0.88294740E-01 0.21741877E+04</pdfrwt>
<totfact> 0.31273408E+00</totfact>
</mgrwt>
</event>
<event>
 6    1  0.1831439E-005  0.2039701E+04  0.7818608E-02  0.8588281E-01
         -1   -1    0    0    0  501 -0.00000000000E+00  0.00000000000E+00  0.13193793764E+04  0.13193793764E+04  0.00000000000E+00 0.  1.
          1   -1    0    0  501    0  0.00000000000E+00 -0.00000000000E+00 -0.78832127886E+03  0.78832127886E+03  0.00000000000E+00 0. -1.
         23    2    1    2    0    0  0.72681539363E+03 -0.31121491607E+03  0.92771529905E+03  0.12231373302E+04  0.10145891850E+03 0.  0.
         13    1    3    3    0    0  0.38541335768E+03 -0.21983694226E+03  0.51829367220E+03  0.68227565404E+03  0.00000000000E+00 0.  1.
        -13    1    3    3    0    0  0.34140203595E+03 -0.91377973813E+02  0.40942162686E+03  0.54086167620E+03  0.00000000000E+00 0. -1.
         22    1    1    2    0    0 -0.72681539363E+03  0.31121491607E+03 -0.39665720153E+03  0.88456332499E+03  0.00000000000E+00 0. -1.
<mgrwt>
<rscale>  0 0.20397008E+04</rscale>
<asrwt>0</asrwt>
<pdfrwt beam="1">  1        1 0.12128020E+00 0.20397008E+04</pdfrwt>
<pdfrwt beam="2">  1       -1 0.20298144E+00 0.20397008E+04</pdfrwt>
<totfact> 0.30039287E+00</totfact>
</mgrwt>
</event>
<event>
 6    1  0.1831439E-005  0.1537592E+04  0.7818608E-02  0.8859832E-01
          2   -1    0    0  501    0  0.00000000000E+00  0.00000000000E+00  0.19270835070E+04  0.19270835070E+04  0.00000000000E+00 0.  1.
         -2   -1    0    0    0  501 -0.00000000000E+00 -0.00000000000E+00 -0.30670577546E+03  0.30670577546E+03  0.00000000000E+00 0. -1.
         23    2    1    2    0    0 -0.15888054625E+03  0.73150160056E+03  0.10498792321E+04  0.12926165260E+04  0.90958571717E+02 0.  0.
         13    1    3    3    0    0 -0.13285512464E+03  0.61256099834E+03  0.93185101100E+03  0.11230439740E+04  0.00000000000E+00 0. -1.
        -13    1    3    3    0    0 -0.26025421612E+02  0.11894060222E+03  0.11802822110E+03  0.16957255203E+03  0.00000000000E+00 0.  1.
         22    1    1    2    0    0  0.15888054625E+03 -0.73150160056E+03  0.57049849944E+03  0.94117275643E+03  0.00000000000E+00 0. -1.
<mgrwt>
<rscale>  0 0.15375925E+04</rscale>
<asrwt>0</asrwt>
<pdfrwt beam="1">  1        2 0.29647438E+00 0.15375925E+04</pdfrwt>
<pdfrwt beam="2">  1       -2 0.47185505E-01 0.15375925E+04</pdfrwt>
<totfact> 0.30088954E+01</totfact>
</mgrwt>
</event>
<event>
 6    1  0.1831439E-005  0.1619870E+04  0.7818608E-02  0.8808433E-01
          2   -1    0    0  501    0  0.00000000000E+00  0.00000000000E+00  0.21845176795E+04  0.21845176795E+04  0.00000000000E+00 0. -1.
         -2   -1    0    0    0  501 -0.00000000000E+00 -0.00000000000E+00 -0.30029257403E+03  0.30029257403E+03  0.00000000000E+00 0.  1.
         23    2    1    2    0    0 -0.31048170101E+03 -0.11566635827E+03  0.20744879033E+04  0.21027402007E+04  0.90767270550E+02 0.  0.
         13    1    3    3    0    0 -0.20744550066E+03 -0.68051566601E+02  0.16020830962E+04  0.16168905030E+04  0.00000000000E+00 0.  1.
        -13    1    3    3    0    0 -0.10303620035E+03 -0.47614791666E+02  0.47240480712E+03  0.48584969770E+03  0.00000000000E+00 0. -1.
         22    1    1    2    0    0  0.31048170101E+03  0.11566635827E+03 -0.19026279781E+03  0.38207005290E+03  0.00000000000E+00 0.  1.
<mgrwt>
<rscale>  0 0.16198697E+04</rscale>
<asrwt>0</asrwt>
<pdfrwt beam="1">  1        2 0.33607963E+00 0.16198697E+04</pdfrwt>
<pdfrwt beam="2">  1       -2 0.46198859E-01 0.16198697E+04</pdfrwt>
<totfact> 0.22424008E+01</totfact>
</mgrwt>
</event>
<event>
 6    1  0.1873446E-005  0.4057046E+04  0.7818608E-02  0.7993136E-01
          2   -1    0    0  501    0  0.00000000000E+00  0.00000000000E+00  0.22955640181E+04  0.22955640181E+04  0.00000000000E+00 0. -1.
         -2   -1    0    0    0  501 -0.00000000000E+00 -0.00000000000E+00 -0.17925464778E+04  0.17925464778E+04  0.00000000000E+00 0.  1.
         23    2    1    2    0    0  0.14903809974E+03  0.16315141223E+04  0.14552504491E+04  0.21931703387E+04  0.90507339891E+02 0.  0.
         11    1    3    3    0    0  0.63359275583E+02  0.11020955307E+04  0.10066787066E+04  0.14939983182E+04  0.00000000000E+00 0. -1.
        -11    1    3    3    0    0  0.85678824156E+02  0.52941859166E+03  0.44857174253E+03  0.69917202054E+03  0.00000000000E+00 0.  1.
         22    1    1    2    0    0 -0.14903809974E+03 -0.16315141223E+04 -0.95223290882E+03  0.18949401571E+04  0.00000000000E+00 0.  1.
<mgrwt>
<rscale>  0 0.40570458E+04</rscale>
<asrwt>0</asrwt>
<pdfrwt beam="1">  1        2 0.35316370E+00 0.40570458E+04</pdfrwt>
<pdfrwt beam="2">  1       -2 0.27577638E+00 0.40570458E+04</pdfrwt>
<totfact> 0.16002314E-01</totfact>
</mgrwt>
</event>
<event>
 6    1  0.1831439E-005  0.1452412E+04  0.7818608E-02  0.8916730E-01
          1   -1    0    0  501    0  0.00000000000E+00  0.00000000000E+00  0.23285145858E+03  0.23285145858E+03  0.00000000000E+00 0. -1.
         -1   -1    0    0    0  501 -0.00000000000E+00 -0.00000000000E+00 -0.22648550672E+04  0.22648550672E+04  0.00000000000E+00 0.  1.
         23    2    1    2    0    0 -0.31936407656E+03 -0.17050151675E+03 -0.20969591670E+04  0.21298976010E+04  0.90343022399E+02 0.  0.
         11    1    3    3    0    0 -0.13463156515E+03 -0.27008514773E+02 -0.88211507132E+03  0.89273854921E+03  0.00000000000E+00 0.  1.
        -11    1    3    3    0    0 -0.18473251141E+03 -0.14349300198E+03 -0.12148440957E+04  0.12371590517E+04  0.00000000000E+00 0. -1.
         22    1    1    2    0    0  0.31936407656E+03  0.17050151675E+03  0.64955558426E+02  0.36780892483E+03  0.00000000000E+00 0. -1.
<mgrwt>
<rscale>  0 0.14524115E+04</rscale>
<asrwt>0</asrwt>
<pdfrwt beam="1">  1        1 0.35823301E-01 0.14524115E+04</pdfrwt>
<pdfrwt beam="2">  1       -1 0.34843925E+00 0.14524115E+04</pdfrwt>
<totfact> 0.18958890E+00</totfact>
</mgrwt>
</event>
<event>
 6    1  0.1831439E-005  0.7344789E+03  0.7818608E-02  0.9660020E-01
         -1   -1    0    0    0  501 -0.00000000000E+00  0.00000000000E+00  0.62810794704E+02  0.62810794704E+02  0.00000000000E+00 0.  1.
          1   -1    0    0  501    0  0.00000000000E+00 -0.00000000000E+00 -0.21471599929E+04  0.21471599929E+04  0.00000000000E+00 0. -1.
         23    2    1    2    0    0 -0.32241582744E+03  0.12978859109E+03 -0.13568849582E+04  0.14037442285E+04  0.92542017767E+02 0.  0.
         13    1    3    3    0    0 -0.12195971039E+03  0.75667698231E+02 -0.41104759968E+03  0.43538477318E+03  0.00000000000E+00 0. -1.
        -13    1    3    3    0    0 -0.20045611705E+03  0.54120892862E+02 -0.94583735849E+03  0.96835945528E+03  0.00000000000E+00 0.  1.
         22    1    1    2    0    0  0.32241582744E+03 -0.12978859109E+03 -0.72746424007E+03  0.80622655919E+03  0.00000000000E+00 0.  1.
<mgrwt>
<rscale>  0 0.73447893E+03</rscale>
<asrwt>0</asrwt>
<pdfrwt beam="1">  1        1 0.33033227E+00 0.73447893E+03</pdfrwt>
<pdfrwt beam="2">  1       -1 0.96632002E-02 0.73447893E+03</pdfrwt>
<totfact> 0.16311196E+02</totfact>
</mgrwt>
</event>
<event>
 6    1  0.1831439E-005  0.2021084E+04  0.7818608E-02  0.8596826E-01
         -1   -1    0    0    0  501 -0.00000000000E+00  0.00000000000E+00  0.81913136234E+03  0.81913136234E+03  0.00000000000E+00 0.  1.
          1   -1    0    0  501    0  0.00000000000E+00 -0.00000000000E+00 -0.12466801718E+04  0.12466801718E+04  0.00000000000E+00 0. -1.
         23    2    1    2    0    0 -0.87263623266E+03 -0.43469098219E+03 -0.47767314328E+03  0.10896134531E+04  0.92927933452E+02 0.  0.
         11    1    3    3    0    0 -0.71404717198E+03 -0.39148707909E+03 -0.38256572381E+03  0.89971219284E+03  0.00000000000E+00 0. -1.
        -11    1    3    3    0    0 -0.15858906068E+03 -0.43203903098E+02 -0.95107419471E+02  0.18990126026E+03  0.00000000000E+00 0.  1.
         22    1    1    2    0    0  0.87263623266E+03  0.43469098219E+03  0.50124333830E+02  0.97619808102E+03  0.00000000000E+00 0.  1.
<mgrwt>
<rscale>  0 0.20210837E+04</rscale>
<asrwt>0</asrwt>
<pdfrwt beam="1">  1        1 0.19179695E+00 0.20210837E+04</pdfrwt>
<pdfrwt beam="2">  1       -1 0.12602021E+00 0.20210837E+04</pdfrwt>
<totfact> 0.50180520E+00</totfact>
</mgrwt>
</event>
<event>
 6    1  0.1831439E-005  0.3955134E+04  0.7818608E-02  0.8013659E-01
         -2   -1    0    0    0  501 -0.00000000000E+00  0.00000000000E+00  0.12667269927E+04  0.12667269927E+04  0.00000000000E+00 0.  1.
          2   -1    0    0  501    0  0.00000000000E+00 -0.00000000000E+00 -0.30873033295E+04  0.30873033295E+04  0.00000000000E+00 0. -1.
         23    2    1    2    0    0 -0.17902645955E+04 -0.80650093077E+03 -0.66194209746E+03  0.20741346286E+04  0.91520728006E+02 0.  0.
         11    1    3    3    0    0 -0.10458936561E+04 -0.51752897025E+03 -0.40912363920E+03  0.12365726533E+04  0.00000000000E+00 0. -1.
        -11    1    3    3    0    0 -0.74437093949E+03 -0.28897196052E+03 -0.25281845825E+03  0.83756197523E+03  0.00000000000E+00 0.  1.
         22    1    1    2    0    0  0.17902645955E+04  0.80650093077E+03 -0.11586342393E+04  0.22798956937E+04  0.00000000000E+00 0.  1.
<mgrwt>
<rscale>  0 0.39551336E+04</rscale>
<asrwt>0</asrwt>
<pdfrwt beam="1">  1        2 0.47496973E+00 0.39551336E+04</pdfrwt>
<pdfrwt beam="2">  1       -2 0.19488108E+00 0.39551336E+04</pdfrwt>
<totfact> 0.17440107E-01</totfact>
</mgrwt>
</event>
<event>
 6    1  0.1831439E-005  0.5762019E+04  0.7818608E-02  0.7720630E-01
          2   -1    0    0  501    0  0.00000000000E+00  0.00000000000E+00  0.43704053752E+04  0.43704053752E+04  0.00000000000E+00 0. -1.
         -2   -1    0    0    0  501 -0.00000000000E+00 -0.00000000000E+00 -0.18991864964E+04  0.18991864964E+04  0.00000000000E+00 0.  1.
         23    2    1    2    0    0 -0.23418335275E+03 -0.21183852482E+03  0.43510721911E+04  0.43634004124E+04  0.87843862411E+02 0.  0.
         11    1    3    3    0    0 -0.19156725209E+03 -0.14388171238E+03  0.27896185880E+04  0.27998878237E+04  0.00000000000E+00 0. -1.
        -11    1    3    3    0    0 -0.42616100661E+02 -0.67956812437E+02  0.15614536031E+04  0.15635125887E+04  0.00000000000E+00 0.  1.
         22    1    1    2    0    0  0.23418335275E+03  0.21183852482E+03 -0.18798533122E+04  0.19061914591E+04  0.00000000000E+00 0.  1.
<mgrwt>
<rscale>  0 0.57620187E+04</rscale>
<asrwt>0</asrwt>
<pdfrwt beam="1">  1        2 0.67237006E+00 0.57620187E+04</pdfrwt>
<pdfrwt beam="2">  1       -2 0.29218254E+00 0.57620187E+04</pdfrwt>
<totfact> 0.39410741E-03</totfact>
</mgrwt>
</event>
<event>
 6    1  0.1831439E-005  0.1887710E+04  0.7818608E-02  0.8660998E-01
         -2   -1    0    0    0  501 -0.00000000000E+00  0.00000000000E+00  0.34227759220E+03  0.34227759220E+03  0.00000000000E+00 0.  1.
          2   -1    0    0  501    0  0.00000000000E+00 -0.00000000000E+00 -0.26027485789E+04  0.26027485789E+04  0.00000000000E+00 0. -1.
         23    2    1    2    0    0 -0.32489752305E+03  0.36085633662E+03 -0.23916201136E+04  0.24420591845E+04  0.89613595727E+02 0.  0.
         13    1    3    3    0    0 -0.23807936044E+03  0.25197605285E+03 -0.18869249444E+04  0.19185044850E+04  0.00000000000E+00 0.  1.
        -13    1    3    3    0    0 -0.86818162609E+02  0.10888028377E+03 -0.50469516922E+03  0.52355469951E+03  0.00000000000E+00 0. -1.
         22    1    1    2    0    0  0.32489752305E+03 -0.36085633662E+03  0.13114912688E+03  0.50296698664E+03  0.00000000000E+00 0.  1.
<mgrwt>
<rscale>  0 0.18877103E+04</rscale>
<asrwt>0</asrwt>
<pdfrwt beam="1">  1        2 0.40042286E+00 0.18877103E+04</pdfrwt>
<pdfrwt beam="2">  1       -2 0.52658091E-01 0.18877103E+04</pdfrwt>
<totfact> 0.96828019E+00</totfact>
</mgrwt>
</event>
<event>
 6    1  0.1831439E-005  0.3520899E+04  0.7818608E-02  0.8108855E-01
          2   -1    0    0  501    0  0.00000000000E+00  0.00000000000E+00  0.33187580624E+04  0.33187580624E+04  0.00000000000E+00 0. -1.
         -2   -1    0    0    0  501 -0.00000000000E+00 -0.00000000000E+00 -0.93383804517E+03  0.93383804517E+03  0.00000000000E+00 0.  1.
         23    2    1    2    0    0  0.33661193234E+03  0.27913296637E+03  0.32513954008E+04  0.32820280284E+04  0.94409326417E+02 0.  0.
         11    1    3    3    0    0  0.19557611600E+03  0.17286399863E+03  0.22605053974E+04  0.22755255725E+04  0.00000000000E+00 0. -1.
        -11    1    3    3    0    0  0.14103581634E+03  0.10626896774E+03  0.99089000336E+03  0.10065024559E+04  0.00000000000E+00 0.  1.
         22    1    1    2    0    0 -0.33661193234E+03 -0.27913296637E+03 -0.86647538359E+03  0.97056807915E+03  0.00000000000E+00 0.  1.
<mgrwt>
<rscale>  0 0.35208991E+04</rscale>
<asrwt>0</asrwt>
<pdfrwt beam="1">  1        2 0.51057816E+00 0.35208991E+04</pdfrwt>
<pdfrwt beam="2">  1       -2 0.14366739E+00 0.35208991E+04</pdfrwt>
<totfact> 0.29762811E-01</totfact>
</mgrwt>
</event>
<event>
 6    1  0.1831439E-005  0.8518812E+03  0.7818608E-02  0.9487816E-01
         -1   -1    0    0    0  501 -0.00000000000E+00  0.00000000000E+00  0.13351701305E+03  0.13351701305E+03  0.00000000000E+00 0.  1.
          1   -1    0    0  501    0  0.00000000000E+00 -0.00000000000E+00 -0.13588185218E+04  0.13588185218E+04  0.00000000000E+00 0. -1.
         23    2    1    2    0    0  0.52907584168E+02 -0.36351096830E+03 -0.26123442134E+03  0.46065497113E+03  0.94974433384E+02 0.  0.
         13    1    3    3    0    0 -0.14350384157E+02 -0.22353379107E+02 -0.41655707052E+02  0.49404503974E+02  0.00000000000E+00 0. -1.
        -13    1    3    3    0    0  0.67257968324E+02 -0.34115758919E+03 -0.21957871429E+03  0.41125046715E+03  0.00000000000E+00 0.  1.
         22    1    1    2    0    0 -0.52907584168E+02  0.36351096830E+03 -0.96406708741E+03  0.10316805637E+04  0.00000000000E+00 0.  1.
<mgrwt>
<rscale>  0 0.85188119E+03</rscale>
<asrwt>0</asrwt>
<pdfrwt beam="1">  1        1 0.20904898E+00 0.85188119E+03</pdfrwt>
<pdfrwt beam="2">  1       -1 0.20541081E-01 0.85188119E+03</pdfrwt>
<totfact> 0.16228100E+02</totfact>
</mgrwt>
</event>
<event>
 6    1  0.1831439E-005  0.4064910E+04  0.7818608E-02  0.7991579E-01
          1   -1    0    0  501    0  0.00000000000E+00  0.00000000000E+00  0.39043651003E+04  0.39043651003E+04  0.00000000000E+00 0. -1.
         -1   -1    0    0    0  501 -0.00000000000E+00 -0.00000000000E+00 -0.10580140751E+04  0.10580140751E+04  0.00000000000E+00 0.  1.
         23    2    1    2    0    0 -0.62648528245E+03  0.38461783331E+03  0.37357363978E+04  0.38085069867E+04  0.92651751574E+02 0.  0.
         11    1    3    3    0    0 -0.57265136212E+03  0.36671271652E+03  0.33206196812E+04  0.33895313638E+04  0.00000000000E+00 0.  1.
        -11    1    3    3    0    0 -0.53833920325E+02  0.17905116791E+02  0.41511671663E+03  0.41897562293E+03  0.00000000000E+00 0. -1.
         22    1    1    2    0    0  0.62648528245E+03 -0.38461783331E+03 -0.88938537261E+03  0.11538721887E+04  0.00000000000E+00 0.  1.
<mgrwt>
<rscale>  0 0.40649100E+04</rscale>
<asrwt>0</asrwt>
<pdfrwt beam="1">  1        1 0.60067155E+00 0.40649100E+04</pdfrwt>
<pdfrwt beam="2">  1       -1 0.16277140E+00 0.40649100E+04</pdfrwt>
<totfact> 0.25122771E-02</totfact>
</mgrwt>
</event>
<event>
 6    1  0.1831439E-005  0.1391321E+04  0.7818608E-02  0.8960125E-01
         -1   -1    0    0    0  501 -0.00000000000E+00  0.00000000000E+00  0.47943630400E+03  0.47943630400E+03  0.00000000000E+00 0.  1.
          1   -1    0    0  501    0  0.00000000000E+00 -0.00000000000E+00 -0.10094014505E+04  0.10094014505E+04  0.00000000000E+00 0. -1.
         23    2    1    2    0    0 -0.22514346782E+03 -0.61865542590E+03 -0.49728177097E+03  0.82967744009E+03  0.87472154190E+02 0.  0.
         11    1    3    3    0    0 -0.61923363802E+02 -0.17190595761E+03 -0.18896504988E+03  0.26285728318E+03  0.00000000000E+00 0. -1.
        -11    1    3    3    0    0 -0.16322010402E+03 -0.44674946829E+03 -0.30831672109E+03  0.56682015691E+03  0.00000000000E+00 0.  1.
         22    1    1    2    0    0  0.22514346782E+03  0.61865542590E+03 -0.32683375568E+02  0.65916031445E+03  0.00000000000E+00 0.  1.
<mgrwt>
<rscale>  0 0.13913212E+04</rscale>
<asrwt>0</asrwt>
<pdfrwt beam="1">  1        1 0.15529253E+00 0.13913212E+04</pdfrwt>
<pdfrwt beam="2">  1       -1 0.73759432E-01 0.13913212E+04</pdfrwt>
<totfact> 0.26879265E+01</totfact>
</mgrwt>
</event>
<event>
 6    1  0.1831439E-005  0.3539919E+04  0.7818608E-02  0.8104394E-01
          1   -1    0    0  501    0  0.00000000000E+00  0.00000000000E+00  0.23744513002E+04  0.23744513002E+04  0.00000000000E+00 0. -1.
         -1   -1    0    0    0  501 -0.00000000000E+00 -0.00000000000E+00 -0.13193605981E+04  0.13193605981E+04  0.00000000000E+00 0.  1.
         23    2    1    2    0    0 -0.12329637121E+04  0.20867154366E+03 -0.77741594616E+03  0.14752934863E+04  0.91498571957E+02 0.  0.
         11    1    3    3    0    0 -0.10058423005E+04  0.15027388065E+03 -0.66592996564E+03  0.12156330416E+04  0.00000000000E+00 0.  1.
        -11    1    3    3    0    0 -0.22712141165E+03  0.58397663012E+02 -0.11148598051E+03  0.25966044467E+03  0.00000000000E+00 0. -1.
         22    1    1    2    0    0  0.12329637121E+04 -0.20867154366E+03  0.18325066483E+04  0.22185184121E+04  0.00000000000E+00 0. -1.
<mgrwt>
<rscale>  0 0.35399195E+04</rscale>
<asrwt>0</asrwt>
<pdfrwt beam="1">  1        1 0.36530020E+00 0.35399195E+04</pdfrwt>
<pdfrwt beam="2">  1       -1 0.20297855E+00 0.35399195E+04</pdfrwt>
<totfact> 0.19311561E-01</totfact>
</mgrwt>
</event>
<event>
 6    1  0.1831439E-005  0.3143481E+04  0.7818608E-02  0.8203905E-01
          1   -1    0    0  501    0  0.00000000000E+00  0.00000000000E+00  0.21856978697E+04  0.21856978697E+04  0.00000000000E+00 0. -1.
         -1   -1    0    0    0  501 -0.00000000000E+00 -0.00000000000E+00 -0.11302426044E+04  0.11302426044E+04  0.00000000000E+00 0.  1.
         23    2    1    2    0    0  0.93022494249E+03  0.40932334110E+03 -0.73474259693E+03  0.12573797082E+04  0.91065941332E+02 0.  0.
         11    1    3    3    0    0  0.66575630871E+03  0.25001786466E+03 -0.52980082538E+03  0.88680849670E+03  0.00000000000E+00 0. -1.
        -11    1    3    3    0    0  0.26446863378E+03  0.15930547643E+03 -0.20494177155E+03  0.37057121151E+03  0.00000000000E+00 0.  1.
         22    1    1    2    0    0 -0.93022494249E+03 -0.40932334110E+03  0.17901978622E+04  0.20585607659E+04  0.00000000000E+00 0. -1.
<mgrwt>
<rscale>  0 0.31434814E+04</rscale>
<asrwt>0</asrwt>
<pdfrwt beam="1">  1        1 0.33626121E+00 0.31434814E+04</pdfrwt>
<pdfrwt beam="2">  1       -1 0.17388348E+00 0.31434814E+04</pdfrwt>
<totfact> 0.43165504E-01</totfact>
</mgrwt>
</event>
<event>
 6    1  0.1831439E-005  0.4633940E+04  0.7818608E-02  0.7887599E-01
          2   -1    0    0  501    0  0.00000000000E+00  0.00000000000E+00  0.29640655605E+04  0.29640655605E+04  0.00000000000E+00 0. -1.
         -2   -1    0    0    0  501 -0.00000000000E+00 -0.00000000000E+00 -0.18111438099E+04  0.18111438099E+04  0.00000000000E+00 0.  1.
         23    2    1    2    0    0 -0.72175515103E+03 -0.34894403704E+03  0.28158131604E+04  0.29291594577E+04  0.92081136861E+02 0.  0.
         13    1    3    3    0    0 -0.32129482587E+03 -0.10955705386E+03  0.12560481786E+04  0.13011111175E+04  0.00000000000E+00 0. -1.
        -13    1    3    3    0    0 -0.40046032516E+03 -0.23938698317E+03  0.15597649818E+04  0.16280483402E+04  0.00000000000E+00 0.  1.
         22    1    1    2    0    0  0.72175515103E+03  0.34894403704E+03 -0.16628914098E+04  0.18460499126E+04  0.00000000000E+00 0.  1.
<mgrwt>
<rscale>  0 0.46339396E+04</rscale>
<asrwt>0</asrwt>
<pdfrwt beam="1">  1        2 0.45601009E+00 0.46339396E+04</pdfrwt>
<pdfrwt beam="2">  1       -2 0.27863751E+00 0.46339396E+04</pdfrwt>
<totfact> 0.58970574E-02</totfact>
</mgrwt>
</event>
<event>
 6    1  0.1831439E-005  0.2885923E+04  0.7818608E-02  0.8277078E-01
          1   -1    0    0  501    0  0.00000000000E+00  0.00000000000E+00  0.25109375825E+04  0.25109375825E+04  0.00000000000E+00 0. -1.
         -1   -1    0    0    0  501 -0.00000000000E+00 -0.00000000000E+00 -0.82922704038E+03  0.82922704038E+03  0.00000000000E+00 0.  1.
         23    2    1    2    0    0 -0.10809891383E+04  0.73593962743E+03  0.13983748008E+03  0.13184037093E+04  0.92136678665E+02 0.  0.
         11    1    3    3    0    0 -0.55758280969E+03  0.40781380684E+03  0.11367986174E+03  0.70009556611E+03  0.00000000000E+00 0.  1.
        -11    1    3    3    0    0 -0.52340632858E+03  0.32812582059E+03  0.26157618342E+02  0.61830814319E+03  0.00000000000E+00 0. -1.
         22    1    1    2    0    0  0.10809891383E+04 -0.73593962743E+03  0.15418730620E+04  0.20217609136E+04  0.00000000000E+00 0. -1.
<mgrwt>
<rscale>  0 0.28859226E+04</rscale>
<asrwt>0</asrwt>
<pdfrwt beam="1">  1        1 0.38629809E+00 0.28859226E+04</pdfrwt>
<pdfrwt beam="2">  1       -1 0.12757339E+00 0.28859226E+04</pdfrwt>
<totfact> 0.60816257E-01</totfact>
</mgrwt>
</event>
<event>
 6    1  0.1831439E-005  0.3011904E+04  0.7818608E-02  0.8240340E-01
          1   -1    0    0  501    0  0.00000000000E+00  0.00000000000E+00  0.14692524098E+04  0.14692524098E+04  0.00000000000E+00 0. -1.
         -1   -1    0    0    0  501 -0.00000000000E+00 -0.00000000000E+00 -0.15435678630E+04  0.15435678630E+04  0.00000000000E+00 0.  1.
         23    2    1    2    0    0 -0.12340185568E+04 -0.18979154178E+03  0.80271036642E+03  0.14870427935E+04  0.90164900786E+02 0.  0.
         13    1    3    3    0    0 -0.52738852462E+03 -0.36064498105E+02  0.33799650392E+03  0.62743998963E+03  0.00000000000E+00 0.  1.
        -13    1    3    3    0    0 -0.70663003222E+03 -0.15372704367E+03  0.46471386250E+03  0.85960280385E+03  0.00000000000E+00 0. -1.
         22    1    1    2    0    0  0.12340185568E+04  0.18979154178E+03 -0.87702581962E+03  0.15257774793E+04  0.00000000000E+00 0.  1.
<mgrwt>
<rscale>  0 0.30119036E+04</rscale>
<asrwt>0</asrwt>
<pdfrwt beam="1">  1        1 0.22603883E+00 0.30119036E+04</pdfrwt>
<pdfrwt beam="2">  1       -1 0.23747198E+00 0.30119036E+04</pdfrwt>
<totfact> 0.49216480E-01</totfact>
</mgrwt>
</event>
<event>
 6    1  0.1831439E-005  0.2740349E+04  0.7818608E-02  0.8322031E-01
          2   -1    0    0  501    0  0.00000000000E+00  0.00000000000E+00  0.27552118185E+04  0.27552118185E+04  0.00000000000E+00 0. -1.
         -2   -1    0    0    0  501 -0.00000000000E+00 -0.00000000000E+00 -0.68139153771E+03  0.68139153771E+03  0.00000000000E+00 0.  1.
         23    2    1    2    0    0 -0.10169933901E+04  0.30209206587E+03  0.21224560041E+04  0.23745767062E+04  0.90883839638E+02 0.  0.
         13    1    3    3    0    0 -0.46014622023E+02  0.16354007590E+02  0.14736280343E+03  0.15524366279E+03  0.00000000000E+00 0.  1.
        -13    1    3    3    0    0 -0.97097876810E+03  0.28573805828E+03  0.19750932007E+04  0.22193330434E+04  0.00000000000E+00 0. -1.
         22    1    1    2    0    0  0.10169933901E+04 -0.30209206587E+03 -0.48635723314E+02  0.10620266500E+04  0.00000000000E+00 0.  1.
<mgrwt>
<rscale>  0 0.27403489E+04</rscale>
<asrwt>0</asrwt>
<pdfrwt beam="1">  1        2 0.42387873E+00 0.27403489E+04</pdfrwt>
<pdfrwt beam="2">  1       -2 0.10482947E+00 0.27403489E+04</pdfrwt>
<totfact> 0.15874281E+00</totfact>
</mgrwt>
</event>
<event>
 6    1  0.1831439E-005  0.3518114E+04  0.7818608E-02  0.8109511E-01
         -1   -1    0    0    0  501 -0.00000000000E+00  0.00000000000E+00  0.14487617502E+04  0.14487617502E+04  0.00000000000E+00 0.  1.
          1   -1    0    0  501    0  0.00000000000E+00 -0.00000000000E+00 -0.21358107158E+04  0.21358107158E+04  0.00000000000E+00 0. -1.
         23    2    1    2    0    0  0.84562871277E+03  0.23003216830E+01 -0.19139651546E+04  0.20944662463E+04  0.91831544625E+02 0.  0.
         11    1    3    3    0    0  0.36591572626E+03 -0.42657765323E+02 -0.86104406967E+03  0.93654198709E+03  0.00000000000E+00 0. -1.
        -11    1    3    3    0    0  0.47971298651E+03  0.44958087006E+02 -0.10529210849E+04  0.11579242592E+04  0.00000000000E+00 0.  1.
         22    1    1    2    0    0 -0.84562871277E+03 -0.23003216830E+01  0.12269161889E+04  0.14901062197E+04  0.00000000000E+00 0.  1.
<mgrwt>
<rscale>  0 0.35181136E+04</rscale>
<asrwt>0</asrwt>
<pdfrwt beam="1">  1        1 0.32858626E+00 0.35181136E+04</pdfrwt>
<pdfrwt beam="2">  1       -1 0.22288643E+00 0.35181136E+04</pdfrwt>
<totfact> 0.20661460E-01</totfact>
</mgrwt>
</event>
<event>
 6    1  0.1831439E-005  0.3737809E+04  0.7818608E-02  0.8059634E-01
         -2   -1    0    0    0  501 -0.00000000000E+00  0.00000000000E+00  0.24563038428E+04  0.24563038428E+04  0.00000000000E+00 0.  1.
          2   -1    0    0  501    0  0.00000000000E+00 -0.00000000000E+00 -0.14219752058E+04  0.14219752058E+04  0.00000000000E+00 0. -1.
         23    2    1    2    0    0  0.10523477512E+03  0.80231622477E+03 -0.12291845461E+04  0.14744742287E+04  0.91618339154E+02 0.  0.
         13    1    3    3    0    0  0.45374699411E+02  0.63315992278E+03 -0.94688035502E+03  0.11399705075E+04  0.00000000000E+00 0.  1.
        -13    1    3    3    0    0  0.59860075709E+02  0.16915630200E+03 -0.28230419112E+03  0.33450372120E+03  0.00000000000E+00 0. -1.
         22    1    1    2    0    0 -0.10523477512E+03 -0.80231622477E+03  0.22635131831E+04  0.24038048200E+04  0.00000000000E+00 0.  1.
<mgrwt>
<rscale>  0 0.37378085E+04</rscale>
<asrwt>0</asrwt>
<pdfrwt beam="1">  1        2 0.21876542E+00 0.37378085E+04</pdfrwt>
<pdfrwt beam="2">  1       -2 0.37789290E+00 0.37378085E+04</pdfrwt>
<totfact> 0.11696759E-01</totfact>
</mgrwt>
</event>
<event>
 6    1  0.1831439E-005  0.1645940E+04  0.7818608E-02  0.8792812E-01
         -2   -1    0    0    0  501 -0.00000000000E+00  0.00000000000E+00  0.21659313153E+03  0.21659313153E+03  0.00000000000E+00 0.  1.
          2   -1    0    0  501    0  0.00000000000E+00 -0.00000000000E+00 -0.31269676838E+04  0.31269676838E+04  0.00000000000E+00 0. -1.
         23    2    1    2    0    0 -0.66246633644E+03  0.48146033103E+03 -0.13612512696E+04  0.15912912464E+04  0.92396507531E+02 0.  0.
         11    1    3    3    0    0 -0.47229546136E+03  0.39208746599E+03 -0.10282981809E+04  0.11975778608E+04  0.00000000000E+00 0.  1.
        -11    1    3    3    0    0 -0.19017087508E+03  0.89372865044E+02 -0.33295308873E+03  0.39371338564E+03  0.00000000000E+00 0. -1.
         22    1    1    2    0    0  0.66246633644E+03 -0.48146033103E+03 -0.15491232827E+04  0.17522695690E+04  0.00000000000E+00 0.  1.
<mgrwt>
<rscale>  0 0.16459401E+04</rscale>
<asrwt>0</asrwt>
<pdfrwt beam="1">  1        2 0.48107195E+00 0.16459401E+04</pdfrwt>
<pdfrwt beam="2">  1       -2 0.33322020E-01 0.16459401E+04</pdfrwt>
<totfact> 0.11703554E+01</totfact>
</mgrwt>
</event>
<event>
 6    1  0.1831439E-005  0.2927531E+04  0.7818608E-02  0.8264733E-01
         -2   -1    0    0    0  501 -0.00000000000E+00  0.00000000000E+00  0.90557033183E+03  0.90557033183E+03  0.00000000000E+00 0.  1.
          2   -1    0    0  501    0  0.00000000000E+00 -0.00000000000E+00 -0.23660324353E+04  0.23660324353E+04  0.00000000000E+00 0. -1.
         23    2    1    2    0    0  0.70283093916E+03 -0.61779757648E+03  0.52469490488E+03  0.10769516508E+04  0.94206902340E+02 0.  0.
         11    1    3    3    0    0  0.48332251101E+03 -0.42602941683E+03  0.31027866503E+03  0.71510458231E+03  0.00000000000E+00 0.  1.
        -11    1    3    3    0    0  0.21950842815E+03 -0.19176815965E+03  0.21441623984E+03  0.36184706851E+03  0.00000000000E+00 0. -1.
         22    1    1    2    0    0 -0.70283093916E+03  0.61779757648E+03 -0.19851570083E+04  0.21946511163E+04  0.00000000000E+00 0. -1.
<mgrwt>
<rscale>  0 0.29275305E+04</rscale>
<asrwt>0</asrwt>
<pdfrwt beam="1">  1        2 0.36400498E+00 0.29275305E+04</pdfrwt>
<pdfrwt beam="2">  1       -2 0.13931852E+00 0.29275305E+04</pdfrwt>
<totfact> 0.13020859E+00</totfact>
</mgrwt>
</event>
<event>
 6    1  0.1831439E-005  0.3597666E+04  0.7818608E-02  0.8091027E-01
         -2   -1    0    0    0  501 -0.00000000000E+00  0.00000000000E+00  0.10428758069E+04  0.10428758069E+04  0.00000000000E+00 0.  1.
          2   -1    0    0  501    0  0.00000000000E+00 -0.00000000000E+00 -0.31027665350E+04  0.31027665350E+04  0.00000000000E+00 0. -1.
         23    2    1    2    0    0 -0.11507865748E+04  0.31701172018E+03 -0.25794980921E+04  0.28437982713E+04  0.92585253603E+02 0.  0.
         11    1    3    3    0    0 -0.91041146098E+03  0.28910203586E+03 -0.20491694773E+04  0.22608680992E+04  0.00000000000E+00 0.  1.
        -11    1    3    3    0    0 -0.24037511386E+03  0.27909684317E+02 -0.53032861482E+03  0.58293017209E+03  0.00000000000E+00 0. -1.
         22    1    1    2    0    0  0.11507865748E+04 -0.31701172018E+03  0.51960736400E+03  0.13018440706E+04  0.00000000000E+00 0.  1.
<mgrwt>
<rscale>  0 0.35976660E+04</rscale>
<asrwt>0</asrwt>
<pdfrwt beam="1">  1        2 0.47734870E+00 0.35976660E+04</pdfrwt>
<pdfrwt beam="2">  1       -2 0.16044243E+00 0.35976660E+04</pdfrwt>
<totfact> 0.30517372E-01</totfact>
</mgrwt>
</event>
<event>
 6    1  0.1831439E-005  0.6851470E+04  0.7818608E-02  0.7592950E-01
          2   -1    0    0  501    0  0.00000000000E+00  0.00000000000E+00  0.33044711326E+04  0.33044711326E+04  0.00000000000E+00 0. -1.
         -2   -1    0    0    0  501 -0.00000000000E+00 -0.00000000000E+00 -0.35514492082E+04  0.35514492082E+04  0.00000000000E+00 0.  1.
         23    2    1    2    0    0 -0.88398095535E+03  0.20060532811E+04  0.25099205209E+04  0.33336821366E+04  0.89796830978E+02 0.  0.
         11    1    3    3    0    0 -0.42093863209E+03  0.10618273230E+04  0.13263110722E+04  0.17503621500E+04  0.00000000000E+00 0.  1.
        -11    1    3    3    0    0 -0.46304232326E+03  0.94422595811E+03  0.11836094487E+04  0.15833199867E+04  0.00000000000E+00 0. -1.
         22    1    1    2    0    0  0.88398095535E+03 -0.20060532811E+04 -0.27568985965E+04  0.35222382042E+04  0.00000000000E+00 0.  1.
<mgrwt>
<rscale>  0 0.68514703E+04</rscale>
<asrwt>0</asrwt>
<pdfrwt beam="1">  1        2 0.50838017E+00 0.68514703E+04</pdfrwt>
<pdfrwt beam="2">  1       -2 0.54637680E+00 0.68514703E+04</pdfrwt>
<totfact> 0.63551093E-04</totfact>
</mgrwt>
</event>
<event>
 6    1  0.1831439E-005  0.1485888E+04  0.7818608E-02  0.8893892E-01
          2   -1    0    0  501    0  0.00000000000E+00  0.00000000000E+00  0.10229921214E+04  0.10229921214E+04  0.00000000000E+00 0. -1.
         -2   -1    0    0    0  501 -0.00000000000E+00 -0.00000000000E+00 -0.53956031500E+03  0.53956031500E+03  0.00000000000E+00 0.  1.
         23    2    1    2    0    0  0.25982764889E+03 -0.13483684056E+03 -0.47245708378E+03  0.56284500366E+03  0.88811155968E+02 0.  0.
         13    1    3    3    0    0  0.14801291584E+03 -0.12260003323E+03 -0.27319566720E+03  0.33402763954E+03  0.00000000000E+00 0.  1.
        -13    1    3    3    0    0  0.11181473305E+03 -0.12236807336E+02 -0.19926141659E+03  0.22881736412E+03  0.00000000000E+00 0. -1.
         22    1    1    2    0    0 -0.25982764889E+03  0.13483684056E+03  0.95588889016E+03  0.99970743272E+03  0.00000000000E+00 0. -1.
<mgrwt>
<rscale>  0 0.14858882E+04</rscale>
<asrwt>0</asrwt>
<pdfrwt beam="1">  1        2 0.15738340E+00 0.14858882E+04</pdfrwt>
<pdfrwt beam="2">  1       -2 0.83009279E-01 0.14858882E+04</pdfrwt>
<totfact> 0.29954132E+01</totfact>
</mgrwt>
</event>
<event>
 6    1  0.2370997E-005  0.2234817E+04  0.7818608E-02  0.8504075E-01
          1   -1    0    0  501    0  0.00000000000E+00  0.00000000000E+00  0.21491712897E+04  0.21491712897E+04  0.00000000000E+00 0. -1.
         -1   -1    0    0    0  501 -0.00000000000E+00 -0.00000000000E+00 -0.58096897215E+03  0.58096897215E+03  0.00000000000E+00 0.  1.
         23    2    1    2    0    0 -0.59232000889E+02 -0.10196989434E+04  0.23768825255E+03  0.10527726688E+04  0.92413319563E+02 0.  0.
         11    1    3    3    0    0 -0.46558627673E+02 -0.38371052414E+03  0.51306296349E+02  0.38991512948E+03  0.00000000000E+00 0.  1.
        -11    1    3    3    0    0 -0.12673373216E+02 -0.63598841926E+03  0.18638195620E+03  0.66285753930E+03  0.00000000000E+00 0. -1.
         22    1    1    2    0    0  0.59232000889E+02  0.10196989434E+04  0.13305140650E+04  0.16773675931E+04  0.00000000000E+00 0. -1.
<mgrwt>
<rscale>  0 0.22348171E+04</rscale>
<asrwt>0</asrwt>
<pdfrwt beam="1">  1        1 0.33064173E+00 0.22348171E+04</pdfrwt>
<pdfrwt beam="2">  1       -1 0.89379843E-01 0.22348171E+04</pdfrwt>
<totfact> 0.26300224E+00</totfact>
</mgrwt>
</event>
<event>
 6    1  0.1831439E-005  0.1851665E+04  0.7818608E-02  0.8679297E-01
          1   -1    0    0  501    0  0.00000000000E+00  0.00000000000E+00  0.12982200761E+04  0.12982200761E+04  0.00000000000E+00 0. -1.
         -1   -1    0    0    0  501 -0.00000000000E+00 -0.00000000000E+00 -0.66026260189E+03  0.66026260189E+03  0.00000000000E+00 0.  1.
         23    2    1    2    0    0 -0.19235579885E+02  0.91521456372E+03  0.44922274463E+03  0.10238124135E+04  0.91668307307E+02 0.  0.
         13    1    3    3    0    0 -0.17059296362E+02  0.71827042593E+03  0.30934238593E+03  0.78223790249E+03  0.00000000000E+00 0. -1.
        -13    1    3    3    0    0 -0.21762835228E+01  0.19694413779E+03  0.13988035870E+03  0.24157451101E+03  0.00000000000E+00 0.  1.
         22    1    1    2    0    0  0.19235579885E+02 -0.91521456372E+03  0.18873472958E+03  0.93467026449E+03  0.00000000000E+00 0.  1.
<mgrwt>
<rscale>  0 0.18516654E+04</rscale>
<asrwt>0</asrwt>
<pdfrwt beam="1">  1        1 0.19972617E+00 0.18516654E+04</pdfrwt>
<pdfrwt beam="2">  1       -1 0.10157886E+00 0.18516654E+04</pdfrwt>
<totfact> 0.78362640E+00</totfact>
</mgrwt>
</event>
<event>
 6    1  0.1831439E-005  0.1162681E+04  0.7818608E-02  0.9146164E-01
          2   -1    0    0  501    0  0.00000000000E+00  0.00000000000E+00  0.12479913683E+04  0.12479913683E+04  0.00000000000E+00 0. -1.
         -2   -1    0    0    0  501 -0.00000000000E+00 -0.00000000000E+00 -0.27080067823E+03  0.27080067823E+03  0.00000000000E+00 0.  1.
         23    2    1    2    0    0  0.16775605950E+03  0.18221016972E+03 -0.18984711334E+03  0.32576234195E+03  0.93469436412E+02 0.  0.
         11    1    3    3    0    0  0.10031168758E+03  0.16388593277E+03 -0.15884892882E+03  0.24930707132E+03  0.00000000000E+00 0. -1.
        -11    1    3    3    0    0  0.67444371920E+02  0.18324236951E+02 -0.30998184515E+02  0.76455270628E+02  0.00000000000E+00 0.  1.
         22    1    1    2    0    0 -0.16775605950E+03 -0.18221016972E+03  0.11670378034E+04  0.11930297046E+04  0.00000000000E+00 0. -1.
<mgrwt>
<rscale>  0 0.11626812E+04</rscale>
<asrwt>0</asrwt>
<pdfrwt beam="1">  1        2 0.19199867E+00 0.11626812E+04</pdfrwt>
<pdfrwt beam="2">  1       -2 0.41661644E-01 0.11626812E+04</pdfrwt>
<totfact> 0.95705281E+01</totfact>
</mgrwt>
</event>
<event>
 6    1  0.1831439E-005  0.2343114E+04  0.7818608E-02  0.8461113E-01
         -1   -1    0    0    0  501 -0.00000000000E+00  0.00000000000E+00  0.29076150785E+04  0.29076150785E+04  0.00000000000E+00 0.  1.
          1   -1    0    0  501    0  0.00000000000E+00 -0.00000000000E+00 -0.47205194513E+03  0.47205194513E+03  0.00000000000E+00 0. -1.
         23    2    1    2    0    0  0.55815446764E+02  0.11664153115E+04  0.11201263403E+04  0.16206860688E+04  0.91105829096E+02 0.  0.
         13    1    3    3    0    0  0.33778488988E+02  0.33745906670E+03  0.37809326415E+03  0.50791153208E+03  0.00000000000E+00 0. -1.
        -13    1    3    3    0    0  0.22036957776E+02  0.82895624484E+03  0.74203307619E+03  0.11127745367E+04  0.00000000000E+00 0.  1.
         22    1    1    2    0    0 -0.55815446764E+02 -0.11664153115E+04  0.13154367930E+04  0.17589809549E+04  0.00000000000E+00 0. -1.
<mgrwt>
<rscale>  0 0.23431136E+04</rscale>
<asrwt>0</asrwt>
<pdfrwt beam="1">  1        1 0.72623378E-01 0.23431136E+04</pdfrwt>
<pdfrwt beam="2">  1       -1 0.44732538E+00 0.23431136E+04</pdfrwt>
<totfact> 0.14578829E-01</totfact>
</mgrwt>
</event>
<event>
 6    1  0.1831439E-005  0.2389094E+04  0.7818608E-02  0.8443598E-01
          1   -1    0    0  501    0  0.00000000000E+00  0.00000000000E+00  0.14268509530E+04  0.14268509530E+04  0.00000000000E+00 0. -1.
         -1   -1    0    0    0  501 -0.00000000000E+00 -0.00000000000E+00 -0.10000642256E+04  0.10000642256E+04  0.00000000000E+00 0.  1.
         23    2    1    2    0    0 -0.62256835429E+03  0.78446592553E+03 -0.44466069940E+03  0.10993615030E+04  0.88850619411E+02 0.  0.
         13    1    3    3    0    0 -0.47792861125E+03  0.53827757506E+03 -0.31313675984E+03  0.78499244304E+03  0.00000000000E+00 0. -1.
        -13    1    3    3    0    0 -0.14463974304E+03  0.24618835046E+03 -0.13152393956E+03  0.31436905994E+03  0.00000000000E+00 0.  1.
         22    1    1    2    0    0  0.62256835429E+03 -0.78446592553E+03  0.87144742678E+03  0.13275536756E+04  0.00000000000E+00 0. -1.
<mgrwt>
<rscale>  0 0.23890940E+04</rscale>
<asrwt>0</asrwt>
<pdfrwt beam="1">  1        1 0.21951553E+00 0.23890940E+04</pdfrwt>
<pdfrwt beam="2">  1       -1 0.15385603E+00 0.23890940E+04</pdfrwt>
<totfact> 0.21490424E+00</totfact>
</mgrwt>
</event>
<event>
 6    1  0.1831439E-005  0.1281640E+04  0.7818608E-02  0.9044253E-01
         -1   -1    0    0    0  501 -0.00000000000E+00  0.00000000000E+00  0.13889170185E+03  0.13889170185E+03  0.00000000000E+00 0.  1.
          1   -1    0    0  501    0  0.00000000000E+00 -0.00000000000E+00 -0.29566198105E+04  0.29566198105E+04  0.00000000000E+00 0. -1.
         23    2    1    2    0    0  0.42137629986E+03  0.25981367545E+03 -0.44509091264E+03  0.67178124767E+03  0.90127643766E+02 0.  0.
         13    1    3    3    0    0  0.27707929502E+02  0.27300703217E+02 -0.89504503794E+01  0.39914512591E+02  0.00000000000E+00 0.  1.
        -13    1    3    3    0    0  0.39366837036E+03  0.23251297223E+03 -0.43614046226E+03  0.63186673508E+03  0.00000000000E+00 0. -1.
         22    1    1    2    0    0 -0.42137629986E+03 -0.25981367545E+03 -0.23726371961E+04  0.24237302647E+04  0.00000000000E+00 0. -1.
<mgrwt>
<rscale>  0 0.12816395E+04</rscale>
<asrwt>0</asrwt>
<pdfrwt beam="1">  1        1 0.45486456E+00 0.12816395E+04</pdfrwt>
<pdfrwt beam="2">  1       -1 0.21367955E-01 0.12816395E+04</pdfrwt>
<totfact> 0.11690668E+01</totfact>
</mgrwt>
</event>
<event>
 6    1  0.1831439E-005  0.2361922E+04  0.7818608E-02  0.8453899E-01
          1   -1    0    0  501    0  0.00000000000E+00  0.00000000000E+00  0.17113967484E+04  0.17113967484E+04  0.00000000000E+00 0. -1.
         -1   -1    0    0    0  501 -0.00000000000E+00 -0.00000000000E+00 -0.81493013139E+03  0.81493013139E+03  0.00000000000E+00 0.  1.
         23    2    1    2    0    0  0.10778486955E+04  0.34810659705E+03  0.98092625014E+02  0.11405646186E+04  0.91265945702E+02 0.  0.
         13    1    3    3    0    0  0.60441153445E+03  0.16726229421E+03  0.17322445013E+02  0.62736755187E+03  0.00000000000E+00 0. -1.
        -13    1    3    3    0    0  0.47343716108E+03  0.18084430284E+03  0.80770180002E+02  0.51319706676E+03  0.00000000000E+00 0.  1.
         22    1    1    2    0    0 -0.10778486955E+04 -0.34810659705E+03  0.79837399201E+03  0.13857622612E+04  0.00000000000E+00 0. -1.
<mgrwt>
<rscale>  0 0.23619219E+04</rscale>
<asrwt>0</asrwt>
<pdfrwt beam="1">  1        1 0.26329181E+00 0.23619219E+04</pdfrwt>
<pdfrwt beam="2">  1       -1 0.12537387E+00 0.23619219E+04</pdfrwt>
<totfact> 0.23377960E+00</totfact>
</mgrwt>
</event>
<event>
 6    1  0.1831439E-005  0.3876234E+04  0.7818608E-02  0.8029990E-01
          2   -1    0    0  501    0  0.00000000000E+00  0.00000000000E+00  0.34138332494E+04  0.34138332494E+04  0.00000000000E+00 0. -1.
         -2   -1    0    0    0  501 -0.00000000000E+00 -0.00000000000E+00 -0.11003164290E+04  0.11003164290E+04  0.00000000000E+00 0.  1.
         23    2    1    2    0    0  0.11801509164E+03  0.17372740084E+04  0.21455496213E+04  0.27647893604E+04  0.92889655306E+02 0.  0.
         11    1    3    3    0    0  0.51501938036E+02  0.10134788324E+04  0.11824572455E+04  0.15582031096E+04  0.00000000000E+00 0.  1.
        -11    1    3    3    0    0  0.66513153604E+02  0.72379517603E+03  0.96309237580E+03  0.12065862509E+04  0.00000000000E+00 0. -1.
         22    1    1    2    0    0 -0.11801509164E+03 -0.17372740084E+04  0.16796719911E+03  0.17493603180E+04  0.00000000000E+00 0.  1.
<mgrwt>
<rscale>  0 0.38762336E+04</rscale>
<asrwt>0</asrwt>
<pdfrwt beam="1">  1        2 0.52520511E+00 0.38762336E+04</pdfrwt>
<pdfrwt beam="2">  1       -2 0.16927945E+00 0.38762336E+04</pdfrwt>
<totfact> 0.16005789E-01</totfact>
</mgrwt>
</event>
<event>
 6    1  0.1831439E-005  0.2366754E+04  0.7818608E-02  0.8452056E-01
         -2   -1    0    0    0  501 -0.00000000000E+00  0.00000000000E+00  0.38516029906E+03  0.38516029906E+03  0.00000000000E+00 0.  1.
          2   -1    0    0  501    0  0.00000000000E+00 -0.00000000000E+00 -0.36358393056E+04  0.36358393056E+04  0.00000000000E+00 0. -1.
         23    2    1    2    0    0 -0.59650410158E+03 -0.47104802445E+03 -0.31644993292E+04  0.32560614887E+04  0.10088126049E+03 0.  0.
         13    1    3    3    0    0 -0.39306369150E+03 -0.27826752283E+03 -0.21718121504E+04  0.22245673504E+04  0.00000000000E+00 0. -1.
        -13    1    3    3    0    0 -0.20344041007E+03 -0.19278050163E+03 -0.99268717881E+03  0.10314941382E+04  0.00000000000E+00 0.  1.
         22    1    1    2    0    0  0.59650410158E+03  0.47104802445E+03 -0.86179677328E+02  0.76493811601E+03  0.00000000000E+00 0.  1.
<mgrwt>
<rscale>  0 0.23667539E+04</rscale>
<asrwt>0</asrwt>
<pdfrwt beam="1">  1        2 0.55935989E+00 0.23667539E+04</pdfrwt>
<pdfrwt beam="2">  1       -2 0.59255430E-01 0.23667539E+04</pdfrwt>
<totfact> 0.15640110E+00</totfact>
</mgrwt>
</event>
<event>
 6    1  0.1831439E-005  0.3869038E+04  0.7818608E-02  0.8031500E-01
          2   -1    0    0  501    0  0.00000000000E+00  0.00000000000E+00  0.27927093549E+04  0.27927093549E+04  0.00000000000E+00 0.  1.
         -2   -1    0    0    0  501 -0.00000000000E+00 -0.00000000000E+00 -0.13400479776E+04  0.13400479776E+04  0.00000000000E+00 0. -1.
         23    2    1    2    0    0 -0.13435922732E+04 -0.12796233920E+04  0.13074821858E+04  0.22716412105E+04  0.90376442948E+02 0.  0.
         11    1    3    3    0    0 -0.12572298171E+04 -0.12090390180E+04  0.12519791439E+04  0.21470570409E+04  0.00000000000E+00 0.  1.
        -11    1    3    3    0    0 -0.86362456043E+02 -0.70584373978E+02  0.55503041838E+02  0.12458416961E+03  0.00000000000E+00 0. -1.
         22    1    1    2    0    0  0.13435922732E+04  0.12796233920E+04  0.14517919153E+03  0.18611161220E+04  0.00000000000E+00 0.  1.
<mgrwt>
<rscale>  0 0.38690384E+04</rscale>
<asrwt>0</asrwt>
<pdfrwt beam="1">  1        2 0.42964759E+00 0.38690384E+04</pdfrwt>
<pdfrwt beam="2">  1       -2 0.20616123E+00 0.38690384E+04</pdfrwt>
<totfact> 0.22573562E-01</totfact>
</mgrwt>
</event>
<event>
 6    1  0.1831439E-005  0.1379432E+04  0.7818608E-02  0.8968843E-01
         -1   -1    0    0    0  501 -0.00000000000E+00  0.00000000000E+00  0.46605918391E+03  0.46605918391E+03  0.00000000000E+00 0.  1.
          1   -1    0    0  501    0  0.00000000000E+00 -0.00000000000E+00 -0.10207027462E+04  0.10207027462E+04  0.00000000000E+00 0. -1.
         23    2    1    2    0    0 -0.32167661442E+03  0.12373341897E+02  0.37596364168E+03  0.50204942793E+03  0.84119108231E+02 0.  0.
         13    1    3    3    0    0  0.28929142926E+01 -0.56911931341E+01  0.14906747456E+02  0.16216342131E+02  0.00000000000E+00 0.  1.
        -13    1    3    3    0    0 -0.32456952871E+03  0.18064535031E+02  0.36105689422E+03  0.48583308580E+03  0.00000000000E+00 0. -1.
         22    1    1    2    0    0  0.32167661442E+03 -0.12373341897E+02 -0.93060720398E+03  0.98471250218E+03  0.00000000000E+00 0. -1.
<mgrwt>
<rscale>  0 0.13794316E+04</rscale>
<asrwt>0</asrwt>
<pdfrwt beam="1">  1        1 0.15703119E+00 0.13794316E+04</pdfrwt>
<pdfrwt beam="2">  1       -1 0.71701414E-01 0.13794316E+04</pdfrwt>
<totfact> 0.27960810E+01</totfact>
</mgrwt>
</event>
<event>
 6    1  0.1831439E-005  0.4558841E+04  0.7818608E-02  0.7900416E-01
          2   -1    0    0  501    0  0.00000000000E+00  0.00000000000E+00  0.29864043995E+04  0.29864043995E+04  0.00000000000E+00 0. -1.
         -2   -1    0    0    0  501 -0.00000000000E+00 -0.00000000000E+00 -0.17398036202E+04  0.17398036202E+04  0.00000000000E+00 0.  1.
         23    2    1    2    0    0 -0.76325289466E+03 -0.10506865471E+03  0.28465517249E+04  0.29504159622E+04  0.92212927555E+02 0.  0.
         11    1    3    3    0    0 -0.44155958173E+03 -0.84912158996E+02  0.15085069685E+04  0.15740959987E+04  0.00000000000E+00 0. -1.
        -11    1    3    3    0    0 -0.32169331294E+03 -0.20156495713E+02  0.13380447564E+04  0.13763199635E+04  0.00000000000E+00 0.  1.
         22    1    1    2    0    0  0.76325289466E+03  0.10506865471E+03 -0.15999509455E+04  0.17757920575E+04  0.00000000000E+00 0.  1.
<mgrwt>
<rscale>  0 0.45588407E+04</rscale>
<asrwt>0</asrwt>
<pdfrwt beam="1">  1        2 0.45944683E+00 0.45588407E+04</pdfrwt>
<pdfrwt beam="2">  1       -2 0.26766210E+00 0.45588407E+04</pdfrwt>
<totfact> 0.67035796E-02</totfact>
</mgrwt>
</event>
<event>
 6    1  0.2168907E-005  0.2473363E+04  0.7818608E-02  0.8412537E-01
         -2   -1    0    0    0  501 -0.00000000000E+00  0.00000000000E+00  0.12775776257E+04  0.12775776257E+04  0.00000000000E+00 0.  1.
          2   -1    0    0  501    0  0.00000000000E+00 -0.00000000000E+00 -0.11970942990E+04  0.11970942990E+04  0.00000000000E+00 0. -1.
         23    2    1    2    0    0  0.12110696442E+04 -0.81743537397E+02 -0.18760255914E+03  0.12315944006E+04  0.90875510691E+02 0.  0.
         11    1    3    3    0    0  0.71969162611E+03 -0.87935368025E+02 -0.13316529690E+03  0.73717139251E+03  0.00000000000E+00 0.  1.
        -11    1    3    3    0    0  0.49137801805E+03  0.61918306280E+01 -0.54437262239E+02  0.49442300807E+03  0.00000000000E+00 0. -1.
         22    1    1    2    0    0 -0.12110696442E+04  0.81743537397E+02  0.26808588582E+03  0.12430775242E+04  0.00000000000E+00 0.  1.
<mgrwt>
<rscale>  0 0.24733628E+04</rscale>
<asrwt>0</asrwt>
<pdfrwt beam="1">  1        2 0.18416835E+00 0.24733628E+04</pdfrwt>
<pdfrwt beam="2">  1       -2 0.19655040E+00 0.24733628E+04</pdfrwt>
<totfact> 0.23823113E+00</totfact>
</mgrwt>
</event>
<event>
 6    1  0.1831439E-005  0.3723613E+04  0.7818608E-02  0.8062749E-01
          2   -1    0    0  501    0  0.00000000000E+00  0.00000000000E+00  0.22421144688E+04  0.22421144688E+04  0.00000000000E+00 0. -1.
         -2   -1    0    0    0  501 -0.00000000000E+00 -0.00000000000E+00 -0.15460061599E+04  0.15460061599E+04  0.00000000000E+00 0.  1.
         23    2    1    2    0    0 -0.15535632595E+04  0.37726663021E+03  0.13165303542E+04  0.20732409169E+04  0.95847870625E+02 0.  0.
         11    1    3    3    0    0 -0.32948808016E+03  0.97157124904E+02  0.23769668982E+03  0.41773390842E+03  0.00000000000E+00 0.  1.
        -11    1    3    3    0    0 -0.12240751793E+04  0.28010950531E+03  0.10788336644E+04  0.16555070084E+04  0.00000000000E+00 0. -1.
         22    1    1    2    0    0  0.15535632595E+04 -0.37726663021E+03 -0.62042204531E+03  0.17148797118E+04  0.00000000000E+00 0.  1.
<mgrwt>
<rscale>  0 0.37236126E+04</rscale>
<asrwt>0</asrwt>
<pdfrwt beam="1">  1        2 0.34494069E+00 0.37236126E+04</pdfrwt>
<pdfrwt beam="2">  1       -2 0.23784710E+00 0.37236126E+04</pdfrwt>
<totfact> 0.30134269E-01</totfact>
</mgrwt>
</event>
<event>
 6    1  0.1831439E-005  0.2030463E+04  0.7818608E-02  0.8592509E-01
          1   -1    0    0  501    0  0.00000000000E+00  0.00000000000E+00  0.11156458321E+04  0.11156458321E+04  0.00000000000E+00 0. -1.
         -1   -1    0    0    0  501 -0.00000000000E+00 -0.00000000000E+00 -0.92385515928E+03  0.92385515928E+03  0.00000000000E+00 0.  1.
         23    2    1    2    0    0  0.54271721299E+03 -0.34517201435E+03  0.88247340611E+03  0.10957169425E+04  0.90280744091E+02 0.  0.
         11    1    3    3    0    0  0.31989300122E+03 -0.15240068980E+03  0.46013794590E+03  0.58076194067E+03  0.00000000000E+00 0.  1.
        -11    1    3    3    0    0  0.22282421178E+03 -0.19277132455E+03  0.42233546022E+03  0.51495500180E+03  0.00000000000E+00 0. -1.
         22    1    1    2    0    0 -0.54271721299E+03  0.34517201435E+03 -0.69068273333E+03  0.94378404887E+03  0.00000000000E+00 0.  1.
<mgrwt>
<rscale>  0 0.20304632E+04</rscale>
<asrwt>0</asrwt>
<pdfrwt beam="1">  1        1 0.17163782E+00 0.20304632E+04</pdfrwt>
<pdfrwt beam="2">  1       -1 0.14213156E+00 0.20304632E+04</pdfrwt>
<totfact> 0.45996750E+00</totfact>
</mgrwt>
</event>
<event>
 6    1  0.1831439E-005  0.1898266E+04  0.7818608E-02  0.8655720E-01
          2   -1    0    0  501    0  0.00000000000E+00  0.00000000000E+00  0.35473024078E+04  0.35473024078E+04  0.00000000000E+00 0. -1.
         -2   -1    0    0    0  501 -0.00000000000E+00 -0.00000000000E+00 -0.25395443551E+03  0.25395443551E+03  0.00000000000E+00 0.  1.
         23    2    1    2    0    0  0.21263149771E+02  0.55194598695E+03  0.11068725714E+03  0.57102067209E+03  0.93361903472E+02 0.  0.
         13    1    3    3    0    0  0.57638258146E+02  0.33242914159E+03  0.75692008680E+02  0.34577533625E+03  0.00000000000E+00 0.  1.
        -13    1    3    3    0    0 -0.36375108375E+02  0.21951684536E+03  0.34995248460E+02  0.22524533584E+03  0.00000000000E+00 0. -1.
         22    1    1    2    0    0 -0.21263149771E+02 -0.55194598695E+03  0.31826607151E+04  0.32302361712E+04  0.00000000000E+00 0. -1.
<mgrwt>
<rscale>  0 0.18982657E+04</rscale>
<asrwt>0</asrwt>
<pdfrwt beam="1">  1        2 0.54573880E+00 0.18982657E+04</pdfrwt>
<pdfrwt beam="2">  1       -2 0.39069916E-01 0.18982657E+04</pdfrwt>
<totfact> 0.43994568E+00</totfact>
</mgrwt>
</event>
<event>
 6    1  0.1831439E-005  0.6611955E+03  0.7818608E-02  0.9785995E-01
          2   -1    0    0  501    0  0.00000000000E+00  0.00000000000E+00  0.39863449427E+03  0.39863449427E+03  0.00000000000E+00 0.  1.
         -2   -1    0    0    0  501 -0.00000000000E+00 -0.00000000000E+00 -0.27417317062E+03  0.27417317062E+03  0.00000000000E+00 0. -1.
         23    2    1    2    0    0 -0.28976417155E+03 -0.91817036634E+02 -0.50671667598E+02  0.32200115418E+03  0.93399582807E+02 0.  0.
         11    1    3    3    0    0 -0.72915747842E+02  0.72486112431E+01 -0.39710458247E+02  0.83343680879E+02  0.00000000000E+00 0. -1.
        -11    1    3    3    0    0 -0.21684842370E+03 -0.99065647877E+02 -0.10961209351E+02  0.23865747330E+03  0.00000000000E+00 0.  1.
         22    1    1    2    0    0  0.28976417155E+03  0.91817036634E+02  0.17513299125E+03  0.35080651070E+03  0.00000000000E+00 0.  1.
<mgrwt>
<rscale>  0 0.66119553E+03</rscale>
<asrwt>0</asrwt>
<pdfrwt beam="1">  1        2 0.61328383E-01 0.66119553E+03</pdfrwt>
<pdfrwt beam="2">  1       -2 0.42180488E-01 0.66119553E+03</pdfrwt>
<totfact> 0.42885581E+02</totfact>
</mgrwt>
</event>
<event>
 6    1  0.1831439E-005  0.2853248E+04  0.7818608E-02  0.8286925E-01
          2   -1    0    0  501    0  0.00000000000E+00  0.00000000000E+00  0.84417962517E+03  0.84417962517E+03  0.00000000000E+00 0. -1.
         -2   -1    0    0    0  501 -0.00000000000E+00 -0.00000000000E+00 -0.24109277900E+04  0.24109277900E+04  0.00000000000E+00 0.  1.
         23    2    1    2    0    0 -0.16449524848E+03  0.87668975585E+02 -0.23960402287E+04  0.24051251428E+04  0.94199996510E+02 0.  0.
         13    1    3    3    0    0 -0.26672374252E+02  0.47351030347E+02 -0.10594837509E+04  0.10608766912E+04  0.00000000000E+00 0.  1.
        -13    1    3    3    0    0 -0.13782287423E+03  0.40317945238E+02 -0.13365564778E+04  0.13442484516E+04  0.00000000000E+00 0. -1.
         22    1    1    2    0    0  0.16449524848E+03 -0.87668975585E+02  0.82929206385E+03  0.84998227230E+03  0.00000000000E+00 0. -1.
<mgrwt>
<rscale>  0 0.28532481E+04</rscale>
<asrwt>0</asrwt>
<pdfrwt beam="1">  1        2 0.12987379E+00 0.28532481E+04</pdfrwt>
<pdfrwt beam="2">  1       -2 0.37091196E+00 0.28532481E+04</pdfrwt>
<totfact> 0.31787636E-01</totfact>
</mgrwt>
</event>
<event>
 6    1  0.3438840E-005  0.2524133E+04  0.7818608E-02  0.8394438E-01
         -4   -1    0    0    0  501 -0.00000000000E+00  0.00000000000E+00  0.12360780039E+04  0.12360780039E+04  0.00000000000E+00 0. -1.
          4   -1    0    0  501    0  0.00000000000E+00 -0.00000000000E+00 -0.12886014357E+04  0.12886014357E+04  0.00000000000E+00 0.  1.
         23    2    1    2    0    0 -0.11391548224E+04 -0.53013010283E+03 -0.12617862958E+03  0.12660545059E+04  0.90891859311E+02 0.  0.
         13    1    3    3    0    0 -0.59451016367E+03 -0.30110185252E+03 -0.27081080249E+02  0.66696180191E+03  0.00000000000E+00 0. -1.
        -13    1    3    3    0    0 -0.54464465874E+03 -0.22902825030E+03 -0.99097549326E+02  0.59909270402E+03  0.00000000000E+00 0.  1.
         22    1    1    2    0    0  0.11391548224E+04  0.53013010283E+03  0.73655197782E+02  0.12586249336E+04  0.00000000000E+00 0. -1.
<mgrwt>
<rscale>  0 0.25241330E+04</rscale>
<asrwt>0</asrwt>
<pdfrwt beam="1">  1        4 0.19824637E+00 0.25241330E+04</pdfrwt>
<pdfrwt beam="2">  1       -4 0.19016585E+00 0.25241330E+04</pdfrwt>
<totfact> 0.36728100E-02</totfact>
</mgrwt>
</event>
<event>
 6    1  0.1831439E-005  0.2144933E+04  0.7818608E-02  0.8541704E-01
          2   -1    0    0  501    0  0.00000000000E+00  0.00000000000E+00  0.14194393068E+04  0.14194393068E+04  0.00000000000E+00 0. -1.
         -2   -1    0    0    0  501 -0.00000000000E+00 -0.00000000000E+00 -0.81030926066E+03  0.81030926066E+03  0.00000000000E+00 0.  1.
         23    2    1    2    0    0  0.73930919822E+03  0.29164156181E+03 -0.44053159162E+03  0.91315354812E+03  0.90268643950E+02 0.  0.
         13    1    3    3    0    0  0.46285953407E+03  0.18333518003E+03 -0.32511471493E+03  0.59460097072E+03  0.00000000000E+00 0. -1.
        -13    1    3    3    0    0  0.27644966416E+03  0.10830638179E+03 -0.11541687669E+03  0.31855257741E+03  0.00000000000E+00 0.  1.
         22    1    1    2    0    0 -0.73930919822E+03 -0.29164156181E+03  0.10496616377E+04  0.13165950193E+04  0.00000000000E+00 0. -1.
<mgrwt>
<rscale>  0 0.21449334E+04</rscale>
<asrwt>0</asrwt>
<pdfrwt beam="1">  1        2 0.21837528E+00 0.21449334E+04</pdfrwt>
<pdfrwt beam="2">  1       -2 0.12466296E+00 0.21449334E+04</pdfrwt>
<totfact> 0.62529426E+00</totfact>
</mgrwt>
</event>
<event>
 6    1  0.1831439E-005  0.6011313E+03  0.7818608E-02  0.9903062E-01
          2   -1    0    0  501    0  0.00000000000E+00  0.00000000000E+00  0.12642364737E+04  0.12642364737E+04  0.00000000000E+00 0. -1.
         -2   -1    0    0    0  501 -0.00000000000E+00 -0.00000000000E+00 -0.71457909284E+02  0.71457909284E+02  0.00000000000E+00 0.  1.
         23    2    1    2    0    0  0.25331823316E+03  0.13199314737E+03  0.76233379130E+03  0.81909490475E+03  0.90395439163E+02 0.  0.
         11    1    3    3    0    0  0.88299557323E+02  0.48466277654E+02  0.39742302108E+03  0.40998884079E+03  0.00000000000E+00 0.  1.
        -11    1    3    3    0    0  0.16501867583E+03  0.83526869719E+02  0.36491077023E+03  0.40910606396E+03  0.00000000000E+00 0. -1.
         22    1    1    2    0    0 -0.25331823316E+03 -0.13199314737E+03  0.43044477307E+03  0.51659947819E+03  0.00000000000E+00 0.  1.
<mgrwt>
<rscale>  0 0.60113125E+03</rscale>
<asrwt>0</asrwt>
<pdfrwt beam="1">  1        2 0.19449790E+00 0.60113125E+03</pdfrwt>
<pdfrwt beam="2">  1       -2 0.10993525E-01 0.60113125E+03</pdfrwt>
<totfact> 0.10333927E+03</totfact>
</mgrwt>
</event>
<event>
 6    1  0.1831439E-005  0.2776885E+04  0.7818608E-02  0.8310481E-01
          2   -1    0    0  501    0  0.00000000000E+00  0.00000000000E+00  0.28562183304E+04  0.28562183304E+04  0.00000000000E+00 0. -1.
         -2   -1    0    0    0  501 -0.00000000000E+00 -0.00000000000E+00 -0.67493863764E+03  0.67493863764E+03  0.00000000000E+00 0.  1.
         23    2    1    2    0    0 -0.61101877361E+03  0.58076599916E+03  0.24922564250E+04  0.26326361750E+04  0.93797945090E+02 0.  0.
         11    1    3    3    0    0 -0.21576412420E+03  0.26591714667E+03  0.96610828505E+03  0.10250030754E+04  0.00000000000E+00 0. -1.
        -11    1    3    3    0    0 -0.39525464941E+03  0.31484885248E+03  0.15261481400E+04  0.16076330996E+04  0.00000000000E+00 0.  1.
         22    1    1    2    0    0  0.61101877361E+03 -0.58076599916E+03 -0.31097673225E+03  0.89852079302E+03  0.00000000000E+00 0.  1.
<mgrwt>
<rscale>  0 0.27768847E+04</rscale>
<asrwt>0</asrwt>
<pdfrwt beam="1">  1        2 0.43941820E+00 0.27768847E+04</pdfrwt>
<pdfrwt beam="2">  1       -2 0.10383672E+00 0.27768847E+04</pdfrwt>
<totfact> 0.14062515E+00</totfact>
</mgrwt>
</event>
<event>
 6    1  0.1831439E-005  0.2206228E+04  0.7818608E-02  0.8515840E-01
          1   -1    0    0  501    0  0.00000000000E+00  0.00000000000E+00  0.23311027642E+04  0.23311027642E+04  0.00000000000E+00 0. -1.
         -1   -1    0    0    0  501 -0.00000000000E+00 -0.00000000000E+00 -0.52201081035E+03  0.52201081035E+03  0.00000000000E+00 0.  1.
         23    2    1    2    0    0 -0.40923073134E+03  0.86385360519E+03  0.16133229734E+04  0.18773890559E+04  0.89809842632E+02 0.  0.
         11    1    3    3    0    0 -0.28835423247E+03  0.58741664077E+03  0.10220295798E+04  0.12135695016E+04  0.00000000000E+00 0.  1.
        -11    1    3    3    0    0 -0.12087649887E+03  0.27643696442E+03  0.59129339363E+03  0.66381955427E+03  0.00000000000E+00 0. -1.
         22    1    1    2    0    0  0.40923073134E+03 -0.86385360519E+03  0.19576898042E+03  0.97572451868E+03  0.00000000000E+00 0.  1.
<mgrwt>
<rscale>  0 0.22062283E+04</rscale>
<asrwt>0</asrwt>
<pdfrwt beam="1">  1        1 0.35863119E+00 0.22062283E+04</pdfrwt>
<pdfrwt beam="2">  1       -1 0.80309357E-01 0.22062283E+04</pdfrwt>
<totfact> 0.24977207E+00</totfact>
</mgrwt>
</event>
<event>
 6    1  0.1831439E-005  0.1722926E+04  0.7818608E-02  0.8748396E-01
          1   -1    0    0  501    0  0.00000000000E+00  0.00000000000E+00  0.32420308628E+03  0.32420308628E+03  0.00000000000E+00 0. -1.
         -1   -1    0    0    0  501 -0.00000000000E+00 -0.00000000000E+00 -0.22890535081E+04  0.22890535081E+04  0.00000000000E+00 0.  1.
         23    2    1    2    0    0 -0.38030649911E+03 -0.38814474300E+03 -0.19942710683E+04  0.20690553915E+04  0.92648500743E+02 0.  0.
         13    1    3    3    0    0 -0.28267789436E+03 -0.27364017149E+03 -0.12796752794E+04  0.13387884658E+04  0.00000000000E+00 0. -1.
        -13    1    3    3    0    0 -0.97628604751E+02 -0.11450457150E+03 -0.71459578889E+03  0.73026692576E+03  0.00000000000E+00 0.  1.
         22    1    1    2    0    0  0.38030649911E+03  0.38814474300E+03  0.29420646416E+02  0.54420120288E+03  0.00000000000E+00 0. -1.
<mgrwt>
<rscale>  0 0.17229257E+04</rscale>
<asrwt>0</asrwt>
<pdfrwt beam="1">  1        1 0.49877397E-01 0.17229257E+04</pdfrwt>
<pdfrwt beam="2">  1       -1 0.35216209E+00 0.17229257E+04</pdfrwt>
<totfact> 0.11343584E+00</totfact>
</mgrwt>
</event>
<event>
 6    1  0.1831439E-005  0.1168316E+04  0.7818608E-02  0.9141051E-01
          2   -1    0    0  501    0  0.00000000000E+00  0.00000000000E+00  0.81179824315E+03  0.81179824315E+03  0.00000000000E+00 0. -1.
         -2   -1    0    0    0  501 -0.00000000000E+00 -0.00000000000E+00 -0.42035134200E+03  0.42035134200E+03  0.00000000000E+00 0.  1.
         23    2    1    2    0    0  0.26493705714E+02  0.36274111947E+03  0.67512158938E+03  0.77089654728E+03  0.78799047985E+02 0.  0.
         13    1    3    3    0    0  0.38962776844E+02  0.20840211205E+03  0.32468705367E+03  0.38777728286E+03  0.00000000000E+00 0.  1.
        -13    1    3    3    0    0 -0.12469071130E+02  0.15433900743E+03  0.35043453571E+03  0.38311926442E+03  0.00000000000E+00 0. -1.
         22    1    1    2    0    0 -0.26493705714E+02 -0.36274111947E+03 -0.28367468823E+03  0.46125303787E+03  0.00000000000E+00 0.  1.
<mgrwt>
<rscale>  0 0.11683158E+04</rscale>
<asrwt>0</asrwt>
<pdfrwt beam="1">  1        2 0.12489204E+00 0.11683158E+04</pdfrwt>
<pdfrwt beam="2">  1       -2 0.64669437E-01 0.11683158E+04</pdfrwt>
<totfact> 0.73745816E+01</totfact>
</mgrwt>
</event>
<event>
 6    1  0.1831439E-005  0.1892863E+04  0.7818608E-02  0.8658417E-01
          1   -1    0    0  501    0  0.00000000000E+00  0.00000000000E+00  0.20366031995E+04  0.20366031995E+04  0.00000000000E+00 0. -1.
         -1   -1    0    0    0  501 -0.00000000000E+00 -0.00000000000E+00 -0.43981716469E+03  0.43981716469E+03  0.00000000000E+00 0.  1.
         23    2    1    2    0    0 -0.37216410626E+03  0.86478886832E+03  0.70887846484E+03  0.11823006782E+04  0.94658898520E+02 0.  0.
         11    1    3    3    0    0 -0.26513731477E+03  0.66337584232E+03  0.58089911635E+03  0.92076548981E+03  0.00000000000E+00 0. -1.
        -11    1    3    3    0    0 -0.10702679149E+03  0.20141302600E+03  0.12797934849E+03  0.26153518841E+03  0.00000000000E+00 0.  1.
         22    1    1    2    0    0  0.37216410626E+03 -0.86478886832E+03  0.88790756993E+03  0.12941196859E+04  0.00000000000E+00 0.  1.
<mgrwt>
<rscale>  0 0.18928635E+04</rscale>
<asrwt>0</asrwt>
<pdfrwt beam="1">  1        1 0.31332356E+00 0.18928635E+04</pdfrwt>
<pdfrwt beam="2">  1       -1 0.67664180E-01 0.18928635E+04</pdfrwt>
<totfact> 0.58275114E+00</totfact>
</mgrwt>
</event>
<event>
 6    1  0.1831439E-005  0.3215728E+04  0.7818608E-02  0.8184676E-01
         -1   -1    0    0    0  501 -0.00000000000E+00  0.00000000000E+00  0.76928142967E+03  0.76928142967E+03  0.00000000000E+00 0.  1.
          1   -1    0    0  501    0  0.00000000000E+00 -0.00000000000E+00 -0.33605734672E+04  0.33605734672E+04  0.00000000000E+00 0. -1.
         23    2    1    2    0    0  0.15874193584E+03  0.13270407323E+04 -0.24415839103E+04  0.27849948184E+04  0.92887243427E+02 0.  0.
         13    1    3    3    0    0  0.25980805583E+02  0.60346941173E+03 -0.10892585053E+04  0.12455257622E+04  0.00000000000E+00 0. -1.
        -13    1    3    3    0    0  0.13276113026E+03  0.72357132054E+03 -0.13523254051E+04  0.15394690561E+04  0.00000000000E+00 0.  1.
         22    1    1    2    0    0 -0.15874193584E+03 -0.13270407323E+04 -0.14970812718E+03  0.13448600785E+04  0.00000000000E+00 0.  1.
<mgrwt>
<rscale>  0 0.32157281E+04</rscale>
<asrwt>0</asrwt>
<pdfrwt beam="1">  1        1 0.51701130E+00 0.32157281E+04</pdfrwt>
<pdfrwt beam="2">  1       -1 0.11835099E+00 0.32157281E+04</pdfrwt>
<totfact> 0.17152363E-01</totfact>
</mgrwt>
</event>
<event>
 6    1  0.1831439E-005  0.3439057E+04  0.7818608E-02  0.8128386E-01
          2   -1    0    0  501    0  0.00000000000E+00  0.00000000000E+00  0.27976490107E+04  0.27976490107E+04  0.00000000000E+00 0. -1.
         -2   -1    0    0    0  501 -0.00000000000E+00 -0.00000000000E+00 -0.10568796335E+04  0.10568796335E+04  0.00000000000E+00 0.  1.
         23    2    1    2    0    0  0.64811559585E+03 -0.21433443764E+03 -0.89628591922E+03  0.11305510904E+04  0.93937438661E+02 0.  0.
         11    1    3    3    0    0  0.31829080996E+03 -0.13659568890E+03 -0.39336938578E+03  0.52412488549E+03  0.00000000000E+00 0. -1.
        -11    1    3    3    0    0  0.32982478589E+03 -0.77738748740E+02 -0.50291653344E+03  0.60642620495E+03  0.00000000000E+00 0.  1.
         22    1    1    2    0    0 -0.64811559585E+03  0.21433443764E+03  0.26370552964E+04  0.27239775537E+04  0.00000000000E+00 0. -1.
<mgrwt>
<rscale>  0 0.34390570E+04</rscale>
<asrwt>0</asrwt>
<pdfrwt beam="1">  1        2 0.43040754E+00 0.34390570E+04</pdfrwt>
<pdfrwt beam="2">  1       -2 0.16259687E+00 0.34390570E+04</pdfrwt>
<totfact> 0.46160940E-01</totfact>
</mgrwt>
</event>
<event>
 6    1  0.1831439E-005  0.2305197E+04  0.7818608E-02  0.8475875E-01
          1   -1    0    0  501    0  0.00000000000E+00  0.00000000000E+00  0.74976261648E+03  0.74976261648E+03  0.00000000000E+00 0. -1.
         -1   -1    0    0    0  501 -0.00000000000E+00 -0.00000000000E+00 -0.17718720981E+04  0.17718720981E+04  0.00000000000E+00 0.  1.
         23    2    1    2    0    0 -0.38937616633E+03 -0.24410551090E+03  0.64226678617E+03  0.79497619010E+03  0.90990213009E+02 0.  0.
         11    1    3    3    0    0 -0.34375804436E+03 -0.22463318100E+03  0.51696153920E+03  0.66021124807E+03  0.00000000000E+00 0.  1.
        -11    1    3    3    0    0 -0.45618121971E+02 -0.19472329900E+02  0.12530524697E+03  0.13476494204E+03  0.00000000000E+00 0. -1.
         22    1    1    2    0    0  0.38937616633E+03  0.24410551090E+03 -0.16643762678E+04  0.17266585245E+04  0.00000000000E+00 0.  1.
<mgrwt>
<rscale>  0 0.23051971E+04</rscale>
<asrwt>0</asrwt>
<pdfrwt beam="1">  1        1 0.11534810E+00 0.23051971E+04</pdfrwt>
<pdfrwt beam="2">  1       -1 0.27259570E+00 0.23051971E+04</pdfrwt>
<totfact> 0.11004870E+00</totfact>
</mgrwt>
</event>
<event>
 6    1  0.1831439E-005  0.1444828E+04  0.7818608E-02  0.8921994E-01
         -1   -1    0    0    0  501 -0.00000000000E+00  0.00000000000E+00  0.49447729034E+03  0.49447729034E+03  0.00000000000E+00 0.  1.
          1   -1    0    0  501    0  0.00000000000E+00 -0.00000000000E+00 -0.10554220691E+04  0.10554220691E+04  0.00000000000E+00 0. -1.
         23    2    1    2    0    0  0.55739119351E+03 -0.35862330912E+03  0.17625127214E+02  0.67010463533E+03  0.97128557781E+02 0.  0.
         11    1    3    3    0    0  0.43246917668E+03 -0.24189089383E+03 -0.16339652158E+02  0.49579005388E+03  0.00000000000E+00 0. -1.
        -11    1    3    3    0    0  0.12492201683E+03 -0.11673241529E+03  0.33964779372E+02  0.17431458145E+03  0.00000000000E+00 0.  1.
         22    1    1    2    0    0 -0.55739119351E+03  0.35862330912E+03 -0.57856990594E+03  0.87979472407E+03  0.00000000000E+00 0. -1.
<mgrwt>
<rscale>  0 0.14448284E+04</rscale>
<asrwt>0</asrwt>
<pdfrwt beam="1">  1        1 0.16237262E+00 0.14448284E+04</pdfrwt>
<pdfrwt beam="2">  1       -1 0.76073431E-01 0.14448284E+04</pdfrwt>
<totfact> 0.23116384E+01</totfact>
</mgrwt>
</event>
<event>
 6    1  0.1831439E-005  0.3606443E+04  0.7818608E-02  0.8089018E-01
         -2   -1    0    0    0  501 -0.00000000000E+00  0.00000000000E+00  0.12419599913E+04  0.12419599913E+04  0.00000000000E+00 0.  1.
          2   -1    0    0  501    0  0.00000000000E+00 -0.00000000000E+00 -0.26181255784E+04  0.26181255784E+04  0.00000000000E+00 0. -1.
         23    2    1    2    0    0 -0.60475345164E+03  0.11380830578E+04  0.65956764486E+03  0.14506936183E+04  0.92318537286E+02 0.  0.
         13    1    3    3    0    0 -0.53235821432E+03  0.93680730361E+03  0.53256331673E+03  0.12019304800E+04  0.00000000000E+00 0.  1.
        -13    1    3    3    0    0 -0.72395237323E+02  0.20127575419E+03  0.12700432813E+03  0.24876313830E+03  0.00000000000E+00 0. -1.
         22    1    1    2    0    0  0.60475345164E+03 -0.11380830578E+04 -0.20357332320E+04  0.24093919514E+04  0.00000000000E+00 0. -1.
<mgrwt>
<rscale>  0 0.36064427E+04</rscale>
<asrwt>0</asrwt>
<pdfrwt beam="1">  1        2 0.40278855E+00 0.36064427E+04</pdfrwt>
<pdfrwt beam="2">  1       -2 0.19107077E+00 0.36064427E+04</pdfrwt>
<totfact> 0.36871256E-01</totfact>
</mgrwt>
</event>
<event>
 6    1  0.1831439E-005  0.5632312E+04  0.7818608E-02  0.7737741E-01
         -1   -1    0    0    0  501 -0.00000000000E+00  0.00000000000E+00  0.34163954239E+04  0.34163954239E+04  0.00000000000E+00 0.  1.
          1   -1    0    0  501    0  0.00000000000E+00 -0.00000000000E+00 -0.23213749770E+04  0.23213749770E+04  0.00000000000E+00 0. -1.
         23    2    1    2    0    0  0.95967915635E+03  0.14901630798E+04 -0.16807406646E+04  0.24443800755E+04  0.92383354327E+02 0.  0.
         11    1    3    3    0    0  0.20779724569E+03  0.39078877698E+03 -0.39822139796E+03  0.59537874108E+03  0.00000000000E+00 0.  1.
        -11    1    3    3    0    0  0.75188191066E+03  0.10993743029E+04 -0.12825192666E+04  0.18490013344E+04  0.00000000000E+00 0. -1.
         22    1    1    2    0    0 -0.95967915635E+03 -0.14901630798E+04  0.27757611115E+04  0.32933903255E+04  0.00000000000E+00 0.  1.
<mgrwt>
<rscale>  0 0.56323121E+04</rscale>
<asrwt>0</asrwt>
<pdfrwt beam="1">  1        1 0.35713461E+00 0.56323121E+04</pdfrwt>
<pdfrwt beam="2">  1       -1 0.52559929E+00 0.56323121E+04</pdfrwt>
<totfact> 0.12912310E-03</totfact>
</mgrwt>
</event>
<event>
 6    1  0.1831439E-005  0.2841260E+04  0.7818608E-02  0.8290572E-01
          2   -1    0    0  501    0  0.00000000000E+00  0.00000000000E+00  0.34208381479E+04  0.34208381479E+04  0.00000000000E+00 0. -1.
         -2   -1    0    0    0  501 -0.00000000000E+00 -0.00000000000E+00 -0.58996950274E+03  0.58996950274E+03  0.00000000000E+00 0.  1.
         23    2    1    2    0    0  0.71886288982E+03 -0.11592697442E+04  0.86418028397E+03  0.16173721900E+04  0.91733546247E+02 0.  0.
         13    1    3    3    0    0  0.52304370806E+03 -0.78030272876E+03  0.62528869863E+03  0.11284648979E+04  0.00000000000E+00 0. -1.
        -13    1    3    3    0    0  0.19581918175E+03 -0.37896701548E+03  0.23889158535E+03  0.48890729215E+03  0.00000000000E+00 0.  1.
         22    1    1    2    0    0 -0.71886288982E+03  0.11592697442E+04  0.19666883612E+04  0.23934354607E+04  0.00000000000E+00 0. -1.
<mgrwt>
<rscale>  0 0.28412604E+04</rscale>
<asrwt>0</asrwt>
<pdfrwt beam="1">  1        2 0.52628278E+00 0.28412604E+04</pdfrwt>
<pdfrwt beam="2">  1       -2 0.90764541E-01 0.28412604E+04</pdfrwt>
<totfact> 0.82884187E-01</totfact>
</mgrwt>
</event>
<event>
 6    1  0.1831439E-005  0.9025066E+03  0.7818608E-02  0.9422453E-01
          2   -1    0    0  501    0  0.00000000000E+00  0.00000000000E+00  0.13329829730E+04  0.13329829730E+04  0.00000000000E+00 0. -1.
         -2   -1    0    0    0  501 -0.00000000000E+00 -0.00000000000E+00 -0.15276231154E+03  0.15276231154E+03  0.00000000000E+00 0.  1.
         23    2    1    2    0    0  0.24708661244E+03  0.34956600134E+03  0.38704580812E+03  0.58442706586E+03  0.92208212158E+02 0.  0.
         11    1    3    3    0    0  0.59921388280E+02  0.11803465504E+03  0.17259106996E+03  0.21750960897E+03  0.00000000000E+00 0. -1.
        -11    1    3    3    0    0  0.18716522416E+03  0.23153134630E+03  0.21445473816E+03  0.36691745690E+03  0.00000000000E+00 0.  1.
         22    1    1    2    0    0 -0.24708661244E+03 -0.34956600134E+03  0.79317485331E+03  0.90131821864E+03  0.00000000000E+00 0. -1.
<mgrwt>
<rscale>  0 0.90250664E+03</rscale>
<asrwt>0</asrwt>
<pdfrwt beam="1">  1        2 0.20507430E+00 0.90250664E+03</pdfrwt>
<pdfrwt beam="2">  1       -2 0.23501895E-01 0.90250664E+03</pdfrwt>
<totfact> 0.25407894E+02</totfact>
</mgrwt>
</event>
<event>
 6    1  0.1831439E-005  0.1835643E+04  0.7818608E-02  0.8687571E-01
         -2   -1    0    0    0  501 -0.00000000000E+00  0.00000000000E+00  0.61008837049E+03  0.61008837049E+03  0.00000000000E+00 0.  1.
          2   -1    0    0  501    0  0.00000000000E+00 -0.00000000000E+00 -0.13807777165E+04  0.13807777165E+04  0.00000000000E+00 0. -1.
         23    2    1    2    0    0 -0.76793145940E+03  0.13544974753E+03  0.13402243004E+03  0.79647554862E+03  0.91356047172E+02 0.  0.
         13    1    3    3    0    0 -0.62859079181E+03  0.14475918497E+03  0.12013213177E+03  0.65613514939E+03  0.00000000000E+00 0. -1.
        -13    1    3    3    0    0 -0.13934066759E+03 -0.93094374450E+01  0.13890298271E+02  0.14034039923E+03  0.00000000000E+00 0.  1.
         22    1    1    2    0    0  0.76793145940E+03 -0.13544974753E+03 -0.90471177607E+03  0.11943905384E+04  0.00000000000E+00 0. -1.
<mgrwt>
<rscale>  0 0.18356431E+04</rscale>
<asrwt>0</asrwt>
<pdfrwt beam="1">  1        2 0.21242734E+00 0.18356431E+04</pdfrwt>
<pdfrwt beam="2">  1       -2 0.93859750E-01 0.18356431E+04</pdfrwt>
<totfact> 0.13396931E+01</totfact>
</mgrwt>
</event>
<event>
 6    1  0.1831439E-005  0.3004498E+04  0.7818608E-02  0.8242447E-01
          1   -1    0    0  501    0  0.00000000000E+00  0.00000000000E+00  0.20859919125E+04  0.20859919125E+04  0.00000000000E+00 0. -1.
         -1   -1    0    0    0  501 -0.00000000000E+00 -0.00000000000E+00 -0.10818607411E+04  0.10818607411E+04  0.00000000000E+00 0.  1.
         23    2    1    2    0    0 -0.13523373530E+04  0.38361628754E+03 -0.52459006782E+02  0.14093417560E+04  0.86686017629E+02 0.  0.
         11    1    3    3    0    0 -0.85332769629E+03  0.27346594501E+03 -0.62140342270E+02  0.89822781212E+03  0.00000000000E+00 0.  1.
        -11    1    3    3    0    0 -0.49900965667E+03  0.11015034252E+03  0.96813354883E+01  0.51111394391E+03  0.00000000000E+00 0. -1.
         22    1    1    2    0    0  0.13523373530E+04 -0.38361628754E+03  0.10565901781E+04  0.17585108975E+04  0.00000000000E+00 0. -1.
<mgrwt>
<rscale>  0 0.30044985E+04</rscale>
<asrwt>0</asrwt>
<pdfrwt beam="1">  1        1 0.32092183E+00 0.30044985E+04</pdfrwt>
<pdfrwt beam="2">  1       -1 0.16644011E+00 0.30044985E+04</pdfrwt>
<totfact> 0.57935477E-01</totfact>
</mgrwt>
</event>
<event>
 6    1  0.1831439E-005  0.1701152E+04  0.7818608E-02  0.8760708E-01
         -2   -1    0    0    0  501 -0.00000000000E+00  0.00000000000E+00  0.10421211031E+04  0.10421211031E+04  0.00000000000E+00 0.  1.
          2   -1    0    0  501    0  0.00000000000E+00 -0.00000000000E+00 -0.69423750826E+03  0.69423750826E+03  0.00000000000E+00 0. -1.
         23    2    1    2    0    0 -0.28009033894E+03 -0.24388771238E+03 -0.60364284237E+03  0.71492120509E+03  0.93786108438E+02 0.  0.
         13    1    3    3    0    0 -0.89549740793E+02 -0.12297969243E+03 -0.18675290704E+03  0.24087301450E+03  0.00000000000E+00 0. -1.
        -13    1    3    3    0    0 -0.19054059814E+03 -0.12090801995E+03 -0.41688993532E+03  0.47404819059E+03  0.00000000000E+00 0.  1.
         22    1    1    2    0    0  0.28009033894E+03  0.24388771238E+03  0.95152643716E+03  0.10214374062E+04  0.00000000000E+00 0.  1.
<mgrwt>
<rscale>  0 0.17011520E+04</rscale>
<asrwt>0</asrwt>
<pdfrwt beam="1">  1        2 0.10680577E+00 0.17011520E+04</pdfrwt>
<pdfrwt beam="2">  1       -2 0.16032632E+00 0.17011520E+04</pdfrwt>
<totfact> 0.98617656E+00</totfact>
</mgrwt>
</event>
<event>
 6    1  0.1831439E-005  0.9740964E+03  0.7818608E-02  0.9337421E-01
          2   -1    0    0  501    0  0.00000000000E+00  0.00000000000E+00  0.13037703070E+04  0.13037703070E+04  0.00000000000E+00 0. -1.
         -2   -1    0    0    0  501 -0.00000000000E+00 -0.00000000000E+00 -0.18194611129E+03  0.18194611129E+03  0.00000000000E+00 0.  1.
         23    2    1    2    0    0 -0.14025342073E+03  0.42854616106E+03  0.82941300297E+03  0.94829001416E+03  0.89471712163E+02 0.  0.
         13    1    3    3    0    0 -0.28259636157E+02  0.10177233294E+03  0.12434336627E+03  0.16314866694E+03  0.00000000000E+00 0.  1.
        -13    1    3    3    0    0 -0.11199378457E+03  0.32677382812E+03  0.70506963670E+03  0.78514134722E+03  0.00000000000E+00 0. -1.
         22    1    1    2    0    0  0.14025342073E+03 -0.42854616106E+03  0.29241119269E+03  0.53742640408E+03  0.00000000000E+00 0.  1.
<mgrwt>
<rscale>  0 0.97409638E+03</rscale>
<asrwt>0</asrwt>
<pdfrwt beam="1">  1        2 0.20058004E+00 0.97409638E+03</pdfrwt>
<pdfrwt beam="2">  1       -2 0.27991710E-01 0.97409638E+03</pdfrwt>
<totfact> 0.19149271E+02</totfact>
</mgrwt>
</event>
<event>
 6    1  0.1831439E-005  0.1456436E+04  0.7818608E-02  0.8913951E-01
         -2   -1    0    0    0  501 -0.00000000000E+00  0.00000000000E+00  0.38424364182E+03  0.38424364182E+03  0.00000000000E+00 0.  1.
          2   -1    0    0  501    0  0.00000000000E+00 -0.00000000000E+00 -0.13801174875E+04  0.13801174875E+04  0.00000000000E+00 0. -1.
         23    2    1    2    0    0 -0.57213758543E+03  0.44611567608E+03 -0.48671573629E+03  0.87801887407E+03  0.87546114448E+02 0.  0.
         13    1    3    3    0    0 -0.23937746841E+03  0.15550032846E+03 -0.14949848051E+03  0.32222929757E+03  0.00000000000E+00 0.  1.
        -13    1    3    3    0    0 -0.33276011702E+03  0.29061534763E+03 -0.33721725578E+03  0.55578957650E+03  0.00000000000E+00 0. -1.
         22    1    1    2    0    0  0.57213758543E+03 -0.44611567608E+03 -0.50915810940E+03  0.88634225527E+03  0.00000000000E+00 0.  1.
<mgrwt>
<rscale>  0 0.14564359E+04</rscale>
<asrwt>0</asrwt>
<pdfrwt beam="1">  1        2 0.21232576E+00 0.14564359E+04</pdfrwt>
<pdfrwt beam="2">  1       -2 0.59114407E-01 0.14564359E+04</pdfrwt>
<totfact> 0.38482389E+01</totfact>
</mgrwt>
</event>
<event>
 6    1  0.1831439E-005  0.5576286E+03  0.7818608E-02  0.9997435E-01
         -3   -1    0    0    0  501 -0.00000000000E+00  0.00000000000E+00  0.31330594630E+03  0.31330594630E+03  0.00000000000E+00 0.  1.
          3   -1    0    0  501    0  0.00000000000E+00 -0.00000000000E+00 -0.24811985431E+03  0.24811985431E+03  0.00000000000E+00 0. -1.
         23    2    1    2    0    0  0.26135396191E+03  0.57144424609E+02 -0.14871996198E+01  0.28571452684E+03  0.10029556528E+03 0.  0.
         11    1    3    3    0    0  0.61815361274E+02 -0.11660145053E+02  0.34276771466E+02  0.71637943398E+02  0.00000000000E+00 0.  1.
        -11    1    3    3    0    0  0.19953860064E+03  0.68804569662E+02 -0.35763971085E+02  0.21407658344E+03  0.00000000000E+00 0. -1.
         22    1    1    2    0    0 -0.26135396191E+03 -0.57144424609E+02  0.66673291612E+02  0.27571127377E+03  0.00000000000E+00 0. -1.
<mgrwt>
<rscale>  0 0.55762864E+03</rscale>
<asrwt>0</asrwt>
<pdfrwt beam="1">  1        3 0.38172285E-01 0.55762864E+03</pdfrwt>
<pdfrwt beam="2">  1       -3 0.48200915E-01 0.55762864E+03</pdfrwt>
<totfact> 0.76309184E+01</totfact>
</mgrwt>
</event>
<event>
 6    1  0.1831439E-005  0.4415481E+04  0.7818608E-02  0.7925603E-01
          1   -1    0    0  501    0  0.00000000000E+00  0.00000000000E+00  0.19137381818E+04  0.19137381818E+04  0.00000000000E+00 0.  1.
         -1   -1    0    0    0  501 -0.00000000000E+00 -0.00000000000E+00 -0.25469095066E+04  0.25469095066E+04  0.00000000000E+00 0. -1.
         23    2    1    2    0    0  0.53015227383E+03  0.90270213626E+03 -0.22792935594E+04  0.25098399092E+04  0.90469107503E+02 0.  0.
         11    1    3    3    0    0  0.23549727118E+03  0.31457652011E+03 -0.85371442624E+03  0.93981150946E+03  0.00000000000E+00 0.  1.
        -11    1    3    3    0    0  0.29465500265E+03  0.58812561615E+03 -0.14255791332E+04  0.15700283997E+04  0.00000000000E+00 0. -1.
         22    1    1    2    0    0 -0.53015227383E+03 -0.90270213626E+03  0.16461222346E+04  0.19508077792E+04  0.00000000000E+00 0.  1.
<mgrwt>
<rscale>  0 0.44154809E+04</rscale>
<asrwt>0</asrwt>
<pdfrwt beam="1">  1        1 0.29442126E+00 0.44154809E+04</pdfrwt>
<pdfrwt beam="2">  1       -1 0.39183223E+00 0.44154809E+04</pdfrwt>
<totfact> 0.20978649E-02</totfact>
</mgrwt>
</event>
<event>
 6    1  0.1831439E-005  0.3841779E+04  0.7818608E-02  0.8037248E-01
          2   -1    0    0  501    0  0.00000000000E+00  0.00000000000E+00  0.17531934655E+04  0.17531934655E+04  0.00000000000E+00 0.  1.
         -2   -1    0    0    0  501 -0.00000000000E+00 -0.00000000000E+00 -0.21046264776E+04  0.21046264776E+04  0.00000000000E+00 0. -1.
         23    2    1    2    0    0 -0.55261606126E+03  0.10576014156E+04  0.13343815677E+04  0.17924202087E+04  0.91053670571E+02 0.  0.
         11    1    3    3    0    0 -0.20812189339E+03  0.30776674363E+03  0.40846873945E+03  0.55216102914E+03  0.00000000000E+00 0. -1.
        -11    1    3    3    0    0 -0.34449416787E+03  0.74983467196E+03  0.92591282828E+03  0.12402591796E+04  0.00000000000E+00 0.  1.
         22    1    1    2    0    0  0.55261606126E+03 -0.10576014156E+04 -0.16858145798E+04  0.20653997344E+04  0.00000000000E+00 0. -1.
<mgrwt>
<rscale>  0 0.38417795E+04</rscale>
<asrwt>0</asrwt>
<pdfrwt beam="1">  1        2 0.26972207E+00 0.38417795E+04</pdfrwt>
<pdfrwt beam="2">  1       -2 0.32378869E+00 0.38417795E+04</pdfrwt>
<totfact> 0.16604567E-01</totfact>
</mgrwt>
</event>
<event>
 6    1  0.1831439E-005  0.3117314E+04  0.7818608E-02  0.8211002E-01
          2   -1    0    0  501    0  0.00000000000E+00  0.00000000000E+00  0.25401343695E+04  0.25401343695E+04  0.00000000000E+00 0. -1.
         -2   -1    0    0    0  501 -0.00000000000E+00 -0.00000000000E+00 -0.95641073067E+03  0.95641073067E+03  0.00000000000E+00 0.  1.
         23    2    1    2    0    0 -0.79938978228E+03 -0.10522867534E+04 -0.13174043725E+03  0.13311009352E+04  0.90237029082E+02 0.  0.
         11    1    3    3    0    0 -0.53422314805E+03 -0.73818618461E+03 -0.54494359577E+02  0.91284327805E+03  0.00000000000E+00 0. -1.
        -11    1    3    3    0    0 -0.26516663423E+03 -0.31410056878E+03 -0.77246077673E+02  0.41825765711E+03  0.00000000000E+00 0.  1.
         22    1    1    2    0    0  0.79938978228E+03  0.10522867534E+04  0.17154640760E+04  0.21654441650E+04  0.00000000000E+00 0.  1.
<mgrwt>
<rscale>  0 0.31173141E+04</rscale>
<asrwt>0</asrwt>
<pdfrwt beam="1">  1        2 0.39078990E+00 0.31173141E+04</pdfrwt>
<pdfrwt beam="2">  1       -2 0.14714011E+00 0.31173141E+04</pdfrwt>
<totfact> 0.88158496E-01</totfact>
</mgrwt>
</event>
<event>
 6    1  0.1831439E-005  0.2420293E+04  0.7818608E-02  0.8431945E-01
          1   -1    0    0  501    0  0.00000000000E+00  0.00000000000E+00  0.12509953012E+04  0.12509953012E+04  0.00000000000E+00 0. -1.
         -1   -1    0    0    0  501 -0.00000000000E+00 -0.00000000000E+00 -0.11706317294E+04  0.11706317294E+04  0.00000000000E+00 0.  1.
         23    2    1    2    0    0 -0.28234899787E+03  0.32204281864E+03  0.11708451137E+04  0.12500543582E+04  0.91241901138E+02 0.  0.
         11    1    3    3    0    0 -0.68590716883E+02  0.14315644765E+03  0.39863278315E+03  0.42907639267E+03  0.00000000000E+00 0. -1.
        -11    1    3    3    0    0 -0.21375828099E+03  0.17888637099E+03  0.77221233051E+03  0.82097796548E+03  0.00000000000E+00 0.  1.
         22    1    1    2    0    0  0.28234899787E+03 -0.32204281864E+03 -0.10904815419E+04  0.11715726724E+04  0.00000000000E+00 0.  1.
<mgrwt>
<rscale>  0 0.24202932E+04</rscale>
<asrwt>0</asrwt>
<pdfrwt beam="1">  1        1 0.19246082E+00 0.24202932E+04</pdfrwt>
<pdfrwt beam="2">  1       -1 0.18009719E+00 0.24202932E+04</pdfrwt>
<totfact> 0.18235479E+00</totfact>
</mgrwt>
</event>
<event>
 6    1  0.1831439E-005  0.2754032E+04  0.7818608E-02  0.8317683E-01
          2   -1    0    0  501    0  0.00000000000E+00  0.00000000000E+00  0.27414416205E+04  0.27414416205E+04  0.00000000000E+00 0. -1.
         -2   -1    0    0    0  501 -0.00000000000E+00 -0.00000000000E+00 -0.69167023386E+03  0.69167023386E+03  0.00000000000E+00 0.  1.
         23    2    1    2    0    0  0.49672051807E+03  0.51022443560E+03  0.24930049535E+04  0.25943531032E+04  0.92380074424E+02 0.  0.
         11    1    3    3    0    0  0.37261150030E+03  0.33965547635E+03  0.18601450640E+04  0.19272635605E+04  0.00000000000E+00 0.  1.
        -11    1    3    3    0    0  0.12410901777E+03  0.17056895925E+03  0.63285988955E+03  0.66708954268E+03  0.00000000000E+00 0. -1.
         22    1    1    2    0    0 -0.49672051807E+03 -0.51022443560E+03 -0.44323356691E+03  0.83875875112E+03  0.00000000000E+00 0.  1.
<mgrwt>
<rscale>  0 0.27540324E+04</rscale>
<asrwt>0</asrwt>
<pdfrwt beam="1">  1        2 0.42176024E+00 0.27540324E+04</pdfrwt>
<pdfrwt beam="2">  1       -2 0.10641081E+00 0.27540324E+04</pdfrwt>
<totfact> 0.15589655E+00</totfact>
</mgrwt>
</event>
<event>
 6    1  0.1831439E-005  0.1758848E+04  0.7818608E-02  0.8728495E-01
         -1   -1    0    0    0  501 -0.00000000000E+00  0.00000000000E+00  0.40631371244E+03  0.40631371244E+03  0.00000000000E+00 0.  1.
          1   -1    0    0  501    0  0.00000000000E+00 -0.00000000000E+00 -0.19034230683E+04  0.19034230683E+04  0.00000000000E+00 0. -1.
         23    2    1    2    0    0 -0.60044593150E+03  0.60864451043E+03 -0.10072679519E+04  0.13243799632E+04  0.91706616187E+02 0.  0.
         11    1    3    3    0    0 -0.15653812059E+03  0.12922162984E+03 -0.18992972808E+03  0.27798509748E+03  0.00000000000E+00 0.  1.
        -11    1    3    3    0    0 -0.44390781091E+03  0.47942288059E+03 -0.81733822378E+03  0.10463948657E+04  0.00000000000E+00 0. -1.
         22    1    1    2    0    0  0.60044593150E+03 -0.60864451043E+03 -0.48984140402E+03  0.98535681751E+03  0.00000000000E+00 0.  1.
<mgrwt>
<rscale>  0 0.17588484E+04</rscale>
<asrwt>0</asrwt>
<pdfrwt beam="1">  1        1 0.29283432E+00 0.17588484E+04</pdfrwt>
<pdfrwt beam="2">  1       -1 0.62509801E-01 0.17588484E+04</pdfrwt>
<totfact> 0.85186521E+00</totfact>
</mgrwt>
</event>
<event>
 6    1  0.1831439E-005  0.2267847E+04  0.7818608E-02  0.8490708E-01
          1   -1    0    0  501    0  0.00000000000E+00  0.00000000000E+00  0.14564127631E+04  0.14564127631E+04  0.00000000000E+00 0. -1.
         -1   -1    0    0    0  501 -0.00000000000E+00 -0.00000000000E+00 -0.88284180373E+03  0.88284180373E+03  0.00000000000E+00 0.  1.
         23    2    1    2    0    0  0.66882808502E+03 -0.21255174530E+02 -0.65482353095E+03  0.94042083345E+03  0.88400777989E+02 0.  0.
         13    1    3    3    0    0  0.30432882850E+03 -0.17297971752E+02 -0.23828002684E+03  0.38690131413E+03  0.00000000000E+00 0. -1.
        -13    1    3    3    0    0  0.36449925652E+03 -0.39572027776E+01 -0.41654350411E+03  0.55351951932E+03  0.00000000000E+00 0.  1.
         22    1    1    2    0    0 -0.66882808502E+03  0.21255174530E+02  0.12283944903E+04  0.13988337334E+04  0.00000000000E+00 0. -1.
<mgrwt>
<rscale>  0 0.22678466E+04</rscale>
<asrwt>0</asrwt>
<pdfrwt beam="1">  1        1 0.22406350E+00 0.22678466E+04</pdfrwt>
<pdfrwt beam="2">  1       -1 0.13582182E+00 0.22678466E+04</pdfrwt>
<totfact> 0.28835874E+00</totfact>
</mgrwt>
</event>
<event>
 6    1  0.1831439E-005  0.4664167E+04  0.7818608E-02  0.7882510E-01
         -2   -1    0    0    0  501 -0.00000000000E+00  0.00000000000E+00  0.24127267566E+04  0.24127267566E+04  0.00000000000E+00 0.  1.
          2   -1    0    0  501    0  0.00000000000E+00 -0.00000000000E+00 -0.22541353568E+04  0.22541353568E+04  0.00000000000E+00 0. -1.
         23    2    1    2    0    0  0.10172293719E+04 -0.20811942577E+04  0.34107114873E+03  0.23431960462E+04  0.90072464998E+02 0.  0.
         11    1    3    3    0    0  0.76917780452E+03 -0.16142969547E+04  0.22943380274E+03  0.18028391561E+04  0.00000000000E+00 0.  1.
        -11    1    3    3    0    0  0.24805156741E+03 -0.46689730300E+03  0.11163734599E+03  0.54035689009E+03  0.00000000000E+00 0. -1.
         22    1    1    2    0    0 -0.10172293719E+04  0.20811942577E+04 -0.18247974888E+03  0.23236660672E+04  0.00000000000E+00 0.  1.
<mgrwt>
<rscale>  0 0.46641667E+04</rscale>
<asrwt>0</asrwt>
<pdfrwt beam="1">  1        2 0.34679005E+00 0.46641667E+04</pdfrwt>
<pdfrwt beam="2">  1       -2 0.37118873E+00 0.46641667E+04</pdfrwt>
<totfact> 0.41060980E-02</totfact>
</mgrwt>
</event>
<event>
 6    1  0.1831439E-005  0.4364561E+04  0.7818608E-02  0.7934787E-01
         -2   -1    0    0    0  501 -0.00000000000E+00  0.00000000000E+00  0.15709150766E+04  0.15709150766E+04  0.00000000000E+00 0.  1.
          2   -1    0    0  501    0  0.00000000000E+00 -0.00000000000E+00 -0.30315764211E+04  0.30315764211E+04  0.00000000000E+00 0. -1.
         23    2    1    2    0    0  0.15685551630E+04  0.15128979287E+04 -0.83015526280E+03  0.23338435830E+04  0.91883991330E+02 0.  0.
         11    1    3    3    0    0  0.57511020344E+03  0.59094309928E+03 -0.35279575868E+03  0.89690040697E+03  0.00000000000E+00 0. -1.
        -11    1    3    3    0    0  0.99344495955E+03  0.92195482937E+03 -0.47735950412E+03  0.14369431761E+04  0.00000000000E+00 0.  1.
         22    1    1    2    0    0 -0.15685551630E+04 -0.15128979287E+04 -0.63050608168E+03  0.22686479147E+04  0.00000000000E+00 0. -1.
<mgrwt>
<rscale>  0 0.43645614E+04</rscale>
<asrwt>0</asrwt>
<pdfrwt beam="1">  1        2 0.46639637E+00 0.43645614E+04</pdfrwt>
<pdfrwt beam="2">  1       -2 0.24167925E+00 0.43645614E+04</pdfrwt>
<totfact> 0.92093393E-02</totfact>
</mgrwt>
</event>
<event>
 6    1  0.1831439E-005  0.4099835E+03  0.7818608E-02  0.1040377E+00
         -2   -1    0    0    0  501 -0.00000000000E+00  0.00000000000E+00  0.19192759150E+02  0.19192759150E+02  0.00000000000E+00 0.  1.
          2   -1    0    0  501    0  0.00000000000E+00 -0.00000000000E+00 -0.21894516548E+04  0.21894516548E+04  0.00000000000E+00 0. -1.
         23    2    1    2    0    0  0.23650780529E+02 -0.10189043703E+03 -0.20254068320E+04  0.20299739326E+04  0.87064982286E+02 0.  0.
         13    1    3    3    0    0 -0.77131845084E+01 -0.71295100512E+02 -0.17140340063E+04  0.17155334621E+04  0.00000000000E+00 0. -1.
        -13    1    3    3    0    0  0.31363965037E+02 -0.30595336518E+02 -0.31137282566E+03  0.31444047049E+03  0.00000000000E+00 0.  1.
         22    1    1    2    0    0 -0.23650780529E+02  0.10189043703E+03 -0.14485206362E+03  0.17867048137E+03  0.00000000000E+00 0.  1.
<mgrwt>
<rscale>  0 0.40998350E+03</rscale>
<asrwt>0</asrwt>
<pdfrwt beam="1">  1        2 0.33683895E+00 0.40998350E+03</pdfrwt>
<pdfrwt beam="2">  1       -2 0.29527302E-02 0.40998350E+03</pdfrwt>
<totfact> 0.25376233E+03</totfact>
</mgrwt>
</event>
<event>
 6    1  0.1831439E-005  0.1933758E+04  0.7818608E-02  0.8638233E-01
          2   -1    0    0  501    0  0.00000000000E+00  0.00000000000E+00  0.99104946400E+03  0.99104946400E+03  0.00000000000E+00 0. -1.
         -2   -1    0    0    0  501 -0.00000000000E+00 -0.00000000000E+00 -0.94329761170E+03  0.94329761170E+03  0.00000000000E+00 0.  1.
         23    2    1    2    0    0  0.11420637403E+03  0.94030135715E+03 -0.15937661217E+03  0.96475337785E+03  0.90213288612E+02 0.  0.
         13    1    3    3    0    0  0.51986683494E+02  0.21296129547E+03 -0.65210842059E+02  0.22870851001E+03  0.00000000000E+00 0. -1.
        -13    1    3    3    0    0  0.62219690536E+02  0.72734006168E+03 -0.94165770106E+02  0.73604486784E+03  0.00000000000E+00 0.  1.
         22    1    1    2    0    0 -0.11420637403E+03 -0.94030135715E+03  0.20712846447E+03  0.96959369785E+03  0.00000000000E+00 0. -1.
<mgrwt>
<rscale>  0 0.19337576E+04</rscale>
<asrwt>0</asrwt>
<pdfrwt beam="1">  1        2 0.15246915E+00 0.19337576E+04</pdfrwt>
<pdfrwt beam="2">  1       -2 0.14512271E+00 0.19337576E+04</pdfrwt>
<totfact> 0.77943016E+00</totfact>
</mgrwt>
</event>
<event>
 6    1  0.1831439E-005  0.1474057E+04  0.7818608E-02  0.8901890E-01
          1   -1    0    0  501    0  0.00000000000E+00  0.00000000000E+00  0.71775785442E+03  0.71775785442E+03  0.00000000000E+00 0. -1.
         -1   -1    0    0    0  501 -0.00000000000E+00 -0.00000000000E+00 -0.75681702499E+03  0.75681702499E+03  0.00000000000E+00 0.  1.
         23    2    1    2    0    0 -0.36108791314E+03  0.10399372273E+03  0.61160277857E+03  0.72320270302E+03  0.88119325458E+02 0.  0.
         13    1    3    3    0    0 -0.12388223637E+03  0.74113719478E+02  0.19125709413E+03  0.23962246965E+03  0.00000000000E+00 0. -1.
        -13    1    3    3    0    0 -0.23720567677E+03  0.29880003251E+02  0.42034568444E+03  0.48358023338E+03  0.00000000000E+00 0.  1.
         22    1    1    2    0    0  0.36108791314E+03 -0.10399372273E+03 -0.65066194915E+03  0.75137217639E+03  0.00000000000E+00 0.  1.
<mgrwt>
<rscale>  0 0.14740575E+04</rscale>
<asrwt>0</asrwt>
<pdfrwt beam="1">  1        1 0.11042429E+00 0.14740575E+04</pdfrwt>
<pdfrwt beam="2">  1       -1 0.11643339E+00 0.14740575E+04</pdfrwt>
<totfact> 0.16938967E+01</totfact>
</mgrwt>
</event>
<event>
 6    1  0.1831439E-005  0.3063558E+04  0.7818608E-02  0.8225811E-01
         -2   -1    0    0    0  501 -0.00000000000E+00  0.00000000000E+00  0.20529074785E+04  0.20529074785E+04  0.00000000000E+00 0.  1.
          2   -1    0    0  501    0  0.00000000000E+00 -0.00000000000E+00 -0.11429386828E+04  0.11429386828E+04  0.00000000000E+00 0. -1.
         23    2    1    2    0    0  0.42374178600E+03 -0.12422232471E+04  0.12760684836E+04  0.18332366507E+04  0.98641501887E+02 0.  0.
         11    1    3    3    0    0  0.14197822378E+03 -0.54937654273E+03  0.51826273396E+03  0.76848465381E+03  0.00000000000E+00 0. -1.
        -11    1    3    3    0    0  0.28176356222E+03 -0.69284670436E+03  0.75780574964E+03  0.10647519969E+04  0.00000000000E+00 0.  1.
         22    1    1    2    0    0 -0.42374178600E+03  0.12422232471E+04 -0.36609968789E+03  0.13626095106E+04  0.00000000000E+00 0. -1.
<mgrwt>
<rscale>  0 0.30635583E+04</rscale>
<asrwt>0</asrwt>
<pdfrwt beam="1">  1        2 0.17583672E+00 0.30635583E+04</pdfrwt>
<pdfrwt beam="2">  1       -2 0.31583192E+00 0.30635583E+04</pdfrwt>
<totfact> 0.44353111E-01</totfact>
</mgrwt>
</event>
<event>
 6    1  0.1831439E-005  0.2499085E+04  0.7818608E-02  0.8403311E-01
          2   -1    0    0  501    0  0.00000000000E+00  0.00000000000E+00  0.14253319483E+04  0.14253319483E+04  0.00000000000E+00 0. -1.
         -2   -1    0    0    0  501 -0.00000000000E+00 -0.00000000000E+00 -0.10954339131E+04  0.10954339131E+04  0.00000000000E+00 0.  1.
         23    2    1    2    0    0  0.24192895091E+03  0.80731074616E+03 -0.76310539236E+03  0.11405714002E+04  0.91066025301E+02 0.  0.
         11    1    3    3    0    0  0.75778329297E+02  0.37791399579E+03 -0.31057520119E+03  0.49499323126E+03  0.00000000000E+00 0. -1.
        -11    1    3    3    0    0  0.16615062162E+03  0.42939675037E+03 -0.45253019117E+03  0.64557816894E+03  0.00000000000E+00 0.  1.
         22    1    1    2    0    0 -0.24192895091E+03 -0.80731074616E+03  0.10930034276E+04  0.13801944613E+04  0.00000000000E+00 0. -1.
<mgrwt>
<rscale>  0 0.24990854E+04</rscale>
<asrwt>0</asrwt>
<pdfrwt beam="1">  1        2 0.21928184E+00 0.24990854E+04</pdfrwt>
<pdfrwt beam="2">  1       -2 0.16852829E+00 0.24990854E+04</pdfrwt>
<totfact> 0.27261893E+00</totfact>
</mgrwt>
</event>
<event>
 6    1  0.1831439E-005  0.7447604E+03  0.7818608E-02  0.9643606E-01
         -2   -1    0    0    0  501 -0.00000000000E+00  0.00000000000E+00  0.45946877243E+03  0.45946877243E+03  0.00000000000E+00 0.  1.
          2   -1    0    0  501    0  0.00000000000E+00 -0.00000000000E+00 -0.30179858300E+03  0.30179858300E+03  0.00000000000E+00 0. -1.
         23    2    1    2    0    0  0.21597099408E+03  0.17315565538E+03  0.32379915318E+03  0.43842810151E+03  0.10366753261E+03 0.  0.
         13    1    3    3    0    0  0.15366057402E+03  0.67052530534E+02  0.14667323535E+03  0.22275693441E+03  0.00000000000E+00 0. -1.
        -13    1    3    3    0    0  0.62310420057E+02  0.10610312485E+03  0.17712591783E+03  0.21567116710E+03  0.00000000000E+00 0.  1.
         22    1    1    2    0    0 -0.21597099408E+03 -0.17315565538E+03 -0.16612896375E+03  0.32283925392E+03  0.00000000000E+00 0. -1.
<mgrwt>
<rscale>  0 0.74476043E+03</rscale>
<asrwt>0</asrwt>
<pdfrwt beam="1">  1        2 0.46430551E-01 0.74476043E+03</pdfrwt>
<pdfrwt beam="2">  1       -2 0.70687503E-01 0.74476043E+03</pdfrwt>
<totfact> 0.20025605E+02</totfact>
</mgrwt>
</event>
<event>
 6    1  0.1831439E-005  0.2395206E+04  0.7818608E-02  0.8441301E-01
          2   -1    0    0  501    0  0.00000000000E+00  0.00000000000E+00  0.62091697125E+03  0.62091697125E+03  0.00000000000E+00 0. -1.
         -2   -1    0    0    0  501 -0.00000000000E+00 -0.00000000000E+00 -0.23098939760E+04  0.23098939760E+04  0.00000000000E+00 0.  1.
         23    2    1    2    0    0 -0.73240001367E+03 -0.16156238809E+03 -0.19853454873E+04  0.21243703340E+04  0.94023542937E+02 0.  0.
         11    1    3    3    0    0 -0.53101866198E+03 -0.13157589020E+03 -0.15514425218E+04  0.16450735341E+04  0.00000000000E+00 0. -1.
        -11    1    3    3    0    0 -0.20138135169E+03 -0.29986497891E+02 -0.43390296557E+03  0.47929679990E+03  0.00000000000E+00 0.  1.
         22    1    1    2    0    0  0.73240001367E+03  0.16156238809E+03  0.29636848258E+03  0.80644061327E+03  0.00000000000E+00 0. -1.
<mgrwt>
<rscale>  0 0.23952055E+04</rscale>
<asrwt>0</asrwt>
<pdfrwt beam="1">  1        2 0.95525686E-01 0.23952055E+04</pdfrwt>
<pdfrwt beam="2">  1       -2 0.35536831E+00 0.23952055E+04</pdfrwt>
<totfact> 0.61623960E-01</totfact>
</mgrwt>
</event>
<event>
 6    1  0.1831439E-005  0.3177685E+04  0.7818608E-02  0.8194735E-01
         -2   -1    0    0    0  501 -0.00000000000E+00  0.00000000000E+00  0.10540102948E+04  0.10540102948E+04  0.00000000000E+00 0.  1.
          2   -1    0    0  501    0  0.00000000000E+00 -0.00000000000E+00 -0.23950624578E+04  0.23950624578E+04  0.00000000000E+00 0. -1.
         23    2    1    2    0    0 -0.89084692563E+03 -0.12987783772E+04 -0.45457764035E+03  0.16417900971E+04  0.91653553851E+02 0.  0.
         11    1    3    3    0    0 -0.67708310246E+03 -0.10379342870E+04 -0.33195201198E+03  0.12829424188E+04  0.00000000000E+00 0.  1.
        -11    1    3    3    0    0 -0.21376382317E+03 -0.26084409018E+03 -0.12262562836E+03  0.35884767828E+03  0.00000000000E+00 0. -1.
         22    1    1    2    0    0  0.89084692563E+03  0.12987783772E+04 -0.88647452263E+03  0.18072826556E+04  0.00000000000E+00 0.  1.
<mgrwt>
<rscale>  0 0.31776850E+04</rscale>
<asrwt>0</asrwt>
<pdfrwt beam="1">  1        2 0.36847115E+00 0.31776850E+04</pdfrwt>
<pdfrwt beam="2">  1       -2 0.16215543E+00 0.31776850E+04</pdfrwt>
<totfact> 0.81968717E-01</totfact>
</mgrwt>
</event>
<event>
 6    1  0.1831439E-005  0.3407993E+04  0.7818608E-02  0.8135947E-01
          2   -1    0    0  501    0  0.00000000000E+00  0.00000000000E+00  0.17527784985E+04  0.17527784985E+04  0.00000000000E+00 0. -1.
         -2   -1    0    0    0  501 -0.00000000000E+00 -0.00000000000E+00 -0.16565720549E+04  0.16565720549E+04  0.00000000000E+00 0.  1.
         23    2    1    2    0    0  0.45650294803E+02  0.12790042510E+04 -0.10755352968E+04  0.16741518530E+04  0.89846696317E+02 0.  0.
         11    1    3    3    0    0  0.56997880275E+02  0.86118309882E+03 -0.76705466251E+03  0.11546678931E+04  0.00000000000E+00 0. -1.
        -11    1    3    3    0    0 -0.11347585472E+02  0.41782115214E+03 -0.30848063432E+03  0.51948395993E+03  0.00000000000E+00 0.  1.
         22    1    1    2    0    0 -0.45650294803E+02 -0.12790042510E+04  0.11717417405E+04  0.17351987004E+04  0.00000000000E+00 0. -1.
<mgrwt>
<rscale>  0 0.34079929E+04</rscale>
<asrwt>0</asrwt>
<pdfrwt beam="1">  1        2 0.26965823E+00 0.34079929E+04</pdfrwt>
<pdfrwt beam="2">  1       -2 0.25485724E+00 0.34079929E+04</pdfrwt>
<totfact> 0.45527157E-01</totfact>
</mgrwt>
</event>
<event>
 6    1  0.1831439E-005  0.2384373E+04  0.7818608E-02  0.8445377E-01
         -2   -1    0    0    0  501 -0.00000000000E+00  0.00000000000E+00  0.11241141421E+04  0.11241141421E+04  0.00000000000E+00 0.  1.
          2   -1    0    0  501    0  0.00000000000E+00 -0.00000000000E+00 -0.12643810558E+04  0.12643810558E+04  0.00000000000E+00 0. -1.
         23    2    1    2    0    0 -0.62324339408E+03  0.96074668059E+03  0.25558326660E+03  0.11768170732E+04  0.90050569532E+02 0.  0.
         13    1    3    3    0    0 -0.34337402696E+03  0.50217428484E+03  0.92202537135E+02  0.61529346055E+03  0.00000000000E+00 0.  1.
        -13    1    3    3    0    0 -0.27986936712E+03  0.45857239576E+03  0.16338072947E+03  0.56152361265E+03  0.00000000000E+00 0. -1.
         22    1    1    2    0    0  0.62324339408E+03 -0.96074668059E+03 -0.39585018028E+03  0.12116781247E+04  0.00000000000E+00 0.  1.
<mgrwt>
<rscale>  0 0.23843730E+04</rscale>
<asrwt>0</asrwt>
<pdfrwt beam="1">  1        2 0.19452016E+00 0.23843730E+04</pdfrwt>
<pdfrwt beam="2">  1       -2 0.17294064E+00 0.23843730E+04</pdfrwt>
<totfact> 0.31729600E+00</totfact>
</mgrwt>
</event>
<event>
 6    1  0.1831439E-005  0.9119629E+03  0.7818608E-02  0.9410750E-01
          2   -1    0    0  501    0  0.00000000000E+00  0.00000000000E+00  0.79006111631E+03  0.79006111631E+03  0.00000000000E+00 0. -1.
         -2   -1    0    0    0  501 -0.00000000000E+00 -0.00000000000E+00 -0.26316836128E+03  0.26316836128E+03  0.00000000000E+00 0.  1.
         23    2    1    2    0    0 -0.77270155222E+02 -0.40964130987E+03  0.65701594636E+02  0.43155917425E+03  0.90277027511E+02 0.  0.
         11    1    3    3    0    0 -0.40644319599E+02 -0.54784192115E+02  0.24339647948E+02  0.72427114285E+02  0.00000000000E+00 0. -1.
        -11    1    3    3    0    0 -0.36625835622E+02 -0.35485711776E+03  0.41361946688E+02  0.35913205996E+03  0.00000000000E+00 0.  1.
         22    1    1    2    0    0  0.77270155222E+02  0.40964130987E+03  0.46119116039E+03  0.62167030335E+03  0.00000000000E+00 0.  1.
<mgrwt>
<rscale>  0 0.91196291E+03</rscale>
<asrwt>0</asrwt>
<pdfrwt beam="1">  1        2 0.12154786E+00 0.91196291E+03</pdfrwt>
<pdfrwt beam="2">  1       -2 0.40487440E-01 0.91196291E+03</pdfrwt>
<totfact> 0.20263853E+02</totfact>
</mgrwt>
</event>
<event>
 6    1  0.1831439E-005  0.2388318E+04  0.7818608E-02  0.8443890E-01
         -2   -1    0    0    0  501 -0.00000000000E+00  0.00000000000E+00  0.69086057950E+03  0.69086057950E+03  0.00000000000E+00 0.  1.
          2   -1    0    0  501    0  0.00000000000E+00 -0.00000000000E+00 -0.20641154616E+04  0.20641154616E+04  0.00000000000E+00 0. -1.
         23    2    1    2    0    0  0.10685847855E+04 -0.52715830951E+03 -0.63278589578E+03  0.13520991232E+04  0.89357272667E+02 0.  0.
         13    1    3    3    0    0  0.49458910699E+03 -0.19580941234E+03 -0.29334667191E+03  0.60746356321E+03  0.00000000000E+00 0.  1.
        -13    1    3    3    0    0  0.57399567847E+03 -0.33134889717E+03 -0.33943922387E+03  0.74463556003E+03  0.00000000000E+00 0. -1.
         22    1    1    2    0    0 -0.10685847855E+04  0.52715830951E+03 -0.74046898634E+03  0.14028769179E+04  0.00000000000E+00 0.  1.
<mgrwt>
<rscale>  0 0.23883182E+04</rscale>
<asrwt>0</asrwt>
<pdfrwt beam="1">  1        2 0.31755622E+00 0.23883182E+04</pdfrwt>
<pdfrwt beam="2">  1       -2 0.10628625E+00 0.23883182E+04</pdfrwt>
<totfact> 0.39535964E+00</totfact>
</mgrwt>
</event>
<event>
 6    1  0.1831439E-005  0.2497197E+04  0.7818608E-02  0.8403985E-01
          2   -1    0    0  501    0  0.00000000000E+00  0.00000000000E+00  0.18895541381E+04  0.18895541381E+04  0.00000000000E+00 0. -1.
         -2   -1    0    0    0  501 -0.00000000000E+00 -0.00000000000E+00 -0.82506153885E+03  0.82506153885E+03  0.00000000000E+00 0.  1.
         23    2    1    2    0    0  0.63244076015E+03  0.22420529861E+02  0.17009054648E+04  0.18171161891E+04  0.91366564949E+02 0.  0.
         13    1    3    3    0    0  0.49610646798E+03  0.35593777198E+02  0.12319233576E+04  0.13285419465E+04  0.00000000000E+00 0. -1.
        -13    1    3    3    0    0  0.13633429217E+03 -0.13173247337E+02  0.46898210722E+03  0.48857424263E+03  0.00000000000E+00 0.  1.
         22    1    1    2    0    0 -0.63244076015E+03 -0.22420529861E+02 -0.63641286556E+03  0.89749948786E+03  0.00000000000E+00 0.  1.
<mgrwt>
<rscale>  0 0.24971972E+04</rscale>
<asrwt>0</asrwt>
<pdfrwt beam="1">  1        2 0.29070064E+00 0.24971972E+04</pdfrwt>
<pdfrwt beam="2">  1       -2 0.12693254E+00 0.24971972E+04</pdfrwt>
<totfact> 0.31672197E+00</totfact>
</mgrwt>
</event>
<event>
 6    1  0.1831439E-005  0.2642245E+04  0.7818608E-02  0.8353992E-01
          1   -1    0    0  501    0  0.00000000000E+00  0.00000000000E+00  0.15412781984E+04  0.15412781984E+04  0.00000000000E+00 0. -1.
         -1   -1    0    0    0  501 -0.00000000000E+00 -0.00000000000E+00 -0.11324134424E+04  0.11324134424E+04  0.00000000000E+00 0.  1.
         23    2    1    2    0    0  0.27232692727E+03 -0.12627030469E+04 -0.68353464488E+02  0.12966229534E+04  0.89319355627E+02 0.  0.
         11    1    3    3    0    0  0.23465031463E+03 -0.90898977782E+03 -0.36741782178E+02  0.93950686262E+03  0.00000000000E+00 0. -1.
        -11    1    3    3    0    0  0.37676612632E+02 -0.35371326903E+03 -0.31611682310E+02  0.35711609077E+03  0.00000000000E+00 0.  1.
         22    1    1    2    0    0 -0.27232692727E+03  0.12627030469E+04  0.47721822050E+03  0.13770686874E+04  0.00000000000E+00 0. -1.
<mgrwt>
<rscale>  0 0.26422446E+04</rscale>
<asrwt>0</asrwt>
<pdfrwt beam="1">  1        1 0.23711972E+00 0.26422446E+04</pdfrwt>
<pdfrwt beam="2">  1       -1 0.17421745E+00 0.26422446E+04</pdfrwt>
<totfact> 0.12318562E+00</totfact>
</mgrwt>
</event>
<event>
 6    1  0.1831439E-005  0.2822407E+04  0.7818608E-02  0.8296346E-01
          1   -1    0    0  501    0  0.00000000000E+00  0.00000000000E+00  0.24722764933E+04  0.24722764933E+04  0.00000000000E+00 0. -1.
         -1   -1    0    0    0  501 -0.00000000000E+00 -0.00000000000E+00 -0.80553080783E+03  0.80553080783E+03  0.00000000000E+00 0.  1.
         23    2    1    2    0    0 -0.92803774932E+03  0.10453633735E+04  0.62197598463E+03  0.15326476022E+04  0.90088291671E+02 0.  0.
         13    1    3    3    0    0 -0.37831539282E+03  0.36833204363E+03  0.21186016215E+03  0.56892509095E+03  0.00000000000E+00 0.  1.
        -13    1    3    3    0    0 -0.54972235650E+03  0.67703132990E+03  0.41011582248E+03  0.96372251129E+03  0.00000000000E+00 0. -1.
         22    1    1    2    0    0  0.92803774932E+03 -0.10453633735E+04  0.10447697008E+04  0.17451596989E+04  0.00000000000E+00 0.  1.
<mgrwt>
<rscale>  0 0.28224067E+04</rscale>
<asrwt>0</asrwt>
<pdfrwt beam="1">  1        1 0.38035023E+00 0.28224067E+04</pdfrwt>
<pdfrwt beam="2">  1       -1 0.12392782E+00 0.28224067E+04</pdfrwt>
<totfact> 0.69930017E-01</totfact>
</mgrwt>
</event>
<event>
 6    1  0.1831439E-005  0.1301227E+04  0.7818608E-02  0.9028593E-01
          2   -1    0    0  501    0  0.00000000000E+00  0.00000000000E+00  0.25565614902E+03  0.25565614902E+03  0.00000000000E+00 0. -1.
         -2   -1    0    0    0  501 -0.00000000000E+00 -0.00000000000E+00 -0.16557302325E+04  0.16557302325E+04  0.00000000000E+00 0.  1.
         23    2    1    2    0    0  0.47933498697E+02  0.50016747242E+03 -0.13053328114E+04  0.14000733371E+04  0.62019996929E+02 0.  0.
         11    1    3    3    0    0  0.40053066656E+02  0.47464404133E+03 -0.11923163416E+04  0.12839429398E+04  0.00000000000E+00 0. -1.
        -11    1    3    3    0    0  0.78804320416E+01  0.25523431085E+02 -0.11301646974E+03  0.11613039729E+03  0.00000000000E+00 0.  1.
         22    1    1    2    0    0 -0.47933498697E+02 -0.50016747242E+03 -0.94741272100E+02  0.51131304443E+03  0.00000000000E+00 0.  1.
<mgrwt>
<rscale>  0 0.13012265E+04</rscale>
<asrwt>0</asrwt>
<pdfrwt beam="1">  1        2 0.39331716E-01 0.13012265E+04</pdfrwt>
<pdfrwt beam="2">  1       -2 0.25472772E+00 0.13012265E+04</pdfrwt>
<totfact> 0.77488040E+00</totfact>
</mgrwt>
</event>
<event>
 6    1  0.1831439E-005  0.1223279E+04  0.7818608E-02  0.9092721E-01
          2   -1    0    0  501    0  0.00000000000E+00  0.00000000000E+00  0.27942304261E+04  0.27942304261E+04  0.00000000000E+00 0. -1.
         -2   -1    0    0    0  501 -0.00000000000E+00 -0.00000000000E+00 -0.13388414953E+03  0.13388414953E+03  0.00000000000E+00 0.  1.
         23    2    1    2    0    0  0.27789727126E+03  0.50438497646E+03  0.86946043278E+03  0.10469172964E+04  0.91887341447E+02 0.  0.
         11    1    3    3    0    0  0.68149456557E+02  0.59550076456E+02  0.11548076805E+03  0.14671866897E+03  0.00000000000E+00 0. -1.
        -11    1    3    3    0    0  0.20974781471E+03  0.44483490001E+03  0.75397966472E+03  0.90019862745E+03  0.00000000000E+00 0.  1.
         22    1    1    2    0    0 -0.27789727126E+03 -0.50438497646E+03  0.17908858438E+04  0.18811972792E+04  0.00000000000E+00 0. -1.
<mgrwt>
<rscale>  0 0.12232795E+04</rscale>
<asrwt>0</asrwt>
<pdfrwt beam="1">  1        2 0.42988156E+00 0.12232795E+04</pdfrwt>
<pdfrwt beam="2">  1       -2 0.20597564E-01 0.12232795E+04</pdfrwt>
<totfact> 0.47085644E+01</totfact>
</mgrwt>
</event>
<event>
 6    1  0.1831439E-005  0.1835950E+04  0.7818608E-02  0.8687412E-01
         -1   -1    0    0    0  501 -0.00000000000E+00  0.00000000000E+00  0.82455033792E+03  0.82455033792E+03  0.00000000000E+00 0.  1.
          1   -1    0    0  501    0  0.00000000000E+00 -0.00000000000E+00 -0.10219850818E+04  0.10219850818E+04  0.00000000000E+00 0. -1.
         23    2    1    2    0    0  0.37511734831E+03 -0.68762383289E+03  0.37616843280E+03  0.87568004177E+03  0.10850477020E+03 0.  0.
         13    1    3    3    0    0  0.24685080165E+03 -0.36604393315E+03  0.24879393278E+03  0.50677598626E+03  0.00000000000E+00 0.  1.
        -13    1    3    3    0    0  0.12826654666E+03 -0.32157989975E+03  0.12737450002E+03  0.36890405551E+03  0.00000000000E+00 0. -1.
         22    1    1    2    0    0 -0.37511734831E+03  0.68762383289E+03 -0.57360317663E+03  0.97085537790E+03  0.00000000000E+00 0. -1.
<mgrwt>
<rscale>  0 0.18359500E+04</rscale>
<asrwt>0</asrwt>
<pdfrwt beam="1">  1        1 0.15722847E+00 0.18359500E+04</pdfrwt>
<pdfrwt beam="2">  1       -1 0.12685390E+00 0.18359500E+04</pdfrwt>
<totfact> 0.73820523E+00</totfact>
</mgrwt>
</event>
<event>
 6    1  0.1831439E-005  0.2135100E+04  0.7818608E-02  0.8545937E-01
          2   -1    0    0  501    0  0.00000000000E+00  0.00000000000E+00  0.14805236752E+04  0.14805236752E+04  0.00000000000E+00 0. -1.
         -2   -1    0    0    0  501 -0.00000000000E+00 -0.00000000000E+00 -0.76976989522E+03  0.76976989522E+03  0.00000000000E+00 0.  1.
         23    2    1    2    0    0  0.19424233342E+03  0.81776396312E+03 -0.33417272916E+03  0.90927179842E+03  0.92929042920E+02 0.  0.
         11    1    3    3    0    0 -0.39045559043E+01  0.37059808381E+02 -0.54872109571E-01  0.37264969677E+02  0.00000000000E+00 0. -1.
        -11    1    3    3    0    0  0.19814688932E+03  0.78070415474E+03 -0.33411785705E+03  0.87200682874E+03  0.00000000000E+00 0.  1.
         22    1    1    2    0    0 -0.19424233342E+03 -0.81776396312E+03  0.10449265091E+04  0.13410217720E+04  0.00000000000E+00 0. -1.
<mgrwt>
<rscale>  0 0.21350996E+04</rscale>
<asrwt>0</asrwt>
<pdfrwt beam="1">  1        2 0.22777287E+00 0.21350996E+04</pdfrwt>
<pdfrwt beam="2">  1       -2 0.11842614E+00 0.21350996E+04</pdfrwt>
<totfact> 0.65659739E+00</totfact>
</mgrwt>
</event>
<event>
 6    1  0.1831439E-005  0.9270368E+03  0.7818608E-02  0.9392401E-01
         -1   -1    0    0    0  501 -0.00000000000E+00  0.00000000000E+00  0.21951944145E+03  0.21951944145E+03  0.00000000000E+00 0.  1.
          1   -1    0    0  501    0  0.00000000000E+00 -0.00000000000E+00 -0.97872569382E+03  0.97872569382E+03  0.00000000000E+00 0. -1.
         23    2    1    2    0    0 -0.17941692919E+03 -0.19218626396E+03 -0.86979899557E+03  0.91301408966E+03  0.88985620642E+02 0.  0.
         13    1    3    3    0    0 -0.80202933577E+02 -0.12039870651E+03 -0.34475110052E+03  0.37387388300E+03  0.00000000000E+00 0. -1.
        -13    1    3    3    0    0 -0.99213995608E+02 -0.71787557446E+02 -0.52504789506E+03  0.53914020665E+03  0.00000000000E+00 0.  1.
         22    1    1    2    0    0  0.17941692919E+03  0.19218626396E+03  0.11059274320E+03  0.28523104561E+03  0.00000000000E+00 0.  1.
<mgrwt>
<rscale>  0 0.92703682E+03</rscale>
<asrwt>0</asrwt>
<pdfrwt beam="1">  1        1 0.15057319E+00 0.92703682E+03</pdfrwt>
<pdfrwt beam="2">  1       -1 0.33772221E-01 0.92703682E+03</pdfrwt>
<totfact> 0.13074722E+02</totfact>
</mgrwt>
</event>
<event>
 6    1  0.1831439E-005  0.4202317E+04  0.7818608E-02  0.7964932E-01
         -2   -1    0    0    0  501 -0.00000000000E+00  0.00000000000E+00  0.18296705168E+04  0.18296705168E+04  0.00000000000E+00 0.  1.
          2   -1    0    0  501    0  0.00000000000E+00 -0.00000000000E+00 -0.24129303687E+04  0.24129303687E+04  0.00000000000E+00 0. -1.
         23    2    1    2    0    0  0.10777592622E+04 -0.49986170850E+03 -0.20402288374E+04  0.23626579663E+04  0.90510784831E+02 0.  0.
         11    1    3    3    0    0  0.31703862786E+03 -0.18738058381E+03 -0.59141159774E+03  0.69670126502E+03  0.00000000000E+00 0. -1.
        -11    1    3    3    0    0  0.76072063437E+03 -0.31248112469E+03 -0.14488172396E+04  0.16659567013E+04  0.00000000000E+00 0.  1.
         22    1    1    2    0    0 -0.10777592622E+04  0.49986170850E+03  0.14569689855E+04  0.18799429192E+04  0.00000000000E+00 0.  1.
<mgrwt>
<rscale>  0 0.42023172E+04</rscale>
<asrwt>0</asrwt>
<pdfrwt beam="1">  1        2 0.37122006E+00 0.42023172E+04</pdfrwt>
<pdfrwt beam="2">  1       -2 0.28148777E+00 0.42023172E+04</pdfrwt>
<totfact> 0.12509852E-01</totfact>
</mgrwt>
</event>
<event>
 6    1  0.1831439E-005  0.3768821E+04  0.7818608E-02  0.8052879E-01
          1   -1    0    0  501    0  0.00000000000E+00  0.00000000000E+00  0.12924354647E+04  0.12924354647E+04  0.00000000000E+00 0. -1.
         -1   -1    0    0    0  501 -0.00000000000E+00 -0.00000000000E+00 -0.27475275923E+04  0.27475275923E+04  0.00000000000E+00 0.  1.
         23    2    1    2    0    0  0.96891235873E+03 -0.86886650621E+03  0.73131773399E+03  0.14955361574E+04  0.89903311991E+02 0.  0.
         11    1    3    3    0    0  0.60247014883E+03 -0.59547179549E+03  0.46089229880E+03  0.96435400686E+03  0.00000000000E+00 0.  1.
        -11    1    3    3    0    0  0.36644220990E+03 -0.27339471072E+03  0.27042543519E+03  0.53118215054E+03  0.00000000000E+00 0. -1.
         22    1    1    2    0    0 -0.96891235873E+03  0.86886650621E+03 -0.21864098616E+04  0.25444268996E+04  0.00000000000E+00 0.  1.
<mgrwt>
<rscale>  0 0.37688206E+04</rscale>
<asrwt>0</asrwt>
<pdfrwt beam="1">  1        1 0.19883623E+00 0.37688206E+04</pdfrwt>
<pdfrwt beam="2">  1       -1 0.42269655E+00 0.37688206E+04</pdfrwt>
<totfact> 0.36469950E-02</totfact>
</mgrwt>
</event>
<event>
 6    1  0.1831439E-005  0.2207014E+04  0.7818608E-02  0.8515515E-01
         -1   -1    0    0    0  501 -0.00000000000E+00  0.00000000000E+00  0.34988987094E+03  0.34988987094E+03  0.00000000000E+00 0.  1.
          1   -1    0    0  501    0  0.00000000000E+00 -0.00000000000E+00 -0.34803161104E+04  0.34803161104E+04  0.00000000000E+00 0. -1.
         23    2    1    2    0    0  0.91376967858E+03 -0.60253642583E+03 -0.17841554949E+04  0.20951353523E+04  0.91411951006E+02 0.  0.
         13    1    3    3    0    0  0.10845890403E+03 -0.45469226053E+02 -0.15886500043E+03  0.19765847501E+03  0.00000000000E+00 0.  1.
        -13    1    3    3    0    0  0.80531077455E+03 -0.55706719977E+03 -0.16252904944E+04  0.18974768773E+04  0.00000000000E+00 0. -1.
         22    1    1    2    0    0 -0.91376967858E+03  0.60253642583E+03 -0.13462707446E+04  0.17350706290E+04  0.00000000000E+00 0.  1.
<mgrwt>
<rscale>  0 0.22070137E+04</rscale>
<asrwt>0</asrwt>
<pdfrwt beam="1">  1        1 0.53543326E+00 0.22070137E+04</pdfrwt>
<pdfrwt beam="2">  1       -1 0.53829210E-01 0.22070137E+04</pdfrwt>
<totfact> 0.82410367E-01</totfact>
</mgrwt>
</event>
<event>
 6    1  0.2365166E-005  0.1512509E+04  0.7818608E-02  0.8876177E-01
          1   -1    0    0  501    0  0.00000000000E+00  0.00000000000E+00  0.20872954717E+04  0.20872954717E+04  0.00000000000E+00 0. -1.
         -1   -1    0    0    0  501 -0.00000000000E+00 -0.00000000000E+00 -0.27400087038E+03  0.27400087038E+03  0.00000000000E+00 0.  1.
         23    2    1    2    0    0  0.11790753595E+03 -0.53845212087E+03  0.17119372180E+04  0.18008445666E+04  0.92082795586E+02 0.  0.
         13    1    3    3    0    0  0.32574919064E+02 -0.29113479936E+03  0.79262882836E+03  0.84503316876E+03  0.00000000000E+00 0. -1.
        -13    1    3    3    0    0  0.85332616886E+02 -0.24731732152E+03  0.91930838960E+03  0.95581139783E+03  0.00000000000E+00 0.  1.
         22    1    1    2    0    0 -0.11790753595E+03  0.53845212087E+03  0.10135738337E+03  0.56045177551E+03  0.00000000000E+00 0.  1.
<mgrwt>
<rscale>  0 0.15125089E+04</rscale>
<asrwt>0</asrwt>
<pdfrwt beam="1">  1        1 0.32112237E+00 0.15125089E+04</pdfrwt>
<pdfrwt beam="2">  1       -1 0.42153982E-01 0.15125089E+04</pdfrwt>
<totfact> 0.13904690E+01</totfact>
</mgrwt>
</event>
<event>
 6    1  0.1831439E-005  0.1160190E+04  0.7818608E-02  0.9148434E-01
          2   -1    0    0  501    0  0.00000000000E+00  0.00000000000E+00  0.90393484626E+03  0.90393484626E+03  0.00000000000E+00 0. -1.
         -2   -1    0    0    0  501 -0.00000000000E+00 -0.00000000000E+00 -0.37227245959E+03  0.37227245959E+03  0.00000000000E+00 0.  1.
         23    2    1    2    0    0  0.10714972511E+03  0.20005688555E+03  0.85031932622E+03  0.88499628074E+03  0.93121637263E+02 0.  0.
         13    1    3    3    0    0  0.88893096533E+02  0.70122771339E+02  0.43132539762E+03  0.44593809470E+03  0.00000000000E+00 0.  1.
        -13    1    3    3    0    0  0.18256628579E+02  0.12993411421E+03  0.41899392860E+03  0.43905818604E+03  0.00000000000E+00 0. -1.
         22    1    1    2    0    0 -0.10714972511E+03 -0.20005688555E+03 -0.31865693955E+03  0.39121102511E+03  0.00000000000E+00 0.  1.
<mgrwt>
<rscale>  0 0.11601897E+04</rscale>
<asrwt>0</asrwt>
<pdfrwt beam="1">  1        2 0.13906690E+00 0.11601897E+04</pdfrwt>
<pdfrwt beam="2">  1       -2 0.57272686E-01 0.11601897E+04</pdfrwt>
<totfact> 0.82367221E+01</totfact>
</mgrwt>
</event>
<event>
 6    1  0.1831439E-005  0.1224450E+04  0.7818608E-02  0.9091721E-01
         -1   -1    0    0    0  501 -0.00000000000E+00  0.00000000000E+00  0.31829086531E+03  0.31829086531E+03  0.00000000000E+00 0.  1.
          1   -1    0    0  501    0  0.00000000000E+00 -0.00000000000E+00 -0.11775994430E+04  0.11775994430E+04  0.00000000000E+00 0. -1.
         23    2    1    2    0    0  0.26535000182E+03 -0.76560433168E+02  0.23081142277E+03  0.37133095514E+03  0.91327115174E+02 0.  0.
         13    1    3    3    0    0  0.17717881959E+03 -0.82556040697E+02  0.11911826352E+03  0.22890389833E+03  0.00000000000E+00 0.  1.
        -13    1    3    3    0    0  0.88171182227E+02  0.59956075292E+01  0.11169315926E+03  0.14242705681E+03  0.00000000000E+00 0. -1.
         22    1    1    2    0    0 -0.26535000182E+03  0.76560433168E+02 -0.10901200005E+04  0.11245593532E+04  0.00000000000E+00 0. -1.
<mgrwt>
<rscale>  0 0.12244495E+04</rscale>
<asrwt>0</asrwt>
<pdfrwt beam="1">  1        1 0.18116915E+00 0.12244495E+04</pdfrwt>
<pdfrwt beam="2">  1       -1 0.48967825E-01 0.12244495E+04</pdfrwt>
<totfact> 0.45780779E+01</totfact>
</mgrwt>
</event>
<event>
 6    1  0.1831439E-005  0.2081656E+04  0.7818608E-02  0.8569368E-01
         -2   -1    0    0    0  501 -0.00000000000E+00  0.00000000000E+00  0.12347515550E+04  0.12347515550E+04  0.00000000000E+00 0. -1.
          2   -1    0    0  501    0  0.00000000000E+00 -0.00000000000E+00 -0.87736078116E+03  0.87736078116E+03  0.00000000000E+00 0.  1.
         23    2    1    2    0    0  0.38012322880E+02  0.29838589835E+03  0.11878286215E+04  0.12288761842E+04  0.93385015080E+02 0.  0.
         11    1    3    3    0    0  0.20836173138E+02  0.11867330313E+03  0.66316248567E+03  0.67401927375E+03  0.00000000000E+00 0. -1.
        -11    1    3    3    0    0  0.17176149742E+02  0.17971259522E+03  0.52466613587E+03  0.55485691050E+03  0.00000000000E+00 0.  1.
         22    1    1    2    0    0 -0.38012322880E+02 -0.29838589835E+03 -0.83043784773E+03  0.88323615187E+03  0.00000000000E+00 0.  1.
<mgrwt>
<rscale>  0 0.20816557E+04</rscale>
<asrwt>0</asrwt>
<pdfrwt beam="1">  1        2 0.13497858E+00 0.20816557E+04</pdfrwt>
<pdfrwt beam="2">  1       -2 0.18996178E+00 0.20816557E+04</pdfrwt>
<totfact> 0.43472878E+00</totfact>
</mgrwt>
</event>
<event>
 6    1  0.1831439E-005  0.1294773E+04  0.7818608E-02  0.9033720E-01
          3   -1    0    0  501    0  0.00000000000E+00  0.00000000000E+00  0.79003271379E+03  0.79003271379E+03  0.00000000000E+00 0. -1.
         -3   -1    0    0    0  501 -0.00000000000E+00 -0.00000000000E+00 -0.53049616067E+03  0.53049616067E+03  0.00000000000E+00 0.  1.
         23    2    1    2    0    0  0.33730077261E+03  0.52667734854E+03 -0.28979321631E+02  0.63176022633E+03  0.84382117892E+02 0.  0.
         11    1    3    3    0    0  0.30954394010E+02  0.19190466777E+02 -0.13292214537E+02  0.38770239759E+02  0.00000000000E+00 0. -1.
        -11    1    3    3    0    0  0.30634637860E+03  0.50748688176E+03 -0.15687107094E+02  0.59298998657E+03  0.00000000000E+00 0.  1.
         22    1    1    2    0    0 -0.33730077261E+03 -0.52667734854E+03  0.28851587475E+03  0.68876864813E+03  0.00000000000E+00 0. -1.
<mgrwt>
<rscale>  0 0.12947731E+04</rscale>
<asrwt>0</asrwt>
<pdfrwt beam="1">  1        3 0.12154349E+00 0.12947731E+04</pdfrwt>
<pdfrwt beam="2">  1       -3 0.81614794E-01 0.12947731E+04</pdfrwt>
<totfact> 0.19623599E+00</totfact>
</mgrwt>
</event>
<event>
 6    1  0.1831439E-005  0.1820861E+04  0.7818608E-02  0.8695284E-01
         -2   -1    0    0    0  501 -0.00000000000E+00  0.00000000000E+00  0.52935492312E+03  0.52935492312E+03  0.00000000000E+00 0.  1.
          2   -1    0    0  501    0  0.00000000000E+00 -0.00000000000E+00 -0.15658381719E+04  0.15658381719E+04  0.00000000000E+00 0. -1.
         23    2    1    2    0    0 -0.17382131291E+02  0.40036556339E+03  0.41778418633E+03  0.58672085608E+03  0.95409715314E+02 0.  0.
         13    1    3    3    0    0  0.15222756126E+02  0.31845230839E+03  0.36206427621E+03  0.48242527414E+03  0.00000000000E+00 0.  1.
        -13    1    3    3    0    0 -0.32604887417E+02  0.81913255001E+02  0.55719910117E+02  0.10429558194E+03  0.00000000000E+00 0. -1.
         22    1    1    2    0    0  0.17382131291E+02 -0.40036556339E+03 -0.14542674351E+04  0.15084722389E+04  0.00000000000E+00 0. -1.
<mgrwt>
<rscale>  0 0.18208615E+04</rscale>
<asrwt>0</asrwt>
<pdfrwt beam="1">  1        2 0.24089818E+00 0.18208615E+04</pdfrwt>
<pdfrwt beam="2">  1       -2 0.81439219E-01 0.18208615E+04</pdfrwt>
<totfact> 0.14585107E+01</totfact>
</mgrwt>
</event>
<event>
 6    1  0.1831439E-005  0.3010273E+04  0.7818608E-02  0.8240803E-01
         -1   -1    0    0    0  501 -0.00000000000E+00  0.00000000000E+00  0.92576982048E+03  0.92576982048E+03  0.00000000000E+00 0.  1.
          1   -1    0    0  501    0  0.00000000000E+00 -0.00000000000E+00 -0.24470838017E+04  0.24470838017E+04  0.00000000000E+00 0. -1.
         23    2    1    2    0    0 -0.13668519854E+04 -0.54335654863E+02 -0.61707295752E+02  0.13724315693E+04  0.92325015820E+02 0.  0.
         11    1    3    3    0    0 -0.41560103366E+03 -0.25136775338E+01 -0.58932154378E+02  0.41976604981E+03  0.00000000000E+00 0. -1.
        -11    1    3    3    0    0 -0.95125095177E+03 -0.51821977329E+02 -0.27751413739E+01  0.95266551947E+03  0.00000000000E+00 0.  1.
         22    1    1    2    0    0  0.13668519854E+04  0.54335654863E+02 -0.14596066855E+04  0.20004220529E+04  0.00000000000E+00 0. -1.
<mgrwt>
<rscale>  0 0.30102733E+04</rscale>
<asrwt>0</asrwt>
<pdfrwt beam="1">  1        1 0.37647443E+00 0.30102733E+04</pdfrwt>
<pdfrwt beam="2">  1       -1 0.14242613E+00 0.30102733E+04</pdfrwt>
<totfact> 0.50201405E-01</totfact>
</mgrwt>
</event>
<event>
 6    1  0.1831439E-005  0.5688839E+03  0.7818608E-02  0.9972151E-01
          1   -1    0    0  501    0  0.00000000000E+00  0.00000000000E+00  0.60293513894E+03  0.60293513894E+03  0.00000000000E+00 0. -1.
         -1   -1    0    0    0  501 -0.00000000000E+00 -0.00000000000E+00 -0.13418894386E+03  0.13418894386E+03  0.00000000000E+00 0.  1.
         23    2    1    2    0    0 -0.12241657937E+03 -0.23940482481E+03  0.15199570782E+03  0.32163478062E+03  0.89698092845E+02 0.  0.
         13    1    3    3    0    0 -0.50553082797E+02 -0.14998504575E+03  0.44474237687E+02  0.16440524915E+03  0.00000000000E+00 0.  1.
        -13    1    3    3    0    0 -0.71863496576E+02 -0.89419779057E+02  0.10752147013E+03  0.15722953147E+03  0.00000000000E+00 0. -1.
         22    1    1    2    0    0  0.12241657937E+03  0.23940482481E+03  0.31675048727E+03  0.41548930218E+03  0.00000000000E+00 0. -1.
<mgrwt>
<rscale>  0 0.56888392E+03</rscale>
<asrwt>0</asrwt>
<pdfrwt beam="1">  1        1 0.92759251E-01 0.56888392E+03</pdfrwt>
<pdfrwt beam="2">  1       -1 0.20644453E-01 0.56888392E+03</pdfrwt>
<totfact> 0.66513433E+02</totfact>
</mgrwt>
</event>
<event>
 6    1  0.1831439E-005  0.1976868E+04  0.7818608E-02  0.8617513E-01
          1   -1    0    0  501    0  0.00000000000E+00  0.00000000000E+00  0.33626248167E+04  0.33626248167E+04  0.00000000000E+00 0. -1.
         -1   -1    0    0    0  501 -0.00000000000E+00 -0.00000000000E+00 -0.29054726679E+03  0.29054726679E+03  0.00000000000E+00 0.  1.
         23    2    1    2    0    0 -0.52502051892E+03  0.35852910270E+03  0.14530050358E+03  0.65814060758E+03  0.88584198555E+02 0.  0.
         13    1    3    3    0    0 -0.39648737986E+03  0.30015339215E+03  0.14106916039E+03  0.51690889838E+03  0.00000000000E+00 0.  1.
        -13    1    3    3    0    0 -0.12853313905E+03  0.58375710554E+02  0.42313431809E+01  0.14123170920E+03  0.00000000000E+00 0. -1.
         22    1    1    2    0    0  0.52502051892E+03 -0.35852910270E+03  0.29267770463E+04  0.29950314759E+04  0.00000000000E+00 0. -1.
<mgrwt>
<rscale>  0 0.19768677E+04</rscale>
<asrwt>0</asrwt>
<pdfrwt beam="1">  1        1 0.51732687E+00 0.19768677E+04</pdfrwt>
<pdfrwt beam="2">  1       -1 0.44699582E-01 0.19768677E+04</pdfrwt>
<totfact> 0.14795695E+00</totfact>
</mgrwt>
</event>
<event>
 6    1  0.1831439E-005  0.2379348E+04  0.7818608E-02  0.8447276E-01
         -2   -1    0    0    0  501 -0.00000000000E+00  0.00000000000E+00  0.14947989592E+04  0.14947989592E+04  0.00000000000E+00 0.  1.
          2   -1    0    0  501    0  0.00000000000E+00 -0.00000000000E+00 -0.94683223944E+03  0.94683223944E+03  0.00000000000E+00 0. -1.
         23    2    1    2    0    0  0.80351625788E+03 -0.25480118960E+03  0.11333191752E+04  0.14153761037E+04  0.91187385191E+02 0.  0.
         11    1    3    3    0    0  0.39668588427E+03 -0.91273490906E+02  0.59833270201E+03  0.72366605780E+03  0.00000000000E+00 0. -1.
        -11    1    3    3    0    0  0.40683037361E+03 -0.16352769870E+03  0.53498647318E+03  0.69171004592E+03  0.00000000000E+00 0.  1.
         22    1    1    2    0    0 -0.80351625788E+03  0.25480118960E+03 -0.58535245540E+03  0.10262550950E+04  0.00000000000E+00 0. -1.
<mgrwt>
<rscale>  0 0.23793477E+04</rscale>
<asrwt>0</asrwt>
<pdfrwt beam="1">  1        2 0.14566650E+00 0.23793477E+04</pdfrwt>
<pdfrwt beam="2">  1       -2 0.22996907E+00 0.23793477E+04</pdfrwt>
<totfact> 0.21014763E+00</totfact>
</mgrwt>
</event>
<event>
 6    1  0.1831439E-005  0.2838995E+04  0.7818608E-02  0.8291263E-01
         -1   -1    0    0    0  501 -0.00000000000E+00  0.00000000000E+00  0.10323665237E+04  0.10323665237E+04  0.00000000000E+00 0.  1.
          1   -1    0    0  501    0  0.00000000000E+00 -0.00000000000E+00 -0.19517998915E+04  0.19517998915E+04  0.00000000000E+00 0. -1.
         23    2    1    2    0    0  0.93185292918E+03 -0.44838985440E+03  0.55959642744E+03  0.11794690782E+04  0.92713545954E+02 0.  0.
         11    1    3    3    0    0  0.10899705209E+03 -0.61777991427E+02  0.10250661139E+03  0.16187798790E+03  0.00000000000E+00 0. -1.
        -11    1    3    3    0    0  0.82285587709E+03 -0.38661186297E+03  0.45708981606E+03  0.10175910903E+04  0.00000000000E+00 0.  1.
         22    1    1    2    0    0 -0.93185292918E+03  0.44838985440E+03 -0.14790297952E+04  0.18046973370E+04  0.00000000000E+00 0. -1.
<mgrwt>
<rscale>  0 0.28389948E+04</rscale>
<asrwt>0</asrwt>
<pdfrwt beam="1">  1        1 0.30027690E+00 0.28389948E+04</pdfrwt>
<pdfrwt beam="2">  1       -1 0.15882562E+00 0.28389948E+04</pdfrwt>
<totfact> 0.82700109E-01</totfact>
</mgrwt>
</event>
<event>
 6    1  0.1831439E-005  0.1532144E+04  0.7818608E-02  0.8863355E-01
          2   -1    0    0  501    0  0.00000000000E+00  0.00000000000E+00  0.31617787706E+04  0.31617787706E+04  0.00000000000E+00 0.  1.
         -2   -1    0    0    0  501 -0.00000000000E+00 -0.00000000000E+00 -0.18561262167E+03  0.18561262167E+03  0.00000000000E+00 0. -1.
         23    2    1    2    0    0  0.62486970749E+03 -0.23047980333E+03  0.23083955075E+04  0.24042579337E+04  0.90461603437E+02 0.  0.
         13    1    3    3    0    0  0.23804052512E+03 -0.12650355707E+03  0.10210262117E+04  0.10560118212E+04  0.00000000000E+00 0. -1.
        -13    1    3    3    0    0  0.38682918238E+03 -0.10397624626E+03  0.12873692958E+04  0.13482461125E+04  0.00000000000E+00 0.  1.
         22    1    1    2    0    0 -0.62486970749E+03  0.23047980333E+03  0.66777064141E+03  0.94313345854E+03  0.00000000000E+00 0. -1.
<mgrwt>
<rscale>  0 0.15321437E+04</rscale>
<asrwt>0</asrwt>
<pdfrwt beam="1">  1        2 0.48642746E+00 0.15321437E+04</pdfrwt>
<pdfrwt beam="2">  1       -2 0.28555790E-01 0.15321437E+04</pdfrwt>
<totfact> 0.15007399E+01</totfact>
</mgrwt>
</event>
<event>
 6    1  0.1831439E-005  0.2346723E+04  0.7818608E-02  0.8459724E-01
          1   -1    0    0  501    0  0.00000000000E+00  0.00000000000E+00  0.17461519055E+04  0.17461519055E+04  0.00000000000E+00 0. -1.
         -1   -1    0    0    0  501 -0.00000000000E+00 -0.00000000000E+00 -0.78846330752E+03  0.78846330752E+03  0.00000000000E+00 0.  1.
         23    2    1    2    0    0  0.11708283216E+04 -0.22952200247E+02  0.52043859527E+03  0.12845938824E+04  0.89215184941E+02 0.  0.
         13    1    3    3    0    0  0.78105804410E+03 -0.54305183716E+02  0.36421753541E+03  0.86351325081E+03  0.00000000000E+00 0.  1.
        -13    1    3    3    0    0  0.38977027748E+03  0.31352983468E+02  0.15622105985E+03  0.42108063162E+03  0.00000000000E+00 0. -1.
         22    1    1    2    0    0 -0.11708283216E+04  0.22952200247E+02  0.43725000276E+03  0.12500213306E+04  0.00000000000E+00 0.  1.
<mgrwt>
<rscale>  0 0.23467226E+04</rscale>
<asrwt>0</asrwt>
<pdfrwt beam="1">  1        1 0.26863875E+00 0.23467226E+04</pdfrwt>
<pdfrwt beam="2">  1       -1 0.12130205E+00 0.23467226E+04</pdfrwt>
<totfact> 0.24056189E+00</totfact>
</mgrwt>
</event>
<event>
 6    1  0.1831439E-005  0.4550707E+04  0.7818608E-02  0.7901819E-01
          1   -1    0    0  501    0  0.00000000000E+00  0.00000000000E+00  0.39411067952E+04  0.39411067952E+04  0.00000000000E+00 0. -1.
         -1   -1    0    0    0  501 -0.00000000000E+00 -0.00000000000E+00 -0.13136494712E+04  0.13136494712E+04  0.00000000000E+00 0.  1.
         23    2    1    2    0    0 -0.13046927671E+04 -0.24678023451E+03  0.34465173713E+04  0.36946334950E+04  0.93332583516E+02 0.  0.
         11    1    3    3    0    0 -0.90074027711E+03 -0.12983207883E+03  0.23090495561E+04  0.24819144361E+04  0.00000000000E+00 0.  1.
        -11    1    3    3    0    0 -0.40395249001E+03 -0.11694815568E+03  0.11374678152E+04  0.12127190590E+04  0.00000000000E+00 0. -1.
         22    1    1    2    0    0  0.13046927671E+04  0.24678023451E+03 -0.81906004724E+03  0.15601227714E+04  0.00000000000E+00 0.  1.
<mgrwt>
<rscale>  0 0.45507067E+04</rscale>
<asrwt>0</asrwt>
<pdfrwt beam="1">  1        1 0.60632412E+00 0.45507067E+04</pdfrwt>
<pdfrwt beam="2">  1       -1 0.20209992E+00 0.45507067E+04</pdfrwt>
<totfact> 0.11731026E-02</totfact>
</mgrwt>
</event>
<event>
 6    1  0.1831439E-005  0.1833698E+04  0.7818608E-02  0.8688582E-01
          1   -1    0    0  501    0  0.00000000000E+00  0.00000000000E+00  0.18246326896E+04  0.18246326896E+04  0.00000000000E+00 0. -1.
         -1   -1    0    0    0  501 -0.00000000000E+00 -0.00000000000E+00 -0.46070188227E+03  0.46070188227E+03  0.00000000000E+00 0.  1.
         23    2    1    2    0    0  0.21496449413E+03  0.50546653265E+03  0.15947731068E+04  0.16895205769E+04  0.97326091913E+02 0.  0.
         11    1    3    3    0    0  0.10061108954E+03  0.21881318828E+03  0.55717655060E+03  0.60699877367E+03  0.00000000000E+00 0. -1.
        -11    1    3    3    0    0  0.11435340459E+03  0.28665334437E+03  0.10375965562E+04  0.10825218032E+04  0.00000000000E+00 0.  1.
         22    1    1    2    0    0 -0.21496449413E+03 -0.50546653265E+03 -0.23084229949E+03  0.59581399497E+03  0.00000000000E+00 0.  1.
<mgrwt>
<rscale>  0 0.18336976E+04</rscale>
<asrwt>0</asrwt>
<pdfrwt beam="1">  1        1 0.28071272E+00 0.18336976E+04</pdfrwt>
<pdfrwt beam="2">  1       -1 0.70877214E-01 0.18336976E+04</pdfrwt>
<totfact> 0.74165159E+00</totfact>
</mgrwt>
</event>
<event>
 6    1  0.1831439E-005  0.3116994E+04  0.7818608E-02  0.8211090E-01
          1   -1    0    0  501    0  0.00000000000E+00  0.00000000000E+00  0.22755103903E+04  0.22755103903E+04  0.00000000000E+00 0. -1.
         -1   -1    0    0    0  501 -0.00000000000E+00 -0.00000000000E+00 -0.10674144183E+04  0.10674144183E+04  0.00000000000E+00 0.  1.
         23    2    1    2    0    0  0.86842378867E+03 -0.10958095259E+04 -0.13048526375E+03  0.14072703667E+04  0.91788272484E+02 0.  0.
         11    1    3    3    0    0  0.30740395881E+03 -0.35570404790E+03 -0.52796492040E+01  0.47016001349E+03  0.00000000000E+00 0. -1.
        -11    1    3    3    0    0  0.56101982986E+03 -0.74010547803E+03 -0.12520561455E+03  0.93711035317E+03  0.00000000000E+00 0.  1.
         22    1    1    2    0    0 -0.86842378867E+03  0.10958095259E+04  0.13385812358E+04  0.19356544419E+04  0.00000000000E+00 0. -1.
<mgrwt>
<rscale>  0 0.31169938E+04</rscale>
<asrwt>0</asrwt>
<pdfrwt beam="1">  1        1 0.35007852E+00 0.31169938E+04</pdfrwt>
<pdfrwt beam="2">  1       -1 0.16421760E+00 0.31169938E+04</pdfrwt>
<totfact> 0.44266291E-01</totfact>
</mgrwt>
</event>
<event>
 6    1  0.1831439E-005  0.4079423E+04  0.7818608E-02  0.7988713E-01
         -2   -1    0    0    0  501 -0.00000000000E+00  0.00000000000E+00  0.14689041582E+04  0.14689041582E+04  0.00000000000E+00 0.  1.
          2   -1    0    0  501    0  0.00000000000E+00 -0.00000000000E+00 -0.28323309716E+04  0.28323309716E+04  0.00000000000E+00 0. -1.
         23    2    1    2    0    0 -0.12858921992E+04 -0.13841136997E+04  0.12532693710E+03  0.18958916592E+04  0.96999281561E+02 0.  0.
         11    1    3    3    0    0 -0.10230211008E+04 -0.10427147796E+04  0.10520168316E+03  0.14645455536E+04  0.00000000000E+00 0.  1.
        -11    1    3    3    0    0 -0.26287109838E+03 -0.34139892009E+03  0.20125253939E+02  0.43134610564E+03  0.00000000000E+00 0. -1.
         22    1    1    2    0    0  0.12858921992E+04  0.13841136997E+04 -0.14887537505E+04  0.24053434706E+04  0.00000000000E+00 0. -1.
<mgrwt>
<rscale>  0 0.40794229E+04</rscale>
<asrwt>0</asrwt>
<pdfrwt beam="1">  1        2 0.43574322E+00 0.40794229E+04</pdfrwt>
<pdfrwt beam="2">  1       -2 0.22598526E+00 0.40794229E+04</pdfrwt>
<totfact> 0.15691638E-01</totfact>
</mgrwt>
</event>
<event>
 6    1  0.1831439E-005  0.1792741E+04  0.7818608E-02  0.8710169E-01
          1   -1    0    0  501    0  0.00000000000E+00  0.00000000000E+00  0.20556310718E+04  0.20556310718E+04  0.00000000000E+00 0. -1.
         -1   -1    0    0    0  501 -0.00000000000E+00 -0.00000000000E+00 -0.39086778091E+03  0.39086778091E+03  0.00000000000E+00 0.  1.
         23    2    1    2    0    0  0.69261629879E+03 -0.12106031115E+03  0.15857330165E+04  0.17389547053E+04  0.12264310465E+03 0.  0.
         13    1    3    3    0    0  0.46612010038E+03 -0.43756100745E+02  0.93621167997E+03  0.10467448849E+04  0.00000000000E+00 0. -1.
        -13    1    3    3    0    0  0.22649619841E+03 -0.77304210405E+02  0.64952133650E+03  0.69220982036E+03  0.00000000000E+00 0.  1.
         22    1    1    2    0    0 -0.69261629879E+03  0.12106031115E+03  0.79030274392E+02  0.70754414743E+03  0.00000000000E+00 0.  1.
<mgrwt>
<rscale>  0 0.17927409E+04</rscale>
<asrwt>0</asrwt>
<pdfrwt beam="1">  1        1 0.31625093E+00 0.17927409E+04</pdfrwt>
<pdfrwt beam="2">  1       -1 0.60133506E-01 0.17927409E+04</pdfrwt>
<totfact> 0.72340083E+00</totfact>
</mgrwt>
</event>
<event>
 6    1  0.1831439E-005  0.2744349E+04  0.7818608E-02  0.8320757E-01
         -2   -1    0    0    0  501 -0.00000000000E+00  0.00000000000E+00  0.19567509794E+04  0.19567509794E+04  0.00000000000E+00 0.  1.
          2   -1    0    0  501    0  0.00000000000E+00 -0.00000000000E+00 -0.96223940234E+03  0.96223940234E+03  0.00000000000E+00 0. -1.
         23    2    1    2    0    0  0.64226455836E+03 -0.27931678795E+03  0.17506441800E+04  0.18883312993E+04  0.10255934880E+03 0.  0.
         11    1    3    3    0    0  0.23876283319E+03 -0.14847843552E+03  0.62154759546E+03  0.68218395594E+03  0.00000000000E+00 0. -1.
        -11    1    3    3    0    0  0.40350172517E+03 -0.13083835243E+03  0.11290965846E+04  0.12061473434E+04  0.00000000000E+00 0.  1.
         22    1    1    2    0    0 -0.64226455836E+03  0.27931678795E+03 -0.75613260295E+03  0.10306590824E+04  0.00000000000E+00 0. -1.
<mgrwt>
<rscale>  0 0.27443490E+04</rscale>
<asrwt>0</asrwt>
<pdfrwt beam="1">  1        2 0.14803683E+00 0.27443490E+04</pdfrwt>
<pdfrwt beam="2">  1       -2 0.30103861E+00 0.27443490E+04</pdfrwt>
<totfact> 0.72970002E-01</totfact>
</mgrwt>
</event>
<event>
 6    1  0.1831439E-005  0.3629854E+04  0.7818608E-02  0.8083687E-01
          1   -1    0    0  501    0  0.00000000000E+00  0.00000000000E+00  0.23374246380E+04  0.23374246380E+04  0.00000000000E+00 0. -1.
         -1   -1    0    0    0  501 -0.00000000000E+00 -0.00000000000E+00 -0.14092264164E+04  0.14092264164E+04  0.00000000000E+00 0.  1.
         23    2    1    2    0    0  0.26774478883E+03  0.15717399231E+04 -0.42816066105E+03  0.16533849279E+04  0.91140060183E+02 0.  0.
         11    1    3    3    0    0  0.90836968275E+02  0.32476337932E+03 -0.77526026715E+02  0.34602440980E+03  0.00000000000E+00 0. -1.
        -11    1    3    3    0    0  0.17690782056E+03  0.12469765437E+04 -0.35063463433E+03  0.13073605182E+04  0.00000000000E+00 0.  1.
         22    1    1    2    0    0 -0.26774478883E+03 -0.15717399231E+04  0.13563588826E+04  0.20932661265E+04  0.00000000000E+00 0. -1.
<mgrwt>
<rscale>  0 0.36298543E+04</rscale>
<asrwt>0</asrwt>
<pdfrwt beam="1">  1        1 0.35960379E+00 0.36298543E+04</pdfrwt>
<pdfrwt beam="2">  1       -1 0.21680407E+00 0.36298543E+04</pdfrwt>
<totfact> 0.16370748E-01</totfact>
</mgrwt>
</event>
<event>
 6    1  0.1831439E-005  0.4476686E+04  0.7818608E-02  0.7914731E-01
          2   -1    0    0  501    0  0.00000000000E+00  0.00000000000E+00  0.17337650965E+04  0.17337650965E+04  0.00000000000E+00 0. -1.
         -2   -1    0    0    0  501 -0.00000000000E+00 -0.00000000000E+00 -0.28897677620E+04  0.28897677620E+04  0.00000000000E+00 0.  1.
         23    2    1    2    0    0  0.22108941720E+04  0.16349887755E+03 -0.89024845734E+03  0.23907296380E+04  0.90889841424E+02 0.  0.
         11    1    3    3    0    0  0.14026075882E+04  0.93941991675E+02 -0.61028009257E+03  0.15325060964E+04  0.00000000000E+00 0. -1.
        -11    1    3    3    0    0  0.80828658381E+03  0.69556885875E+02 -0.27996836477E+03  0.85822354151E+03  0.00000000000E+00 0.  1.
         22    1    1    2    0    0 -0.22108941720E+04 -0.16349887755E+03 -0.26575420820E+03  0.22328032206E+04  0.00000000000E+00 0.  1.
<mgrwt>
<rscale>  0 0.44766856E+04</rscale>
<asrwt>0</asrwt>
<pdfrwt beam="1">  1        2 0.26673309E+00 0.44766856E+04</pdfrwt>
<pdfrwt beam="2">  1       -2 0.44457965E+00 0.44766856E+04</pdfrwt>
<totfact> 0.26904407E-02</totfact>
</mgrwt>
</event>
<event>
 6    1  0.1831439E-005  0.1709584E+04  0.7818608E-02  0.8755917E-01
          1   -1    0    0  501    0  0.00000000000E+00  0.00000000000E+00  0.58382564884E+03  0.58382564884E+03  0.00000000000E+00 0. -1.
         -1   -1    0    0    0  501 -0.00000000000E+00 -0.00000000000E+00 -0.12515201949E+04  0.12515201949E+04  0.00000000000E+00 0.  1.
         23    2    1    2    0    0  0.54601212712E+03  0.14202470556E+03  0.35108432851E+03  0.67078126623E+03  0.91580791965E+02 0.  0.
         11    1    3    3    0    0  0.32439050015E+03  0.13046314314E+03  0.21447168224E+03  0.41018036373E+03  0.00000000000E+00 0. -1.
        -11    1    3    3    0    0  0.22162162697E+03  0.11561562415E+02  0.13661264626E+03  0.26060090250E+03  0.00000000000E+00 0.  1.
         22    1    1    2    0    0 -0.54601212712E+03 -0.14202470556E+03 -0.10187788746E+04  0.11645645775E+04  0.00000000000E+00 0.  1.
<mgrwt>
<rscale>  0 0.17095843E+04</rscale>
<asrwt>0</asrwt>
<pdfrwt beam="1">  1        1 0.89819331E-01 0.17095843E+04</pdfrwt>
<pdfrwt beam="2">  1       -1 0.19254157E+00 0.17095843E+04</pdfrwt>
<totfact> 0.57439935E+00</totfact>
</mgrwt>
</event>
<event>
 6    1  0.1831439E-005  0.8403659E+03  0.7818608E-02  0.9503359E-01
         -2   -1    0    0    0  501 -0.00000000000E+00  0.00000000000E+00  0.15946510352E+03  0.15946510352E+03  0.00000000000E+00 0. -1.
          2   -1    0    0  501    0  0.00000000000E+00 -0.00000000000E+00 -0.11071621468E+04  0.11071621468E+04  0.00000000000E+00 0.  1.
         23    2    1    2    0    0  0.28866753156E+03 -0.32697827413E+02 -0.28106748494E+02  0.30223915316E+03  0.78488372998E+02 0.  0.
         13    1    3    3    0    0  0.22738960589E+03 -0.57517945083E+02 -0.27160257007E+02  0.23611867024E+03  0.00000000000E+00 0. -1.
        -13    1    3    3    0    0  0.61277925665E+02  0.24820117670E+02 -0.94649148700E+00  0.66120482917E+02  0.00000000000E+00 0.  1.
         22    1    1    2    0    0 -0.28866753156E+03  0.32697827413E+02 -0.91959029478E+03  0.96438809716E+03  0.00000000000E+00 0.  1.
<mgrwt>
<rscale>  0 0.84036594E+03</rscale>
<asrwt>0</asrwt>
<pdfrwt beam="1">  1        2 0.17033264E+00 0.84036594E+03</pdfrwt>
<pdfrwt beam="2">  1       -2 0.24533093E-01 0.84036594E+03</pdfrwt>
<totfact> 0.32106451E+02</totfact>
</mgrwt>
</event>
<event>
 6    1  0.1831439E-005  0.3868595E+04  0.7818608E-02  0.8031593E-01
          2   -1    0    0  501    0  0.00000000000E+00  0.00000000000E+00  0.22095742750E+04  0.22095742750E+04  0.00000000000E+00 0. -1.
         -2   -1    0    0    0  501 -0.00000000000E+00 -0.00000000000E+00 -0.16933155674E+04  0.16933155674E+04  0.00000000000E+00 0.  1.
         23    2    1    2    0    0 -0.11689025055E+03  0.77630363448E+03  0.20406169056E+04  0.21882532689E+04  0.89578737098E+02 0.  0.
         13    1    3    3    0    0 -0.46989040947E+02  0.27093746991E+03  0.60132560620E+03  0.66121673243E+03  0.00000000000E+00 0. -1.
        -13    1    3    3    0    0 -0.69901209604E+02  0.50536616457E+03  0.14392912994E+04  0.15270365365E+04  0.00000000000E+00 0.  1.
         22    1    1    2    0    0  0.11689025055E+03 -0.77630363448E+03 -0.15243581979E+04  0.17146365735E+04  0.00000000000E+00 0.  1.
<mgrwt>
<rscale>  0 0.38685948E+04</rscale>
<asrwt>0</asrwt>
<pdfrwt beam="1">  1        2 0.33993451E+00 0.38685948E+04</pdfrwt>
<pdfrwt beam="2">  1       -2 0.26051009E+00 0.38685948E+04</pdfrwt>
<totfact> 0.22526906E-01</totfact>
</mgrwt>
</event>
<event>
 6    1  0.1831439E-005  0.1246048E+04  0.7818608E-02  0.9073479E-01
          2   -1    0    0  501    0  0.00000000000E+00  0.00000000000E+00  0.28078412997E+04  0.28078412997E+04  0.00000000000E+00 0.  1.
         -2   -1    0    0    0  501 -0.00000000000E+00 -0.00000000000E+00 -0.13824103439E+03  0.13824103439E+03  0.00000000000E+00 0. -1.
         23    2    1    2    0    0 -0.25354994987E+03  0.34960415282E+03  0.29009356430E+03  0.52770213632E+03  0.88343805039E+02 0.  0.
         11    1    3    3    0    0 -0.22125552195E+03  0.33260389033E+03  0.28530097201E+03  0.49089306217E+03  0.00000000000E+00 0. -1.
        -11    1    3    3    0    0 -0.32294427920E+02  0.17000262487E+02  0.47925922862E+01  0.36809074155E+02  0.00000000000E+00 0.  1.
         22    1    1    2    0    0  0.25354994987E+03 -0.34960415282E+03  0.23795067010E+04  0.24183801978E+04  0.00000000000E+00 0.  1.
<mgrwt>
<rscale>  0 0.12460480E+04</rscale>
<asrwt>0</asrwt>
<pdfrwt beam="1">  1        2 0.43197554E+00 0.12460480E+04</pdfrwt>
<pdfrwt beam="2">  1       -2 0.21267854E-01 0.12460480E+04</pdfrwt>
<totfact> 0.43571022E+01</totfact>
</mgrwt>
</event>
<event>
 6    1  0.1831439E-005  0.9738334E+03  0.7818608E-02  0.9337719E-01
          2   -1    0    0  501    0  0.00000000000E+00  0.00000000000E+00  0.12642629558E+04  0.12642629558E+04  0.00000000000E+00 0. -1.
         -2   -1    0    0    0  501 -0.00000000000E+00 -0.00000000000E+00 -0.18753049377E+03  0.18753049377E+03  0.00000000000E+00 0.  1.
         23    2    1    2    0    0 -0.27113796649E+03  0.53319916127E+02 -0.46278843400E+02  0.29528439105E+03  0.93232665518E+02 0.  0.
         13    1    3    3    0    0 -0.24548251524E+03  0.15781106433E+02 -0.35297281351E+02  0.24850876580E+03  0.00000000000E+00 0. -1.
        -13    1    3    3    0    0 -0.25655451256E+02  0.37538809694E+02 -0.10981562049E+02  0.46775625249E+02  0.00000000000E+00 0.  1.
         22    1    1    2    0    0  0.27113796649E+03 -0.53319916127E+02  0.11230113054E+04  0.11565090585E+04  0.00000000000E+00 0. -1.
<mgrwt>
<rscale>  0 0.97383337E+03</rscale>
<asrwt>0</asrwt>
<pdfrwt beam="1">  1        2 0.19450199E+00 0.97383337E+03</pdfrwt>
<pdfrwt beam="2">  1       -2 0.28850846E-01 0.97383337E+03</pdfrwt>
<totfact> 0.19097041E+02</totfact>
</mgrwt>
</event>
<event>
 6    1  0.1831439E-005  0.1434446E+04  0.7818608E-02  0.8929255E-01
          1   -1    0    0  501    0  0.00000000000E+00  0.00000000000E+00  0.53265687295E+03  0.53265687295E+03  0.00000000000E+00 0. -1.
         -1   -1    0    0    0  501 -0.00000000000E+00 -0.00000000000E+00 -0.96574135911E+03  0.96574135911E+03  0.00000000000E+00 0.  1.
         23    2    1    2    0    0 -0.34460617954E+03  0.94023607806E+02 -0.86372435138E+03  0.93889438818E+03  0.88932891545E+02 0.  0.
         11    1    3    3    0    0 -0.20230807738E+03  0.91753463915E+02 -0.58894901304E+03  0.62945070997E+03  0.00000000000E+00 0. -1.
        -11    1    3    3    0    0 -0.14229810216E+03  0.22701438911E+01 -0.27477533833E+03  0.30944367821E+03  0.00000000000E+00 0.  1.
         22    1    1    2    0    0  0.34460617954E+03 -0.94023607806E+02  0.43063986521E+03  0.55950384387E+03  0.00000000000E+00 0. -1.
<mgrwt>
<rscale>  0 0.14344459E+04</rscale>
<asrwt>0</asrwt>
<pdfrwt beam="1">  1        1 0.81947211E-01 0.14344459E+04</pdfrwt>
<pdfrwt beam="2">  1       -1 0.14857559E+00 0.14344459E+04</pdfrwt>
<totfact> 0.14128680E+01</totfact>
</mgrwt>
</event>
<event>
 6    1  0.1831439E-005  0.1158256E+04  0.7818608E-02  0.9150200E-01
          3   -1    0    0  501    0  0.00000000000E+00  0.00000000000E+00  0.46901067164E+03  0.46901067164E+03  0.00000000000E+00 0. -1.
         -3   -1    0    0    0  501 -0.00000000000E+00 -0.00000000000E+00 -0.71509959292E+03  0.71509959292E+03  0.00000000000E+00 0.  1.
         23    2    1    2    0    0 -0.16319175909E+03  0.35185928504E+03  0.31143523236E+03  0.50494188440E+03  0.86821057147E+02 0.  0.
         11    1    3    3    0    0 -0.10505705235E+03  0.29161517658E+03  0.21495902185E+03  0.37720521807E+03  0.00000000000E+00 0.  1.
        -11    1    3    3    0    0 -0.58134706747E+02  0.60244108453E+02  0.96476210508E+02  0.12773666633E+03  0.00000000000E+00 0. -1.
         22    1    1    2    0    0  0.16319175909E+03 -0.35185928504E+03 -0.55752415364E+03  0.67916838015E+03  0.00000000000E+00 0.  1.
<mgrwt>
<rscale>  0 0.11582562E+04</rscale>
<asrwt>0</asrwt>
<pdfrwt beam="1">  1        3 0.72155488E-01 0.11582562E+04</pdfrwt>
<pdfrwt beam="2">  1       -3 0.11001532E+00 0.11582562E+04</pdfrwt>
<totfact> 0.33027165E+00</totfact>
</mgrwt>
</event>
<event>
 6    1  0.1831439E-005  0.2170887E+04  0.7818608E-02  0.8530644E-01
         -1   -1    0    0    0  501 -0.00000000000E+00  0.00000000000E+00  0.13529770261E+04  0.13529770261E+04  0.00000000000E+00 0.  1.
          1   -1    0    0  501    0  0.00000000000E+00 -0.00000000000E+00 -0.87081088342E+03  0.87081088342E+03  0.00000000000E+00 0. -1.
         23    2    1    2    0    0  0.84706458074E+03  0.13134001163E+03 -0.43734432886E+03  0.96670075666E+03  0.92041774961E+02 0.  0.
         11    1    3    3    0    0  0.18131905869E+03 -0.89291759115E+01 -0.10094124578E+03  0.20771486785E+03  0.00000000000E+00 0. -1.
        -11    1    3    3    0    0  0.66574552206E+03  0.14026918754E+03 -0.33640308308E+03  0.75898588881E+03  0.00000000000E+00 0.  1.
         22    1    1    2    0    0 -0.84706458074E+03 -0.13134001163E+03  0.91951047155E+03  0.12570871529E+04  0.00000000000E+00 0.  1.
<mgrwt>
<rscale>  0 0.21708866E+04</rscale>
<asrwt>0</asrwt>
<pdfrwt beam="1">  1        1 0.13397090E+00 0.21708866E+04</pdfrwt>
<pdfrwt beam="2">  1       -1 0.20815031E+00 0.21708866E+04</pdfrwt>
<totfact> 0.23268236E+00</totfact>
</mgrwt>
</event>
<event>
 6    1  0.1831439E-005  0.4200555E+04  0.7818608E-02  0.7965267E-01
          2   -1    0    0  501    0  0.00000000000E+00  0.00000000000E+00  0.30102349490E+04  0.30102349490E+04  0.00000000000E+00 0. -1.
         -2   -1    0    0    0  501 -0.00000000000E+00 -0.00000000000E+00 -0.14653889256E+04  0.14653889256E+04  0.00000000000E+00 0.  1.
         23    2    1    2    0    0  0.92973891525E+03 -0.40244389475E+03  0.27318259965E+04  0.29150800607E+04  0.91885505328E+02 0.  0.
         13    1    3    3    0    0  0.40358983841E+03 -0.12873354025E+03  0.11857987462E+04  0.12591964694E+04  0.00000000000E+00 0.  1.
        -13    1    3    3    0    0  0.52614907684E+03 -0.27371035450E+03  0.15460272503E+04  0.16558835912E+04  0.00000000000E+00 0. -1.
         22    1    1    2    0    0 -0.92973891525E+03  0.40244389475E+03 -0.11869799731E+04  0.15605438140E+04  0.00000000000E+00 0.  1.
<mgrwt>
<rscale>  0 0.42005547E+04</rscale>
<asrwt>0</asrwt>
<pdfrwt beam="1">  1        2 0.46311307E+00 0.42005547E+04</pdfrwt>
<pdfrwt beam="2">  1       -2 0.22544445E+00 0.42005547E+04</pdfrwt>
<totfact> 0.12153018E-01</totfact>
</mgrwt>
</event>
<event>
 6    1  0.2001975E-005  0.3882576E+04  0.7818608E-02  0.8028663E-01
         -2   -1    0    0    0  501 -0.00000000000E+00  0.00000000000E+00  0.11666007027E+04  0.11666007027E+04  0.00000000000E+00 0.  1.
          2   -1    0    0  501    0  0.00000000000E+00 -0.00000000000E+00 -0.32304105102E+04  0.32304105102E+04  0.00000000000E+00 0. -1.
         23    2    1    2    0    0 -0.19094383349E+04  0.31713827200E+03 -0.88112431630E+03  0.21286910395E+04  0.91728090173E+02 0.  0.
         11    1    3    3    0    0 -0.10250295753E+04  0.14597762382E+03 -0.42829770746E+03  0.11204615224E+04  0.00000000000E+00 0.  1.
        -11    1    3    3    0    0 -0.88440875958E+03  0.17116064819E+03 -0.45282660884E+03  0.10082295171E+04  0.00000000000E+00 0. -1.
         22    1    1    2    0    0  0.19094383349E+04 -0.31713827200E+03 -0.11826854912E+04  0.22683201735E+04  0.00000000000E+00 0.  1.
<mgrwt>
<rscale>  0 0.38825760E+04</rscale>
<asrwt>0</asrwt>
<pdfrwt beam="1">  1        2 0.49698623E+00 0.38825760E+04</pdfrwt>
<pdfrwt beam="2">  1       -2 0.17947703E+00 0.38825760E+04</pdfrwt>
<totfact> 0.18016719E-01</totfact>
</mgrwt>
</event>
<event>
 6    1  0.1831439E-005  0.3082650E+04  0.7818608E-02  0.8220516E-01
         -2   -1    0    0    0  501 -0.00000000000E+00  0.00000000000E+00  0.13763840708E+04  0.13763840708E+04  0.00000000000E+00 0. -1.
          2   -1    0    0  501    0  0.00000000000E+00 -0.00000000000E+00 -0.17260317737E+04  0.17260317737E+04  0.00000000000E+00 0.  1.
         23    2    1    2    0    0  0.47113073117E+03 -0.89679561497E+02 -0.16475756476E+04  0.17187166217E+04  0.97338180902E+02 0.  0.
         13    1    3    3    0    0  0.15841698421E+03 -0.95774344543E+00 -0.67166429340E+03  0.69009403793E+03  0.00000000000E+00 0. -1.
        -13    1    3    3    0    0  0.31271374696E+03 -0.88721818051E+02 -0.97591135417E+03  0.10286225837E+04  0.00000000000E+00 0.  1.
         22    1    1    2    0    0 -0.47113073117E+03  0.89679561497E+02  0.12979279447E+04  0.13836992228E+04  0.00000000000E+00 0. -1.
<mgrwt>
<rscale>  0 0.30826499E+04</rscale>
<asrwt>0</asrwt>
<pdfrwt beam="1">  1        2 0.26554335E+00 0.30826499E+04</pdfrwt>
<pdfrwt beam="2">  1       -2 0.21175140E+00 0.30826499E+04</pdfrwt>
<totfact> 0.89989471E-01</totfact>
</mgrwt>
</event>
<event>
 6    1  0.1831439E-005  0.1776270E+04  0.7818608E-02  0.8719021E-01
          2   -1    0    0  501    0  0.00000000000E+00  0.00000000000E+00  0.23716316288E+04  0.23716316288E+04  0.00000000000E+00 0. -1.
         -2   -1    0    0    0  501 -0.00000000000E+00 -0.00000000000E+00 -0.33259133879E+03  0.33259133879E+03  0.00000000000E+00 0.  1.
         23    2    1    2    0    0 -0.69692055683E+03 -0.54664675191E+03  0.10432574693E+04  0.13715173137E+04  0.90292084884E+02 0.  0.
         13    1    3    3    0    0 -0.35080158243E+03 -0.30358915986E+03  0.60587515760E+03  0.76309425029E+03  0.00000000000E+00 0. -1.
        -13    1    3    3    0    0 -0.34611897440E+03 -0.24305759204E+03  0.43738231166E+03  0.60842306337E+03  0.00000000000E+00 0.  1.
         22    1    1    2    0    0  0.69692055683E+03  0.54664675191E+03  0.99578282075E+03  0.13327056539E+04  0.00000000000E+00 0. -1.
<mgrwt>
<rscale>  0 0.17762704E+04</rscale>
<asrwt>0</asrwt>
<pdfrwt beam="1">  1        2 0.36486639E+00 0.17762704E+04</pdfrwt>
<pdfrwt beam="2">  1       -2 0.51167900E-01 0.17762704E+04</pdfrwt>
<totfact> 0.14101245E+01</totfact>
</mgrwt>
</event>
<event>
 6    1  0.1831439E-005  0.3011501E+04  0.7818608E-02  0.8240454E-01
         -2   -1    0    0    0  501 -0.00000000000E+00  0.00000000000E+00  0.11701992761E+04  0.11701992761E+04  0.00000000000E+00 0.  1.
          2   -1    0    0  501    0  0.00000000000E+00 -0.00000000000E+00 -0.19375206052E+04  0.19375206052E+04  0.00000000000E+00 0. -1.
         23    2    1    2    0    0 -0.31327180710E+03  0.10691091965E+04 -0.14272984419E+04  0.18128440229E+04  0.89938367336E+02 0.  0.
         11    1    3    3    0    0 -0.22525127763E+03  0.68561324159E+03 -0.86421620648E+03  0.11259099905E+04  0.00000000000E+00 0.  1.
        -11    1    3    3    0    0 -0.88020529475E+02  0.38349595494E+03 -0.56308223546E+03  0.68693403246E+03  0.00000000000E+00 0. -1.
         22    1    1    2    0    0  0.31327180710E+03 -0.10691091965E+04  0.65997711286E+03  0.12948758584E+04  0.00000000000E+00 0.  1.
<mgrwt>
<rscale>  0 0.30115014E+04</rscale>
<asrwt>0</asrwt>
<pdfrwt beam="1">  1        2 0.29808009E+00 0.30115014E+04</pdfrwt>
<pdfrwt beam="2">  1       -2 0.18003066E+00 0.30115014E+04</pdfrwt>
<totfact> 0.11219359E+00</totfact>
</mgrwt>
</event>
<event>
 6    1  0.1831439E-005  0.3989300E+04  0.7818608E-02  0.8006709E-01
          2   -1    0    0  501    0  0.00000000000E+00  0.00000000000E+00  0.23123398289E+04  0.23123398289E+04  0.00000000000E+00 0. -1.
         -2   -1    0    0    0  501 -0.00000000000E+00 -0.00000000000E+00 -0.17206073756E+04  0.17206073756E+04  0.00000000000E+00 0.  1.
         23    2    1    2    0    0  0.14790467598E+04  0.72163497090E+03 -0.84151358381E+03  0.18506249204E+04  0.91275052113E+02 0.  0.
         13    1    3    3    0    0  0.37181230661E+03  0.21910485086E+03 -0.24475508342E+03  0.49614148978E+03  0.00000000000E+00 0. -1.
        -13    1    3    3    0    0  0.11072344532E+04  0.50253012004E+03 -0.59675850039E+03  0.13544834306E+04  0.00000000000E+00 0.  1.
         22    1    1    2    0    0 -0.14790467598E+04 -0.72163497090E+03  0.14332460371E+04  0.21823222842E+04  0.00000000000E+00 0. -1.
<mgrwt>
<rscale>  0 0.39893002E+04</rscale>
<asrwt>0</asrwt>
<pdfrwt beam="1">  1        2 0.35574459E+00 0.39893002E+04</pdfrwt>
<pdfrwt beam="2">  1       -2 0.26470883E+00 0.39893002E+04</pdfrwt>
<totfact> 0.18392152E-01</totfact>
</mgrwt>
</event>
<event>
 6    1  0.1831439E-005  0.2825056E+04  0.7818608E-02  0.8295532E-01
         -2   -1    0    0    0  501 -0.00000000000E+00  0.00000000000E+00  0.12480925049E+04  0.12480925049E+04  0.00000000000E+00 0.  1.
          2   -1    0    0  501    0  0.00000000000E+00 -0.00000000000E+00 -0.15986275440E+04  0.15986275440E+04  0.00000000000E+00 0. -1.
         23    2    1    2    0    0  0.81009950787E+02 -0.93953228231E+03  0.88246226110E+03  0.12944424113E+04  0.86936714578E+02 0.  0.
         11    1    3    3    0    0  0.31612548897E+02 -0.10842132900E+03  0.82772408775E+02  0.14002074662E+03  0.00000000000E+00 0.  1.
        -11    1    3    3    0    0  0.49397401890E+02 -0.83111095331E+03  0.79968985232E+03  0.11544216647E+04  0.00000000000E+00 0. -1.
         22    1    1    2    0    0 -0.81009950787E+02  0.93953228231E+03 -0.12329973002E+04  0.15522776375E+04  0.00000000000E+00 0. -1.
<mgrwt>
<rscale>  0 0.28250558E+04</rscale>
<asrwt>0</asrwt>
<pdfrwt beam="1">  1        2 0.24594270E+00 0.28250558E+04</pdfrwt>
<pdfrwt beam="2">  1       -2 0.19201423E+00 0.28250558E+04</pdfrwt>
<totfact> 0.14578723E+00</totfact>
</mgrwt>
</event>
<event>
 6    1  0.1831439E-005  0.2333757E+04  0.7818608E-02  0.8464729E-01
         -1   -1    0    0    0  501 -0.00000000000E+00  0.00000000000E+00  0.85835586609E+03  0.85835586609E+03  0.00000000000E+00 0.  1.
          1   -1    0    0  501    0  0.00000000000E+00 -0.00000000000E+00 -0.15862948433E+04  0.15862948433E+04  0.00000000000E+00 0. -1.
         23    2    1    2    0    0  0.80960590541E+03 -0.22963151808E+03  0.47944027266E+03  0.97293164341E+03  0.92415645441E+02 0.  0.
         11    1    3    3    0    0  0.36728140003E+03 -0.59706556390E+02  0.19191403063E+03  0.41867827127E+03  0.00000000000E+00 0.  1.
        -11    1    3    3    0    0  0.44232450539E+03 -0.16992496169E+03  0.28752624203E+03  0.55425337214E+03  0.00000000000E+00 0. -1.
         22    1    1    2    0    0 -0.80960590541E+03  0.22963151808E+03 -0.12073792499E+04  0.14717190660E+04  0.00000000000E+00 0. -1.
<mgrwt>
<rscale>  0 0.23337570E+04</rscale>
<asrwt>0</asrwt>
<pdfrwt beam="1">  1        1 0.24404536E+00 0.23337570E+04</pdfrwt>
<pdfrwt beam="2">  1       -1 0.13205475E+00 0.23337570E+04</pdfrwt>
<totfact> 0.25047526E+00</totfact>
</mgrwt>
</event>
<event>
 6    1  0.1831439E-005  0.2769384E+04  0.7818608E-02  0.8312837E-01
          2   -1    0    0  501    0  0.00000000000E+00  0.00000000000E+00  0.24666040356E+04  0.24666040356E+04  0.00000000000E+00 0. -1.
         -2   -1    0    0    0  501 -0.00000000000E+00 -0.00000000000E+00 -0.77733242430E+03  0.77733242430E+03  0.00000000000E+00 0.  1.
         23    2    1    2    0    0 -0.63660394651E+03 -0.98969406197E+02  0.22792493311E+04  0.23703614843E+04  0.92609529874E+02 0.  0.
         13    1    3    3    0    0 -0.16150389520E+03 -0.36907873016E+02  0.73740107781E+03  0.75578174681E+03  0.00000000000E+00 0.  1.
        -13    1    3    3    0    0 -0.47510005130E+03 -0.62061533181E+02  0.15418482533E+04  0.16145797375E+04  0.00000000000E+00 0. -1.
         22    1    1    2    0    0  0.63660394651E+03  0.98969406197E+02 -0.58997771980E+03  0.87357497557E+03  0.00000000000E+00 0.  1.
<mgrwt>
<rscale>  0 0.27693835E+04</rscale>
<asrwt>0</asrwt>
<pdfrwt beam="1">  1        2 0.37947754E+00 0.27693835E+04</pdfrwt>
<pdfrwt beam="2">  1       -2 0.11958961E+00 0.27693835E+04</pdfrwt>
<totfact> 0.16999763E+00</totfact>
</mgrwt>
</event>
<event>
 6    1  0.1831439E-005  0.1420289E+04  0.7818608E-02  0.8939262E-01
         -2   -1    0    0    0  501 -0.00000000000E+00  0.00000000000E+00  0.64002597254E+03  0.64002597254E+03  0.00000000000E+00 0.  1.
          2   -1    0    0  501    0  0.00000000000E+00 -0.00000000000E+00 -0.78794451700E+03  0.78794451700E+03  0.00000000000E+00 0. -1.
         23    2    1    2    0    0 -0.38166241970E+03 -0.20342270885E+03 -0.63717583632E+03  0.77496229760E+03  0.86755491009E+02 0.  0.
         13    1    3    3    0    0 -0.18717086679E+03 -0.68105184381E+02 -0.23369637863E+03  0.30705902836E+03  0.00000000000E+00 0.  1.
        -13    1    3    3    0    0 -0.19449155291E+03 -0.13531752447E+03 -0.40347945770E+03  0.46790326924E+03  0.00000000000E+00 0. -1.
         22    1    1    2    0    0  0.38166241970E+03  0.20342270885E+03  0.48925729187E+03  0.65300819194E+03  0.00000000000E+00 0.  1.
<mgrwt>
<rscale>  0 0.14202886E+04</rscale>
<asrwt>0</asrwt>
<pdfrwt beam="1">  1        2 0.12122223E+00 0.14202886E+04</pdfrwt>
<pdfrwt beam="2">  1       -2 0.98465534E-01 0.14202886E+04</pdfrwt>
<totfact> 0.29274445E+01</totfact>
</mgrwt>
</event>
<event>
 6    1  0.1831439E-005  0.2231951E+04  0.7818608E-02  0.8505246E-01
          1   -1    0    0  501    0  0.00000000000E+00  0.00000000000E+00  0.24944365261E+04  0.24944365261E+04  0.00000000000E+00 0. -1.
         -1   -1    0    0    0  501 -0.00000000000E+00 -0.00000000000E+00 -0.49927141631E+03  0.49927141631E+03  0.00000000000E+00 0.  1.
         23    2    1    2    0    0 -0.63164867976E+03 -0.77902298442E+03  0.34849213376E+03  0.10656548428E+04  0.91195459283E+02 0.  0.
         13    1    3    3    0    0 -0.20757657359E+03 -0.19852570505E+03  0.12036424461E+03  0.31142903020E+03  0.00000000000E+00 0.  1.
        -13    1    3    3    0    0 -0.42407210617E+03 -0.58049727938E+03  0.22812788915E+03  0.75422581261E+03  0.00000000000E+00 0. -1.
         22    1    1    2    0    0  0.63164867976E+03  0.77902298442E+03  0.16466729761E+04  0.19280530996E+04  0.00000000000E+00 0. -1.
<mgrwt>
<rscale>  0 0.22319506E+04</rscale>
<asrwt>0</asrwt>
<pdfrwt beam="1">  1        1 0.38375946E+00 0.22319506E+04</pdfrwt>
<pdfrwt beam="2">  1       -1 0.76810989E-01 0.22319506E+04</pdfrwt>
<totfact> 0.21131320E+00</totfact>
</mgrwt>
</event>
<event>
 6    1  0.1831439E-005  0.2580771E+04  0.7818608E-02  0.8374762E-01
         -3   -1    0    0    0  501 -0.00000000000E+00  0.00000000000E+00  0.42235077623E+04  0.42235077623E+04  0.00000000000E+00 0.  1.
          3   -1    0    0  501    0  0.00000000000E+00 -0.00000000000E+00 -0.39424435710E+03  0.39424435710E+03  0.00000000000E+00 0. -1.
         23    2    1    2    0    0 -0.21945750650E+03 -0.81591300272E+03  0.36583963422E+04  0.37557363548E+04  0.88408964223E+02 0.  0.
         11    1    3    3    0    0 -0.37083618428E+02 -0.55460040963E+02  0.24669818968E+03  0.25556018409E+03  0.00000000000E+00 0.  1.
        -11    1    3    3    0    0 -0.18237388807E+03 -0.76045296175E+03  0.34116981526E+04  0.35001761708E+04  0.00000000000E+00 0. -1.
         22    1    1    2    0    0  0.21945750650E+03  0.81591300272E+03  0.17086706297E+03  0.86201576457E+03  0.00000000000E+00 0. -1.
<mgrwt>
<rscale>  0 0.25807705E+04</rscale>
<asrwt>0</asrwt>
<pdfrwt beam="1">  1        3 0.60652981E-01 0.25807705E+04</pdfrwt>
<pdfrwt beam="2">  1       -3 0.64977039E+00 0.25807705E+04</pdfrwt>
<totfact> 0.29509546E-03</totfact>
</mgrwt>
</event>
<event>
 6    1  0.1831439E-005  0.4925695E+03  0.7818608E-02  0.1015737E+00
         -1   -1    0    0    0  501 -0.00000000000E+00  0.00000000000E+00  0.45915571445E+02  0.45915571445E+02  0.00000000000E+00 0.  1.
          1   -1    0    0  501    0  0.00000000000E+00 -0.00000000000E+00 -0.13210371320E+04  0.13210371320E+04  0.00000000000E+00 0. -1.
         23    2    1    2    0    0 -0.69561447081E+02  0.22403420999E+03 -0.76963124648E+03  0.80968205125E+03  0.90678809000E+02 0.  0.
         11    1    3    3    0    0 -0.31297277957E+02  0.76240464432E+02 -0.14618676300E+03  0.16781745351E+03  0.00000000000E+00 0. -1.
        -11    1    3    3    0    0 -0.38264169124E+02  0.14779374556E+03 -0.62344448348E+03  0.64186459775E+03  0.00000000000E+00 0.  1.
         22    1    1    2    0    0  0.69561447081E+02 -0.22403420999E+03 -0.50549031406E+03  0.55727065217E+03  0.00000000000E+00 0. -1.
<mgrwt>
<rscale>  0 0.49256949E+03</rscale>
<asrwt>0</asrwt>
<pdfrwt beam="1">  1        1 0.20323651E+00 0.49256949E+03</pdfrwt>
<pdfrwt beam="2">  1       -1 0.70639332E-02 0.49256949E+03</pdfrwt>
<totfact> 0.97395522E+02</totfact>
</mgrwt>
</event>
<event>
 6    1  0.1831439E-005  0.1186601E+04  0.7818608E-02  0.9124666E-01
         -2   -1    0    0    0  501 -0.00000000000E+00  0.00000000000E+00  0.39047089803E+03  0.39047089803E+03  0.00000000000E+00 0.  1.
          2   -1    0    0  501    0  0.00000000000E+00 -0.00000000000E+00 -0.90148967899E+03  0.90148967899E+03  0.00000000000E+00 0. -1.
         23    2    1    2    0    0 -0.44650017057E+03  0.33605476132E+03 -0.46219813035E+03  0.73099831373E+03  0.91848887037E+02 0.  0.
         11    1    3    3    0    0 -0.16010170579E+03  0.10689889494E+03 -0.21548731584E+03  0.28895451757E+03  0.00000000000E+00 0. -1.
        -11    1    3    3    0    0 -0.28639846478E+03  0.22915586638E+03 -0.24671081451E+03  0.44204379616E+03  0.00000000000E+00 0.  1.
         22    1    1    2    0    0  0.44650017057E+03 -0.33605476132E+03 -0.48820650611E+02  0.56096226330E+03  0.00000000000E+00 0.  1.
<mgrwt>
<rscale>  0 0.11866010E+04</rscale>
<asrwt>0</asrwt>
<pdfrwt beam="1">  1        2 0.13869072E+00 0.11866010E+04</pdfrwt>
<pdfrwt beam="2">  1       -2 0.60072447E-01 0.11866010E+04</pdfrwt>
<totfact> 0.74649993E+01</totfact>
</mgrwt>
</event>
<event>
 6    1  0.1831439E-005  0.1331009E+04  0.7818608E-02  0.9005330E-01
         -1   -1    0    0    0  501 -0.00000000000E+00  0.00000000000E+00  0.43161924130E+03  0.43161924130E+03  0.00000000000E+00 0.  1.
          1   -1    0    0  501    0  0.00000000000E+00 -0.00000000000E+00 -0.10261268479E+04  0.10261268479E+04  0.00000000000E+00 0. -1.
         23    2    1    2    0    0  0.63702666961E+03 -0.33279305509E+02 -0.10434101648E+03  0.65327497348E+03  0.94713532720E+02 0.  0.
         13    1    3    3    0    0  0.91852439730E+02 -0.24693389455E+02 -0.43696212710E+02  0.10467088025E+03  0.00000000000E+00 0. -1.
        -13    1    3    3    0    0  0.54517422988E+03 -0.85859160535E+01 -0.60644803769E+02  0.54860409323E+03  0.00000000000E+00 0.  1.
         22    1    1    2    0    0 -0.63702666961E+03  0.33279305509E+02 -0.49016659015E+03  0.80447111575E+03  0.00000000000E+00 0. -1.
<mgrwt>
<rscale>  0 0.13310088E+04</rscale>
<asrwt>0</asrwt>
<pdfrwt beam="1">  1        1 0.15786567E+00 0.13310088E+04</pdfrwt>
<pdfrwt beam="2">  1       -1 0.66402960E-01 0.13310088E+04</pdfrwt>
<totfact> 0.32529264E+01</totfact>
</mgrwt>
</event>
<event>
 6    1  0.1831439E-005  0.2812030E+04  0.7818608E-02  0.8299543E-01
          2   -1    0    0  501    0  0.00000000000E+00  0.00000000000E+00  0.27038113076E+04  0.27038113076E+04  0.00000000000E+00 0. -1.
         -2   -1    0    0    0  501 -0.00000000000E+00 -0.00000000000E+00 -0.73114522300E+03  0.73114522300E+03  0.00000000000E+00 0.  1.
         23    2    1    2    0    0 -0.75116657061E+03  0.32643941651E+03 -0.40641445355E+03  0.91884085034E+03  0.91004894143E+02 0.  0.
         11    1    3    3    0    0 -0.56160397399E+03  0.21828570424E+03 -0.33388343854E+03  0.68885834742E+03  0.00000000000E+00 0.  1.
        -11    1    3    3    0    0 -0.18956259662E+03  0.10815371227E+03 -0.72531015014E+02  0.22998250293E+03  0.00000000000E+00 0. -1.
         22    1    1    2    0    0  0.75116657061E+03 -0.32643941651E+03  0.23790805381E+04  0.25161156803E+04  0.00000000000E+00 0. -1.
<mgrwt>
<rscale>  0 0.28120304E+04</rscale>
<asrwt>0</asrwt>
<pdfrwt beam="1">  1        2 0.41597096E+00 0.28120304E+04</pdfrwt>
<pdfrwt beam="2">  1       -2 0.11248388E+00 0.28120304E+04</pdfrwt>
<totfact> 0.14286300E+00</totfact>
</mgrwt>
</event>
<event>
 6    1  0.1831439E-005  0.2329929E+04  0.7818608E-02  0.8466213E-01
         -1   -1    0    0    0  501 -0.00000000000E+00  0.00000000000E+00  0.10706268522E+04  0.10706268522E+04  0.00000000000E+00 0.  1.
          1   -1    0    0  501    0  0.00000000000E+00 -0.00000000000E+00 -0.12676142134E+04  0.12676142134E+04  0.00000000000E+00 0. -1.
         23    2    1    2    0    0 -0.56443798972E+03  0.37945158794E+03  0.84856463858E+03  0.10909428911E+04  0.86721935262E+02 0.  0.
         11    1    3    3    0    0 -0.35151141661E+03  0.20545770643E+03  0.45159675529E+03  0.60804010931E+03  0.00000000000E+00 0.  1.
        -11    1    3    3    0    0 -0.21292657310E+03  0.17399388151E+03  0.39696788328E+03  0.48290278183E+03  0.00000000000E+00 0. -1.
         22    1    1    2    0    0  0.56443798972E+03 -0.37945158794E+03 -0.10455519998E+04  0.12472981745E+04  0.00000000000E+00 0. -1.
<mgrwt>
<rscale>  0 0.23299286E+04</rscale>
<asrwt>0</asrwt>
<pdfrwt beam="1">  1        1 0.19501757E+00 0.23299286E+04</pdfrwt>
<pdfrwt beam="2">  1       -1 0.16471182E+00 0.23299286E+04</pdfrwt>
<totfact> 0.23173129E+00</totfact>
</mgrwt>
</event>
<event>
 6    1  0.1831439E-005  0.1851074E+04  0.7818608E-02  0.8679601E-01
          2   -1    0    0  501    0  0.00000000000E+00  0.00000000000E+00  0.11758782963E+04  0.11758782963E+04  0.00000000000E+00 0. -1.
         -2   -1    0    0    0  501 -0.00000000000E+00 -0.00000000000E+00 -0.72849252052E+03  0.72849252052E+03  0.00000000000E+00 0.  1.
         23    2    1    2    0    0  0.33499643988E+03  0.42056419778E+03  0.99641152726E+03  0.11359138337E+04  0.91473748779E+02 0.  0.
         13    1    3    3    0    0  0.70098780030E+02  0.12310010885E+03  0.33661342976E+03  0.36520689596E+03  0.00000000000E+00 0. -1.
        -13    1    3    3    0    0  0.26489765985E+03  0.29746408893E+03  0.65979809749E+03  0.77070693772E+03  0.00000000000E+00 0.  1.
         22    1    1    2    0    0 -0.33499643988E+03 -0.42056419778E+03 -0.54902575147E+03  0.76845698316E+03  0.00000000000E+00 0.  1.
<mgrwt>
<rscale>  0 0.18510738E+04</rscale>
<asrwt>0</asrwt>
<pdfrwt beam="1">  1        2 0.18090435E+00 0.18510738E+04</pdfrwt>
<pdfrwt beam="2">  1       -2 0.11207577E+00 0.18510738E+04</pdfrwt>
<totfact> 0.11562685E+01</totfact>
</mgrwt>
</event>
<event>
 6    1  0.1831439E-005  0.3742702E+04  0.7818608E-02  0.8058564E-01
         -2   -1    0    0    0  501 -0.00000000000E+00  0.00000000000E+00  0.12059304045E+04  0.12059304045E+04  0.00000000000E+00 0.  1.
          2   -1    0    0  501    0  0.00000000000E+00 -0.00000000000E+00 -0.29039436376E+04  0.29039436376E+04  0.00000000000E+00 0. -1.
         23    2    1    2    0    0  0.72660570275E+03 -0.17127864508E+04 -0.64080294465E+03  0.19699472052E+04  0.92034255729E+02 0.  0.
         13    1    3    3    0    0  0.57640153591E+03 -0.12671226354E+04 -0.46003408877E+03  0.14661070447E+04  0.00000000000E+00 0. -1.
        -13    1    3    3    0    0  0.15020416684E+03 -0.44566381537E+03 -0.18076885589E+03  0.50384016050E+03  0.00000000000E+00 0.  1.
         22    1    1    2    0    0 -0.72660570275E+03  0.17127864508E+04 -0.10572102885E+04  0.21399268369E+04  0.00000000000E+00 0. -1.
<mgrwt>
<rscale>  0 0.37427017E+04</rscale>
<asrwt>0</asrwt>
<pdfrwt beam="1">  1        2 0.44676056E+00 0.37427017E+04</pdfrwt>
<pdfrwt beam="2">  1       -2 0.18552775E+00 0.37427017E+04</pdfrwt>
<totfact> 0.26730836E-01</totfact>
</mgrwt>
</event>
<event>
 6    1  0.1831439E-005  0.1058933E+04  0.7818608E-02  0.9246169E-01
          2   -1    0    0  501    0  0.00000000000E+00  0.00000000000E+00  0.85044163982E+03  0.85044163982E+03  0.00000000000E+00 0. -1.
         -2   -1    0    0    0  501 -0.00000000000E+00 -0.00000000000E+00 -0.32963453511E+03  0.32963453511E+03  0.00000000000E+00 0.  1.
         23    2    1    2    0    0 -0.33545535605E+03 -0.79495064032E+02  0.70680648981E+03  0.78835493174E+03  0.55482639167E+02 0.  0.
         13    1    3    3    0    0 -0.22323648300E+02 -0.88655680026E+01  0.88341416472E+02  0.91548617868E+02  0.00000000000E+00 0. -1.
        -13    1    3    3    0    0 -0.31313170775E+03 -0.70629496029E+02  0.61846507334E+03  0.69680631387E+03  0.00000000000E+00 0.  1.
         22    1    1    2    0    0  0.33545535605E+03  0.79495064032E+02 -0.18599938509E+03  0.39172124319E+03  0.00000000000E+00 0.  1.
<mgrwt>
<rscale>  0 0.10589333E+04</rscale>
<asrwt>0</asrwt>
<pdfrwt beam="1">  1        2 0.13083718E+00 0.10589333E+04</pdfrwt>
<pdfrwt beam="2">  1       -2 0.50713005E-01 0.10589333E+04</pdfrwt>
<totfact> 0.11603335E+02</totfact>
</mgrwt>
</event>
<event>
 6    1  0.1831439E-005  0.3069734E+04  0.7818608E-02  0.8224094E-01
         -2   -1    0    0    0  501 -0.00000000000E+00  0.00000000000E+00  0.74031077617E+03  0.74031077617E+03  0.00000000000E+00 0.  1.
          2   -1    0    0  501    0  0.00000000000E+00 -0.00000000000E+00 -0.31821999964E+04  0.31821999964E+04  0.00000000000E+00 0. -1.
         23    2    1    2    0    0  0.29175748043E+03 -0.15041280016E+04 -0.12061054280E+04  0.19540888021E+04  0.12747262680E+03 0.  0.
         11    1    3    3    0    0  0.27876500977E+03 -0.14836741381E+04 -0.12015439520E+04  0.19294317161E+04  0.00000000000E+00 0. -1.
        -11    1    3    3    0    0  0.12992470662E+02 -0.20453863479E+02 -0.45614760283E+01  0.24657085973E+02  0.00000000000E+00 0.  1.
         22    1    1    2    0    0 -0.29175748043E+03  0.15041280016E+04 -0.12357837922E+04  0.19684219704E+04  0.00000000000E+00 0.  1.
<mgrwt>
<rscale>  0 0.30697342E+04</rscale>
<asrwt>0</asrwt>
<pdfrwt beam="1">  1        2 0.48956923E+00 0.30697342E+04</pdfrwt>
<pdfrwt beam="2">  1       -2 0.11389397E+00 0.30697342E+04</pdfrwt>
<totfact> 0.68384262E-01</totfact>
</mgrwt>
</event>
<event>
 6    1  0.1831439E-005  0.5814167E+04  0.7818608E-02  0.7713880E-01
         -2   -1    0    0    0  501 -0.00000000000E+00  0.00000000000E+00  0.18788521563E+04  0.18788521563E+04  0.00000000000E+00 0. -1.
          2   -1    0    0  501    0  0.00000000000E+00 -0.00000000000E+00 -0.44980301932E+04  0.44980301932E+04  0.00000000000E+00 0.  1.
         23    2    1    2    0    0 -0.93887983305E+03  0.21312686888E+04 -0.32169204848E+04  0.39724910338E+04  0.91137496631E+02 0.  0.
         13    1    3    3    0    0 -0.57876017588E+03  0.12954288417E+04 -0.18845397360E+04  0.23589381598E+04  0.00000000000E+00 0. -1.
        -13    1    3    3    0    0 -0.36011965717E+03  0.83583984713E+03 -0.13323807488E+04  0.16135528741E+04  0.00000000000E+00 0.  1.
         22    1    1    2    0    0  0.93887983305E+03 -0.21312686888E+04  0.59774244791E+03  0.24043913156E+04  0.00000000000E+00 0. -1.
<mgrwt>
<rscale>  0 0.58141667E+04</rscale>
<asrwt>0</asrwt>
<pdfrwt beam="1">  1        2 0.69200464E+00 0.58141667E+04</pdfrwt>
<pdfrwt beam="2">  1       -2 0.28905418E+00 0.58141667E+04</pdfrwt>
<totfact> 0.30944103E-03</totfact>
</mgrwt>
</event>
<event>
 6    1  0.1831439E-005  0.1609025E+04  0.7818608E-02  0.8815023E-01
          2   -1    0    0  501    0  0.00000000000E+00  0.00000000000E+00  0.23323075241E+04  0.23323075241E+04  0.00000000000E+00 0. -1.
         -2   -1    0    0    0  501 -0.00000000000E+00 -0.00000000000E+00 -0.27751064912E+03  0.27751064912E+03  0.00000000000E+00 0.  1.
         23    2    1    2    0    0  0.26805068408E+03 -0.54517075976E+03  0.18105166228E+03  0.64005081421E+03  0.88447802773E+02 0.  0.
         13    1    3    3    0    0  0.16131978858E+03 -0.24872736791E+03  0.11591251869E+03  0.31831602179E+03  0.00000000000E+00 0.  1.
        -13    1    3    3    0    0  0.10673089550E+03 -0.29644339185E+03  0.65139143591E+02  0.32173479242E+03  0.00000000000E+00 0. -1.
         22    1    1    2    0    0 -0.26805068408E+03  0.54517075976E+03  0.18737452127E+04  0.19697673590E+04  0.00000000000E+00 0. -1.
<mgrwt>
<rscale>  0 0.16090248E+04</rscale>
<asrwt>0</asrwt>
<pdfrwt beam="1">  1        2 0.35881653E+00 0.16090248E+04</pdfrwt>
<pdfrwt beam="2">  1       -2 0.42693948E-01 0.16090248E+04</pdfrwt>
<totfact> 0.21686431E+01</totfact>
</mgrwt>
</event>
<event>
 6    1  0.1831439E-005  0.3783824E+04  0.7818608E-02  0.8049635E-01
         -2   -1    0    0    0  501 -0.00000000000E+00  0.00000000000E+00  0.44251061441E+04  0.44251061441E+04  0.00000000000E+00 0.  1.
          2   -1    0    0  501    0  0.00000000000E+00 -0.00000000000E+00 -0.80886903067E+03  0.80886903067E+03  0.00000000000E+00 0. -1.
         23    2    1    2    0    0  0.31451527937E+03  0.18484767685E+04  0.14783608067E+04  0.23903329104E+04  0.11115090312E+03 0.  0.
         11    1    3    3    0    0  0.13119435650E+03  0.58282710402E+03  0.52353910324E+03  0.79435041699E+03  0.00000000000E+00 0. -1.
        -11    1    3    3    0    0  0.18332092287E+03  0.12656496645E+04  0.95482170346E+03  0.15959824934E+04  0.00000000000E+00 0.  1.
         22    1    1    2    0    0 -0.31451527937E+03 -0.18484767685E+04  0.21378763067E+04  0.28436422644E+04  0.00000000000E+00 0. -1.
<mgrwt>
<rscale>  0 0.37838242E+04</rscale>
<asrwt>0</asrwt>
<pdfrwt beam="1">  1        2 0.12444139E+00 0.37838242E+04</pdfrwt>
<pdfrwt beam="2">  1       -2 0.68078555E+00 0.37838242E+04</pdfrwt>
<totfact> 0.72053899E-03</totfact>
</mgrwt>
</event>
<event>
 6    1  0.1831439E-005  0.7448029E+03  0.7818608E-02  0.9643539E-01
          2   -1    0    0  501    0  0.00000000000E+00  0.00000000000E+00  0.85428500071E+03  0.85428500071E+03  0.00000000000E+00 0. -1.
         -2   -1    0    0    0  501 -0.00000000000E+00 -0.00000000000E+00 -0.16233790492E+03  0.16233790492E+03  0.00000000000E+00 0.  1.
         23    2    1    2    0    0  0.10410591029E+03 -0.25170093133E+03  0.68646323654E+03  0.74418672576E+03  0.91600809450E+02 0.  0.
         13    1    3    3    0    0  0.11551396425E+03 -0.18759996193E+03  0.56377639562E+03  0.60529418130E+03  0.00000000000E+00 0. -1.
        -13    1    3    3    0    0 -0.11408053965E+02 -0.64100969400E+02  0.12268684091E+03  0.13889254446E+03  0.00000000000E+00 0.  1.
         22    1    1    2    0    0 -0.10410591029E+03  0.25170093133E+03  0.54838592518E+01  0.27243617987E+03  0.00000000000E+00 0.  1.
<mgrwt>
<rscale>  0 0.74480289E+03</rscale>
<asrwt>0</asrwt>
<pdfrwt beam="1">  1        2 0.13142846E+00 0.74480289E+03</pdfrwt>
<pdfrwt beam="2">  1       -2 0.24975063E-01 0.74480289E+03</pdfrwt>
<totfact> 0.45513477E+02</totfact>
</mgrwt>
</event>
<event>
 6    1  0.1831439E-005  0.2032330E+04  0.7818608E-02  0.8591653E-01
         -2   -1    0    0    0  501 -0.00000000000E+00  0.00000000000E+00  0.35684605496E+03  0.35684605496E+03  0.00000000000E+00 0.  1.
          2   -1    0    0  501    0  0.00000000000E+00 -0.00000000000E+00 -0.28936612661E+04  0.28936612661E+04  0.00000000000E+00 0. -1.
         23    2    1    2    0    0 -0.31769948109E+03  0.41911012104E+03 -0.26586190009E+04  0.27106717747E+04  0.53853732579E+02 0.  0.
         13    1    3    3    0    0 -0.23483570519E+03  0.32694330841E+03 -0.19223769146E+04  0.19640704511E+04  0.00000000000E+00 0. -1.
        -13    1    3    3    0    0 -0.82863775899E+02  0.92166812623E+02 -0.73624208635E+03  0.74660132361E+03  0.00000000000E+00 0.  1.
         22    1    1    2    0    0  0.31769948109E+03 -0.41911012104E+03  0.12180378980E+03  0.53983554630E+03  0.00000000000E+00 0.  1.
<mgrwt>
<rscale>  0 0.20323303E+04</rscale>
<asrwt>0</asrwt>
<pdfrwt beam="1">  1        2 0.44517864E+00 0.20323303E+04</pdfrwt>
<pdfrwt beam="2">  1       -2 0.54899395E-01 0.20323303E+04</pdfrwt>
<totfact> 0.58725128E+00</totfact>
</mgrwt>
</event>
<event>
 6    1  0.1831439E-005  0.5059335E+04  0.7818608E-02  0.7819419E-01
         -1   -1    0    0    0  501 -0.00000000000E+00  0.00000000000E+00  0.25182884974E+04  0.25182884974E+04  0.00000000000E+00 0.  1.
          1   -1    0    0  501    0  0.00000000000E+00 -0.00000000000E+00 -0.25410983935E+04  0.25410983935E+04  0.00000000000E+00 0. -1.
         23    2    1    2    0    0 -0.89546883163E+03 -0.15281452841E+04 -0.18161503610E+04  0.25388388431E+04  0.10103513987E+03 0.  0.
         13    1    3    3    0    0 -0.72188436544E+03 -0.12822014034E+04 -0.14663229100E+04  0.20773204742E+04  0.00000000000E+00 0. -1.
        -13    1    3    3    0    0 -0.17358446619E+03 -0.24594388071E+03 -0.34982745103E+03  0.46151836892E+03  0.00000000000E+00 0.  1.
         22    1    1    2    0    0  0.89546883163E+03  0.15281452841E+04  0.17933404650E+04  0.25205480478E+04  0.00000000000E+00 0.  1.
<mgrwt>
<rscale>  0 0.50593355E+04</rscale>
<asrwt>0</asrwt>
<pdfrwt beam="1">  1        1 0.39093822E+00 0.50593355E+04</pdfrwt>
<pdfrwt beam="2">  1       -1 0.38742900E+00 0.50593355E+04</pdfrwt>
<totfact> 0.79450027E-03</totfact>
</mgrwt>
</event>
<event>
 6    1  0.1831439E-005  0.5413119E+04  0.7818608E-02  0.7767758E-01
         -1   -1    0    0    0  501 -0.00000000000E+00  0.00000000000E+00  0.25159566870E+04  0.25159566870E+04  0.00000000000E+00 0.  1.
          1   -1    0    0  501    0  0.00000000000E+00 -0.00000000000E+00 -0.29116022869E+04  0.29116022869E+04  0.00000000000E+00 0. -1.
         23    2    1    2    0    0 -0.14364271545E+04  0.27735516755E+02 -0.24968509383E+04  0.28821403241E+04  0.91520545027E+02 0.  0.
         11    1    3    3    0    0 -0.11122770973E+04  0.24087668584E+02 -0.20071966261E+04  0.22949027981E+04  0.00000000000E+00 0. -1.
        -11    1    3    3    0    0 -0.32415005718E+03  0.36478481712E+01 -0.48965431226E+03  0.58723752595E+03  0.00000000000E+00 0.  1.
         22    1    1    2    0    0  0.14364271545E+04 -0.27735516755E+02  0.21012053384E+04  0.25454186499E+04  0.00000000000E+00 0.  1.
<mgrwt>
<rscale>  0 0.54131193E+04</rscale>
<asrwt>0</asrwt>
<pdfrwt beam="1">  1        1 0.44793881E+00 0.54131193E+04</pdfrwt>
<pdfrwt beam="2">  1       -1 0.38707026E+00 0.54131193E+04</pdfrwt>
<totfact> 0.42455805E-03</totfact>
</mgrwt>
</event>
<event>
 6    1  0.1831439E-005  0.1172421E+04  0.7818608E-02  0.9137344E-01
          1   -1    0    0  501    0  0.00000000000E+00  0.00000000000E+00  0.85573689779E+03  0.85573689779E+03  0.00000000000E+00 0. -1.
         -1   -1    0    0    0  501 -0.00000000000E+00 -0.00000000000E+00 -0.40157551156E+03  0.40157551156E+03  0.00000000000E+00 0.  1.
         23    2    1    2    0    0  0.31854041076E+03 -0.48650423626E+03  0.18470259528E+03  0.61640492366E+03  0.87667645201E+02 0.  0.
         13    1    3    3    0    0  0.11249519698E+03 -0.17740003510E+03  0.23220255599E+02  0.21134124555E+03  0.00000000000E+00 0. -1.
        -13    1    3    3    0    0  0.20604521378E+03 -0.30910420116E+03  0.16148233968E+03  0.40506367811E+03  0.00000000000E+00 0.  1.
         22    1    1    2    0    0 -0.31854041076E+03  0.48650423626E+03  0.26945879095E+03  0.64090748569E+03  0.00000000000E+00 0. -1.
<mgrwt>
<rscale>  0 0.11724214E+04</rscale>
<asrwt>0</asrwt>
<pdfrwt beam="1">  1        1 0.13165183E+00 0.11724214E+04</pdfrwt>
<pdfrwt beam="2">  1       -1 0.61780848E-01 0.11724214E+04</pdfrwt>
<totfact> 0.52196055E+01</totfact>
</mgrwt>
</event>
<event>
 6    1  0.1831439E-005  0.2685219E+04  0.7818608E-02  0.8339817E-01
          2   -1    0    0  501    0  0.00000000000E+00  0.00000000000E+00  0.11854002026E+04  0.11854002026E+04  0.00000000000E+00 0. -1.
         -2   -1    0    0    0  501 -0.00000000000E+00 -0.00000000000E+00 -0.15206676814E+04  0.15206676814E+04  0.00000000000E+00 0.  1.
         23    2    1    2    0    0  0.10679323627E+04 -0.41356574935E+03  0.53531413093E+03  0.12675170510E+04  0.92315196303E+02 0.  0.
         11    1    3    3    0    0  0.62612652626E+03 -0.19426156065E+03  0.29647144207E+03  0.71949099841E+03  0.00000000000E+00 0. -1.
        -11    1    3    3    0    0  0.44180583639E+03 -0.21930418870E+03  0.23884268886E+03  0.54802605255E+03  0.00000000000E+00 0.  1.
         22    1    1    2    0    0 -0.10679323627E+04  0.41356574935E+03 -0.87058160973E+03  0.14385508331E+04  0.00000000000E+00 0.  1.
<mgrwt>
<rscale>  0 0.26852186E+04</rscale>
<asrwt>0</asrwt>
<pdfrwt beam="1">  1        2 0.18236926E+00 0.26852186E+04</pdfrwt>
<pdfrwt beam="2">  1       -2 0.23394888E+00 0.26852186E+04</pdfrwt>
<totfact> 0.13711846E+00</totfact>
</mgrwt>
</event>
<event>
 6    1  0.1831439E-005  0.1169331E+04  0.7818608E-02  0.9140133E-01
         -1   -1    0    0    0  501 -0.00000000000E+00  0.00000000000E+00  0.15150332702E+04  0.15150332702E+04  0.00000000000E+00 0.  1.
          1   -1    0    0  501    0  0.00000000000E+00 -0.00000000000E+00 -0.22562800865E+03  0.22562800865E+03  0.00000000000E+00 0. -1.
         23    2    1    2    0    0 -0.50885881721E+03  0.20621837974E+03  0.36311901802E+03  0.66387461429E+03  0.86085807569E+02 0.  0.
         13    1    3    3    0    0 -0.16367330563E+03  0.44415984575E+02  0.72181291419E+02  0.18431459382E+03  0.00000000000E+00 0.  1.
        -13    1    3    3    0    0 -0.34518551157E+03  0.16180239516E+03  0.29093772660E+03  0.47956002048E+03  0.00000000000E+00 0. -1.
         22    1    1    2    0    0  0.50885881721E+03 -0.20621837974E+03  0.92628624352E+03  0.10767866645E+04  0.00000000000E+00 0.  1.
<mgrwt>
<rscale>  0 0.11693313E+04</rscale>
<asrwt>0</asrwt>
<pdfrwt beam="1">  1        1 0.34712002E-01 0.11693313E+04</pdfrwt>
<pdfrwt beam="2">  1       -1 0.23308204E+00 0.11693313E+04</pdfrwt>
<totfact> 0.11374909E+01</totfact>
</mgrwt>
</event>
<event>
 6    1  0.1831439E-005  0.3307634E+04  0.7818608E-02  0.8160956E-01
         -2   -1    0    0    0  501 -0.00000000000E+00  0.00000000000E+00  0.12235185707E+04  0.12235185707E+04  0.00000000000E+00 0.  1.
          2   -1    0    0  501    0  0.00000000000E+00 -0.00000000000E+00 -0.22354474607E+04  0.22354474607E+04  0.00000000000E+00 0. -1.
         23    2    1    2    0    0 -0.71902387275E+03  0.13679178879E+04 -0.11184366768E+04  0.19099216208E+04  0.93302302771E+02 0.  0.
         11    1    3    3    0    0 -0.54921248057E+03  0.10921452276E+04 -0.92159487971E+03  0.15309319610E+04  0.00000000000E+00 0. -1.
        -11    1    3    3    0    0 -0.16981139217E+03  0.27577266032E+03 -0.19684179712E+03  0.37898965973E+03  0.00000000000E+00 0.  1.
         22    1    1    2    0    0  0.71902387275E+03 -0.13679178879E+04  0.10650778685E+03  0.15490444107E+04  0.00000000000E+00 0.  1.
<mgrwt>
<rscale>  0 0.33076345E+04</rscale>
<asrwt>0</asrwt>
<pdfrwt beam="1">  1        2 0.34391499E+00 0.33076345E+04</pdfrwt>
<pdfrwt beam="2">  1       -2 0.18823363E+00 0.33076345E+04</pdfrwt>
<totfact> 0.65574896E-01</totfact>
</mgrwt>
</event>
<event>
 6    1  0.1831439E-005  0.1304909E+04  0.7818608E-02  0.9025681E-01
          2   -1    0    0  501    0  0.00000000000E+00  0.00000000000E+00  0.57969311865E+03  0.57969311865E+03  0.00000000000E+00 0. -1.
         -2   -1    0    0    0  501 -0.00000000000E+00 -0.00000000000E+00 -0.73434888433E+03  0.73434888433E+03  0.00000000000E+00 0.  1.
         23    2    1    2    0    0  0.14886684273E+03  0.24123621024E+01 -0.71418830127E+03  0.73503957229E+03  0.89727848514E+02 0.  0.
         13    1    3    3    0    0  0.46584495397E+02  0.16369362124E+01 -0.79465308238E+02  0.92127791599E+02  0.00000000000E+00 0. -1.
        -13    1    3    3    0    0  0.10228234733E+03  0.77542588998E+00 -0.63472299304E+03  0.64291178069E+03  0.00000000000E+00 0.  1.
         22    1    1    2    0    0 -0.14886684273E+03 -0.24123621024E+01  0.55953253560E+03  0.57900243069E+03  0.00000000000E+00 0. -1.
<mgrwt>
<rscale>  0 0.13049092E+04</rscale>
<asrwt>0</asrwt>
<pdfrwt beam="1">  1        2 0.89183557E-01 0.13049092E+04</pdfrwt>
<pdfrwt beam="2">  1       -2 0.11297675E+00 0.13049092E+04</pdfrwt>
<totfact> 0.31191191E+01</totfact>
</mgrwt>
</event>
<event>
 6    1  0.1831439E-005  0.5474997E+04  0.7818608E-02  0.7759139E-01
          2   -1    0    0  501    0  0.00000000000E+00  0.00000000000E+00  0.37269231465E+04  0.37269231465E+04  0.00000000000E+00 0.  1.
         -2   -1    0    0    0  501 -0.00000000000E+00 -0.00000000000E+00 -0.20107464297E+04  0.20107464297E+04  0.00000000000E+00 0. -1.
         23    2    1    2    0    0 -0.16317154160E+04 -0.44748906830E+02 -0.14437290708E+04  0.21810557020E+04  0.90292204398E+02 0.  0.
         13    1    3    3    0    0 -0.13921193672E+04 -0.61721407829E+02 -0.12018795811E+04  0.18401957483E+04  0.00000000000E+00 0. -1.
        -13    1    3    3    0    0 -0.23959604875E+03  0.16972500999E+02 -0.24184948969E+03  0.34085995369E+03  0.00000000000E+00 0.  1.
         22    1    1    2    0    0  0.16317154160E+04  0.44748906830E+02  0.31599057876E+04  0.35566138742E+04  0.00000000000E+00 0.  1.
<mgrwt>
<rscale>  0 0.54749968E+04</rscale>
<asrwt>0</asrwt>
<pdfrwt beam="1">  1        2 0.57337279E+00 0.54749968E+04</pdfrwt>
<pdfrwt beam="2">  1       -2 0.30934560E+00 0.54749968E+04</pdfrwt>
<totfact> 0.10851738E-02</totfact>
</mgrwt>
</event>
<event>
 6    1  0.1831439E-005  0.3156706E+04  0.7818608E-02  0.8200345E-01
         -2   -1    0    0    0  501 -0.00000000000E+00  0.00000000000E+00  0.12620599943E+04  0.12620599943E+04  0.00000000000E+00 0.  1.
          2   -1    0    0  501    0  0.00000000000E+00 -0.00000000000E+00 -0.19739148300E+04  0.19739148300E+04  0.00000000000E+00 0. -1.
         23    2    1    2    0    0  0.13133084183E+04 -0.48267975918E+03 -0.11021564098E+04  0.17833585398E+04  0.88657646040E+02 0.  0.
         13    1    3    3    0    0  0.75222649624E+03 -0.25730122848E+03 -0.57481370282E+03  0.98105016017E+03  0.00000000000E+00 0. -1.
        -13    1    3    3    0    0  0.56108192203E+03 -0.22537853070E+03 -0.52734270700E+03  0.80230837958E+03  0.00000000000E+00 0.  1.
         22    1    1    2    0    0 -0.13133084183E+04  0.48267975918E+03  0.39030157404E+03  0.14526162845E+04  0.00000000000E+00 0.  1.
<mgrwt>
<rscale>  0 0.31567065E+04</rscale>
<asrwt>0</asrwt>
<pdfrwt beam="1">  1        2 0.30367920E+00 0.31567065E+04</pdfrwt>
<pdfrwt beam="2">  1       -2 0.19416308E+00 0.31567065E+04</pdfrwt>
<totfact> 0.84874199E-01</totfact>
</mgrwt>
</event>
<event>
 6    1  0.1831439E-005  0.9344805E+03  0.7818608E-02  0.9383477E-01
         -2   -1    0    0    0  501 -0.00000000000E+00  0.00000000000E+00  0.36207011510E+03  0.36207011510E+03  0.00000000000E+00 0. -1.
          2   -1    0    0  501    0  0.00000000000E+00 -0.00000000000E+00 -0.60295900083E+03  0.60295900083E+03  0.00000000000E+00 0.  1.
         23    2    1    2    0    0  0.20031416196E+03 -0.19278874127E+03  0.26079964202E+03  0.39145728859E+03  0.89045456224E+02 0.  0.
         11    1    3    3    0    0  0.59567568069E+02 -0.10952241133E+03  0.14414455886E+03  0.19058097386E+03  0.00000000000E+00 0. -1.
        -11    1    3    3    0    0  0.14074659389E+03 -0.83266329935E+02  0.11665508316E+03  0.20087631473E+03  0.00000000000E+00 0.  1.
         22    1    1    2    0    0 -0.20031416196E+03  0.19278874127E+03 -0.50168852775E+03  0.57357182733E+03  0.00000000000E+00 0.  1.
<mgrwt>
<rscale>  0 0.93448046E+03</rscale>
<asrwt>0</asrwt>
<pdfrwt beam="1">  1        2 0.92762924E-01 0.93448046E+03</pdfrwt>
<pdfrwt beam="2">  1       -2 0.55703094E-01 0.93448046E+03</pdfrwt>
<totfact> 0.14958587E+02</totfact>
</mgrwt>
</event>
<event>
 6    1  0.1831439E-005  0.2469504E+04  0.7818608E-02  0.8413931E-01
          1   -1    0    0  501    0  0.00000000000E+00  0.00000000000E+00  0.17384658230E+04  0.17384658230E+04  0.00000000000E+00 0. -1.
         -1   -1    0    0    0  501 -0.00000000000E+00 -0.00000000000E+00 -0.87698716522E+03  0.87698716522E+03  0.00000000000E+00 0.  1.
         23    2    1    2    0    0 -0.49287731934E+03  0.32786551209E+03  0.15768216838E+04  0.16869383191E+04  0.94712322126E+02 0.  0.
         13    1    3    3    0    0 -0.21190120049E+03  0.10058707740E+03  0.53312925627E+03  0.58244886711E+03  0.00000000000E+00 0.  1.
        -13    1    3    3    0    0 -0.28097611885E+03  0.22727843469E+03  0.10436924275E+04  0.11044894520E+04  0.00000000000E+00 0. -1.
         22    1    1    2    0    0  0.49287731934E+03 -0.32786551209E+03 -0.71534302602E+03  0.92851466914E+03  0.00000000000E+00 0.  1.
<mgrwt>
<rscale>  0 0.24695038E+04</rscale>
<asrwt>0</asrwt>
<pdfrwt beam="1">  1        1 0.26745628E+00 0.24695038E+04</pdfrwt>
<pdfrwt beam="2">  1       -1 0.13492110E+00 0.24695038E+04</pdfrwt>
<totfact> 0.18435889E+00</totfact>
</mgrwt>
</event>
<event>
 6    1  0.1831439E-005  0.1134594E+04  0.7818608E-02  0.9172115E-01
          2   -1    0    0  501    0  0.00000000000E+00  0.00000000000E+00  0.60558347858E+03  0.60558347858E+03  0.00000000000E+00 0. -1.
         -2   -1    0    0    0  501 -0.00000000000E+00 -0.00000000000E+00 -0.53143074095E+03  0.53143074095E+03  0.00000000000E+00 0.  1.
         23    2    1    2    0    0  0.22437639450E+03  0.48329283566E+03  0.22169385430E+03  0.58412624488E+03  0.90214042823E+02 0.  0.
         13    1    3    3    0    0  0.53733500675E+02  0.54886634053E+02  0.51985886897E+02  0.92748930608E+02  0.00000000000E+00 0. -1.
        -13    1    3    3    0    0  0.17064289382E+03  0.42840620160E+03  0.16970796741E+03  0.49137731428E+03  0.00000000000E+00 0.  1.
         22    1    1    2    0    0 -0.22437639450E+03 -0.48329283566E+03 -0.14754111666E+03  0.55288797465E+03  0.00000000000E+00 0.  1.
<mgrwt>
<rscale>  0 0.11345936E+04</rscale>
<asrwt>0</asrwt>
<pdfrwt beam="1">  1        2 0.93166690E-01 0.11345936E+04</pdfrwt>
<pdfrwt beam="2">  1       -2 0.81758575E-01 0.11345936E+04</pdfrwt>
<totfact> 0.63987943E+01</totfact>
</mgrwt>
</event>
<event>
 6    1  0.1831439E-005  0.1529527E+04  0.7818608E-02  0.8865051E-01
         -2   -1    0    0    0  501 -0.00000000000E+00  0.00000000000E+00  0.17947962486E+03  0.17947962486E+03  0.00000000000E+00 0. -1.
          2   -1    0    0  501    0  0.00000000000E+00 -0.00000000000E+00 -0.32586628574E+04  0.32586628574E+04  0.00000000000E+00 0.  1.
         23    2    1    2    0    0 -0.37324937321E+03  0.59358968666E+03 -0.87438654342E+03  0.11245322621E+04  0.91417560496E+02 0.  0.
         11    1    3    3    0    0 -0.23492861609E+03  0.35450573904E+03 -0.45943608823E+03  0.62605694057E+03  0.00000000000E+00 0.  1.
        -11    1    3    3    0    0 -0.13832075712E+03  0.23908394762E+03 -0.41495045519E+03  0.49847532148E+03  0.00000000000E+00 0. -1.
         22    1    1    2    0    0  0.37324937321E+03 -0.59358968666E+03 -0.22047966892E+04  0.23136102202E+04  0.00000000000E+00 0.  1.
<mgrwt>
<rscale>  0 0.15295275E+04</rscale>
<asrwt>0</asrwt>
<pdfrwt beam="1">  1        2 0.50133273E+00 0.15295275E+04</pdfrwt>
<pdfrwt beam="2">  1       -2 0.27612251E-01 0.15295275E+04</pdfrwt>
<totfact> 0.13819831E+01</totfact>
</mgrwt>
</event>
<event>
 6    1  0.1831439E-005  0.3721029E+04  0.7818608E-02  0.8063318E-01
          1   -1    0    0  501    0  0.00000000000E+00  0.00000000000E+00  0.14867772382E+04  0.14867772382E+04  0.00000000000E+00 0. -1.
         -1   -1    0    0    0  501 -0.00000000000E+00 -0.00000000000E+00 -0.23281991038E+04  0.23281991038E+04  0.00000000000E+00 0.  1.
         23    2    1    2    0    0  0.18449027531E+04  0.22962761958E+03 -0.45565999859E+03  0.19162380162E+04  0.89146442200E+02 0.  0.
         11    1    3    3    0    0  0.39827582111E+03  0.28859042750E+02 -0.66845111276E+02  0.40487620692E+03  0.00000000000E+00 0. -1.
        -11    1    3    3    0    0  0.14466269320E+04  0.20076857683E+03 -0.38881488732E+03  0.15113618092E+04  0.00000000000E+00 0.  1.
         22    1    1    2    0    0 -0.18449027531E+04 -0.22962761958E+03 -0.38576186694E+03  0.18987383259E+04  0.00000000000E+00 0. -1.
<mgrwt>
<rscale>  0 0.37210286E+04</rscale>
<asrwt>0</asrwt>
<pdfrwt beam="1">  1        1 0.22873496E+00 0.37210286E+04</pdfrwt>
<pdfrwt beam="2">  1       -1 0.35818447E+00 0.37210286E+04</pdfrwt>
<totfact> 0.73318678E-02</totfact>
</mgrwt>
</event>
<event>
 6    1  0.1831439E-005  0.9320135E+03  0.7818608E-02  0.9386425E-01
         -2   -1    0    0    0  501 -0.00000000000E+00  0.00000000000E+00  0.22515937651E+03  0.22515937651E+03  0.00000000000E+00 0.  1.
          2   -1    0    0  501    0  0.00000000000E+00 -0.00000000000E+00 -0.96448255015E+03  0.96448255015E+03  0.00000000000E+00 0. -1.
         23    2    1    2    0    0  0.25472083782E+02  0.43416909266E+02 -0.95875962352E+03  0.96450594420E+03  0.92292175435E+02 0.  0.
         11    1    3    3    0    0  0.48831344613E+02  0.91522510082E+01 -0.75137727901E+03  0.75301798074E+03  0.00000000000E+00 0. -1.
        -11    1    3    3    0    0 -0.23359260831E+02  0.34264658258E+02 -0.20738234451E+03  0.21148796346E+03  0.00000000000E+00 0.  1.
         22    1    1    2    0    0 -0.25472083782E+02 -0.43416909266E+02  0.21943644988E+03  0.22513598246E+03  0.00000000000E+00 0.  1.
<mgrwt>
<rscale>  0 0.93201350E+03</rscale>
<asrwt>0</asrwt>
<pdfrwt beam="1">  1        2 0.14838193E+00 0.93201350E+03</pdfrwt>
<pdfrwt beam="2">  1       -2 0.34639904E-01 0.93201350E+03</pdfrwt>
<totfact> 0.20759970E+02</totfact>
</mgrwt>
</event>
<event>
 6    1  0.1831439E-005  0.3286146E+04  0.7818608E-02  0.8166430E-01
          2   -1    0    0  501    0  0.00000000000E+00  0.00000000000E+00  0.21555725132E+04  0.21555725132E+04  0.00000000000E+00 0. -1.
         -2   -1    0    0    0  501 -0.00000000000E+00 -0.00000000000E+00 -0.12524230757E+04  0.12524230757E+04  0.00000000000E+00 0.  1.
         23    2    1    2    0    0 -0.18314951399E+03  0.89921322228E+03 -0.95998374234E+03  0.13311245266E+04  0.90529310578E+02 0.  0.
         11    1    3    3    0    0 -0.18963497040E+03  0.87788653296E+03 -0.94770088233E+03  0.13056734466E+04  0.00000000000E+00 0.  1.
        -11    1    3    3    0    0  0.64854564119E+01  0.21326689320E+02 -0.12282860015E+02  0.25451079984E+02  0.00000000000E+00 0. -1.
         22    1    1    2    0    0  0.18314951399E+03 -0.89921322228E+03  0.18631331798E+04  0.20768710623E+04  0.00000000000E+00 0. -1.
<mgrwt>
<rscale>  0 0.32861459E+04</rscale>
<asrwt>0</asrwt>
<pdfrwt beam="1">  1        2 0.33162654E+00 0.32861459E+04</pdfrwt>
<pdfrwt beam="2">  1       -2 0.19268047E+00 0.32861459E+04</pdfrwt>
<totfact> 0.68016936E-01</totfact>
</mgrwt>
</event>
<event>
 6    1  0.1831439E-005  0.2703089E+04  0.7818608E-02  0.8334003E-01
         -1   -1    0    0    0  501 -0.00000000000E+00  0.00000000000E+00  0.10299425584E+04  0.10299425584E+04  0.00000000000E+00 0.  1.
          1   -1    0    0  501    0  0.00000000000E+00 -0.00000000000E+00 -0.17735673009E+04  0.17735673009E+04  0.00000000000E+00 0. -1.
         23    2    1    2    0    0  0.12423660656E+03 -0.25170080516E+03 -0.17417234716E+04  0.17666930468E+04  0.93891642479E+02 0.  0.
         13    1    3    3    0    0  0.60802395528E+02 -0.11795359621E+03 -0.11075947006E+04  0.11155160254E+04  0.00000000000E+00 0.  1.
        -13    1    3    3    0    0  0.63434211036E+02 -0.13374720894E+03 -0.63412877097E+03  0.65117702140E+03  0.00000000000E+00 0. -1.
         22    1    1    2    0    0 -0.12423660656E+03  0.25170080516E+03  0.99809872901E+03  0.10368168124E+04  0.00000000000E+00 0.  1.
<mgrwt>
<rscale>  0 0.27030889E+04</rscale>
<asrwt>0</asrwt>
<pdfrwt beam="1">  1        1 0.27285651E+00 0.27030889E+04</pdfrwt>
<pdfrwt beam="2">  1       -1 0.15845270E+00 0.27030889E+04</pdfrwt>
<totfact> 0.11129710E+00</totfact>
</mgrwt>
</event>
<event>
 6    1  0.1831439E-005  0.6036373E+03  0.7818608E-02  0.9897888E-01
          2   -1    0    0  501    0  0.00000000000E+00  0.00000000000E+00  0.20347217179E+03  0.20347217179E+03  0.00000000000E+00 0. -1.
         -2   -1    0    0    0  501 -0.00000000000E+00 -0.00000000000E+00 -0.44769999191E+03  0.44769999191E+03  0.00000000000E+00 0.  1.
         23    2    1    2    0    0  0.27478627049E+03 -0.10245365580E+03 -0.18381893254E+03  0.35175025445E+03  0.62726354215E+02 0.  0.
         11    1    3    3    0    0  0.94952067656E+02 -0.46198320840E+01 -0.62746903078E+02  0.11390527576E+03  0.00000000000E+00 0. -1.
        -11    1    3    3    0    0  0.17983420284E+03 -0.97833823713E+02 -0.12107202946E+03  0.23784497869E+03  0.00000000000E+00 0.  1.
         22    1    1    2    0    0 -0.27478627049E+03  0.10245365580E+03 -0.60408887579E+02  0.29942190924E+03  0.00000000000E+00 0. -1.
<mgrwt>
<rscale>  0 0.60363727E+03</rscale>
<asrwt>0</asrwt>
<pdfrwt beam="1">  1        2 0.31303411E-01 0.60363727E+03</pdfrwt>
<pdfrwt beam="2">  1       -2 0.68876922E-01 0.60363727E+03</pdfrwt>
<totfact> 0.33000752E+02</totfact>
</mgrwt>
</event>
<event>
 6    1  0.1831439E-005  0.2388561E+04  0.7818608E-02  0.8443798E-01
          2   -1    0    0  501    0  0.00000000000E+00  0.00000000000E+00  0.23393719454E+04  0.23393719454E+04  0.00000000000E+00 0. -1.
         -2   -1    0    0    0  501 -0.00000000000E+00 -0.00000000000E+00 -0.60969619913E+03  0.60969619913E+03  0.00000000000E+00 0.  1.
         23    2    1    2    0    0 -0.14938235909E+02 -0.99650284818E+03  0.57412457816E+02  0.10023515285E+04  0.90395348364E+02 0.  0.
         11    1    3    3    0    0 -0.35330012282E+01 -0.59528208732E+03  0.78330773758E+02  0.60042397995E+03  0.00000000000E+00 0. -1.
        -11    1    3    3    0    0 -0.11405234681E+02 -0.40122076086E+03 -0.20918315943E+02  0.40192754853E+03  0.00000000000E+00 0.  1.
         22    1    1    2    0    0  0.14938235909E+02  0.99650284818E+03  0.16722632884E+04  0.19467166160E+04  0.00000000000E+00 0. -1.
<mgrwt>
<rscale>  0 0.23885612E+04</rscale>
<asrwt>0</asrwt>
<pdfrwt beam="1">  1        2 0.35990337E+00 0.23885612E+04</pdfrwt>
<pdfrwt beam="2">  1       -2 0.93799417E-01 0.23885612E+04</pdfrwt>
<totfact> 0.37203595E+00</totfact>
</mgrwt>
</event>
<event>
 6    1  0.1831439E-005  0.1847992E+04  0.7818608E-02  0.8681186E-01
          2   -1    0    0  501    0  0.00000000000E+00  0.00000000000E+00  0.13736222788E+04  0.13736222788E+04  0.00000000000E+00 0. -1.
         -2   -1    0    0    0  501 -0.00000000000E+00 -0.00000000000E+00 -0.62154552609E+03  0.62154552609E+03  0.00000000000E+00 0.  1.
         23    2    1    2    0    0  0.35655495543E+02 -0.92061936477E+03  0.34844991808E+03  0.98932191671E+03  0.92353561576E+02 0.  0.
         11    1    3    3    0    0  0.49988094813E+02 -0.50906250970E+03  0.15603690683E+03  0.53478123069E+03  0.00000000000E+00 0.  1.
        -11    1    3    3    0    0 -0.14332599270E+02 -0.41155685507E+03  0.19241301124E+03  0.45454068603E+03  0.00000000000E+00 0. -1.
         22    1    1    2    0    0 -0.35655495543E+02  0.92061936477E+03  0.40362683466E+03  0.10058458882E+04  0.00000000000E+00 0. -1.
<mgrwt>
<rscale>  0 0.18479922E+04</rscale>
<asrwt>0</asrwt>
<pdfrwt beam="1">  1        2 0.21132650E+00 0.18479922E+04</pdfrwt>
<pdfrwt beam="2">  1       -2 0.95622389E-01 0.18479922E+04</pdfrwt>
<totfact> 0.12936280E+01</totfact>
</mgrwt>
</event>
<event>
 6    1  0.1831439E-005  0.1912790E+04  0.7818608E-02  0.8648516E-01
         -1   -1    0    0    0  501 -0.00000000000E+00  0.00000000000E+00  0.13534342804E+04  0.13534342804E+04  0.00000000000E+00 0.  1.
          1   -1    0    0  501    0  0.00000000000E+00 -0.00000000000E+00 -0.67582985985E+03  0.67582985985E+03  0.00000000000E+00 0. -1.
         23    2    1    2    0    0 -0.18376208675E+03  0.93600070073E+03  0.36781217085E+03  0.10263498596E+04  0.90787802035E+02 0.  0.
         11    1    3    3    0    0 -0.99091660246E+02  0.51169096519E+03  0.15242584071E+03  0.54302894758E+03  0.00000000000E+00 0. -1.
        -11    1    3    3    0    0 -0.84670426501E+02  0.42430973554E+03  0.21538633014E+03  0.48332091203E+03  0.00000000000E+00 0.  1.
         22    1    1    2    0    0  0.18376208675E+03 -0.93600070073E+03  0.30979224965E+03  0.10029142806E+04  0.00000000000E+00 0.  1.
<mgrwt>
<rscale>  0 0.19127899E+04</rscale>
<asrwt>0</asrwt>
<pdfrwt beam="1">  1        1 0.10397382E+00 0.19127899E+04</pdfrwt>
<pdfrwt beam="2">  1       -1 0.20822066E+00 0.19127899E+04</pdfrwt>
<totfact> 0.35492236E+00</totfact>
</mgrwt>
</event>
<event>
 6    1  0.1831439E-005  0.3033770E+04  0.7818608E-02  0.8234153E-01
         -2   -1    0    0    0  501 -0.00000000000E+00  0.00000000000E+00  0.25042833099E+04  0.25042833099E+04  0.00000000000E+00 0.  1.
          2   -1    0    0  501    0  0.00000000000E+00 -0.00000000000E+00 -0.91880188117E+03  0.91880188117E+03  0.00000000000E+00 0. -1.
         23    2    1    2    0    0 -0.13863576283E+04  0.23630980833E+03  0.15635027100E+03  0.14180301632E+04  0.92381477584E+02 0.  0.
         11    1    3    3    0    0 -0.50901477365E+03  0.91700827534E+02  0.13028708437E+02  0.51737300742E+03  0.00000000000E+00 0. -1.
        -11    1    3    3    0    0 -0.87734285463E+03  0.14460898080E+03  0.14332156256E+03  0.90065715575E+03  0.00000000000E+00 0.  1.
         22    1    1    2    0    0  0.13863576283E+04 -0.23630980833E+03  0.14291311578E+04  0.20050550279E+04  0.00000000000E+00 0.  1.
<mgrwt>
<rscale>  0 0.30337701E+04</rscale>
<asrwt>0</asrwt>
<pdfrwt beam="1">  1        2 0.14135414E+00 0.30337701E+04</pdfrwt>
<pdfrwt beam="2">  1       -2 0.38527435E+00 0.30337701E+04</pdfrwt>
<totfact> 0.22488472E-01</totfact>
</mgrwt>
</event>
<event>
 6    1  0.1831439E-005  0.1644498E+04  0.7818608E-02  0.8793668E-01
          2   -1    0    0  501    0  0.00000000000E+00  0.00000000000E+00  0.54320196606E+03  0.54320196606E+03  0.00000000000E+00 0. -1.
         -2   -1    0    0    0  501 -0.00000000000E+00 -0.00000000000E+00 -0.12446451724E+04  0.12446451724E+04  0.00000000000E+00 0.  1.
         23    2    1    2    0    0 -0.91026772349E+02  0.29732608534E+03 -0.11763730673E+04  0.12201790601E+04  0.91075084338E+02 0.  0.
         11    1    3    3    0    0  0.14624030691E+02  0.72995860076E+02 -0.22359586431E+03  0.23566367645E+03  0.00000000000E+00 0. -1.
        -11    1    3    3    0    0 -0.10565080304E+03  0.22433022526E+03 -0.95277720299E+03  0.98451538367E+03  0.00000000000E+00 0.  1.
         22    1    1    2    0    0  0.91026772349E+02 -0.29732608534E+03  0.47492986097E+03  0.56766807832E+03  0.00000000000E+00 0. -1.
<mgrwt>
<rscale>  0 0.16444983E+04</rscale>
<asrwt>0</asrwt>
<pdfrwt beam="1">  1        2 0.83569534E-01 0.16444983E+04</pdfrwt>
<pdfrwt beam="2">  1       -2 0.19148387E+00 0.16444983E+04</pdfrwt>
<totfact> 0.80804526E+00</totfact>
</mgrwt>
</event>
<event>
 6    1  0.1831439E-005  0.2352794E+04  0.7818608E-02  0.8457391E-01
          2   -1    0    0  501    0  0.00000000000E+00  0.00000000000E+00  0.11610904669E+04  0.11610904669E+04  0.00000000000E+00 0. -1.
         -2   -1    0    0    0  501 -0.00000000000E+00 -0.00000000000E+00 -0.11919057845E+04  0.11919057845E+04  0.00000000000E+00 0.  1.
         23    2    1    2    0    0 -0.23314600794E+02  0.96579563205E+03 -0.68365332128E+03  0.11870193080E+04  0.91258974406E+02 0.  0.
         13    1    3    3    0    0 -0.88321827257E+01  0.64210950378E+03 -0.40132148330E+03  0.75725923914E+03  0.00000000000E+00 0. -1.
        -13    1    3    3    0    0 -0.14482418068E+02  0.32368612826E+03 -0.28233183798E+03  0.42976006888E+03  0.00000000000E+00 0.  1.
         22    1    1    2    0    0  0.23314600794E+02 -0.96579563205E+03  0.65283800365E+03  0.11659769434E+04  0.00000000000E+00 0. -1.
<mgrwt>
<rscale>  0 0.23527945E+04</rscale>
<asrwt>0</asrwt>
<pdfrwt beam="1">  1        2 0.17862930E+00 0.23527945E+04</pdfrwt>
<pdfrwt beam="2">  1       -2 0.18337012E+00 0.23527945E+04</pdfrwt>
<totfact> 0.31019309E+00</totfact>
</mgrwt>
</event>
<event>
 6    1  0.1831439E-005  0.4926944E+04  0.7818608E-02  0.7839877E-01
         -2   -1    0    0    0  501 -0.00000000000E+00  0.00000000000E+00  0.21411705271E+04  0.21411705271E+04  0.00000000000E+00 0.  1.
          2   -1    0    0  501    0  0.00000000000E+00 -0.00000000000E+00 -0.28342878186E+04  0.28342878186E+04  0.00000000000E+00 0. -1.
         23    2    1    2    0    0  0.62234694190E+03 -0.13344346520E+04 -0.23402888171E+04  0.27661132863E+04  0.79996302800E+02 0.  0.
         11    1    3    3    0    0  0.36327806815E+03 -0.68443140714E+03 -0.12294761337E+04  0.14532821024E+04  0.00000000000E+00 0.  1.
        -11    1    3    3    0    0  0.25906887375E+03 -0.65000324483E+03 -0.11108126835E+04  0.13128311839E+04  0.00000000000E+00 0. -1.
         22    1    1    2    0    0 -0.62234694190E+03  0.13344346520E+04  0.16471715257E+04  0.22093450594E+04  0.00000000000E+00 0.  1.
<mgrwt>
<rscale>  0 0.49269437E+04</rscale>
<asrwt>0</asrwt>
<pdfrwt beam="1">  1        2 0.43604428E+00 0.49269437E+04</pdfrwt>
<pdfrwt beam="2">  1       -2 0.32941085E+00 0.49269437E+04</pdfrwt>
<totfact> 0.33780949E-02</totfact>
</mgrwt>
</event>
<event>
 6    1  0.1831439E-005  0.1657419E+04  0.7818608E-02  0.8786030E-01
          2   -1    0    0  501    0  0.00000000000E+00  0.00000000000E+00  0.12980521566E+04  0.12980521566E+04  0.00000000000E+00 0. -1.
         -2   -1    0    0    0  501 -0.00000000000E+00 -0.00000000000E+00 -0.52906917266E+03  0.52906917266E+03  0.00000000000E+00 0.  1.
         23    2    1    2    0    0 -0.53567564283E+03  0.51792151003E+03 -0.57622861486E+01  0.75221606908E+03  0.10297924917E+03 0.  0.
         11    1    3    3    0    0 -0.14682852024E+03  0.83583103190E+02 -0.97687125149E+01  0.16923409006E+03  0.00000000000E+00 0.  1.
        -11    1    3    3    0    0 -0.38884712260E+03  0.43433840684E+03  0.40064263663E+01  0.58298197902E+03  0.00000000000E+00 0. -1.
         22    1    1    2    0    0  0.53567564283E+03 -0.51792151003E+03  0.77474527011E+03  0.10749052602E+04  0.00000000000E+00 0. -1.
<mgrwt>
<rscale>  0 0.16574189E+04</rscale>
<asrwt>0</asrwt>
<pdfrwt beam="1">  1        2 0.19970033E+00 0.16574189E+04</pdfrwt>
<pdfrwt beam="2">  1       -2 0.81395258E-01 0.16574189E+04</pdfrwt>
<totfact> 0.21038785E+01</totfact>
</mgrwt>
</event>
<event>
 6    1  0.1831439E-005  0.1622357E+04  0.7818608E-02  0.8806930E-01
         -2   -1    0    0    0  501 -0.00000000000E+00  0.00000000000E+00  0.13533216210E+04  0.13533216210E+04  0.00000000000E+00 0.  1.
          2   -1    0    0  501    0  0.00000000000E+00 -0.00000000000E+00 -0.48621871569E+03  0.48621871569E+03  0.00000000000E+00 0. -1.
         23    2    1    2    0    0  0.55137063335E+03 -0.49174492864E+03  0.80761030359E+03  0.10983507389E+04  0.91199194368E+02 0.  0.
         11    1    3    3    0    0  0.18079416658E+03 -0.13786956578E+03  0.30670862827E+03  0.38179147515E+03  0.00000000000E+00 0.  1.
        -11    1    3    3    0    0  0.37057646676E+03 -0.35387536286E+03  0.50090167532E+03  0.71655926377E+03  0.00000000000E+00 0. -1.
         22    1    1    2    0    0 -0.55137063335E+03  0.49174492864E+03  0.59492601697E+02  0.74118959775E+03  0.00000000000E+00 0. -1.
<mgrwt>
<rscale>  0 0.16223567E+04</rscale>
<asrwt>0</asrwt>
<pdfrwt beam="1">  1        2 0.74802880E-01 0.16223567E+04</pdfrwt>
<pdfrwt beam="2">  1       -2 0.20820333E+00 0.16223567E+04</pdfrwt>
<totfact> 0.71552463E+00</totfact>
</mgrwt>
</event>
<event>
 6    1  0.1831439E-005  0.4125249E+04  0.7818608E-02  0.7979746E-01
         -2   -1    0    0    0  501 -0.00000000000E+00  0.00000000000E+00  0.12589326995E+04  0.12589326995E+04  0.00000000000E+00 0.  1.
          2   -1    0    0  501    0  0.00000000000E+00 -0.00000000000E+00 -0.33793855079E+04  0.33793855079E+04  0.00000000000E+00 0. -1.
         23    2    1    2    0    0 -0.31290189280E+03  0.13967096089E+04  0.60761205784E+03  0.15575645268E+04  0.90052852373E+02 0.  0.
         13    1    3    3    0    0 -0.21134280650E+03  0.75073289713E+03  0.34724983950E+03  0.85372601912E+03  0.00000000000E+00 0.  1.
        -13    1    3    3    0    0 -0.10155908629E+03  0.64597671179E+03  0.26036221835E+03  0.70383850770E+03  0.00000000000E+00 0. -1.
         22    1    1    2    0    0  0.31290189280E+03 -0.13967096089E+04 -0.27280648662E+04  0.30807536806E+04  0.00000000000E+00 0. -1.
<mgrwt>
<rscale>  0 0.41252486E+04</rscale>
<asrwt>0</asrwt>
<pdfrwt beam="1">  1        2 0.51990546E+00 0.41252486E+04</pdfrwt>
<pdfrwt beam="2">  1       -2 0.19368195E+00 0.41252486E+04</pdfrwt>
<totfact> 0.11246244E-01</totfact>
</mgrwt>
</event>
<event>
 6    1  0.1831439E-005  0.2374601E+04  0.7818608E-02  0.8449074E-01
         -1   -1    0    0    0  501 -0.00000000000E+00  0.00000000000E+00  0.19628438274E+04  0.19628438274E+04  0.00000000000E+00 0.  1.
          1   -1    0    0  501    0  0.00000000000E+00 -0.00000000000E+00 -0.71818373162E+03  0.71818373162E+03  0.00000000000E+00 0. -1.
         23    2    1    2    0    0 -0.10123975977E+04 -0.18811101876E+03 -0.40072190797E+02  0.10345550572E+04  0.91453455695E+02 0.  0.
         11    1    3    3    0    0 -0.31669805176E+03 -0.83646668727E+02 -0.47710826897E+02  0.33101471898E+03  0.00000000000E+00 0. -1.
        -11    1    3    3    0    0 -0.69569954596E+03 -0.10446435003E+03  0.76386361004E+01  0.70354033818E+03  0.00000000000E+00 0.  1.
         22    1    1    2    0    0  0.10123975977E+04  0.18811101876E+03  0.12847322866E+04  0.16464725019E+04  0.00000000000E+00 0.  1.
<mgrwt>
<rscale>  0 0.23746010E+04</rscale>
<asrwt>0</asrwt>
<pdfrwt beam="1">  1        1 0.11048981E+00 0.23746010E+04</pdfrwt>
<pdfrwt beam="2">  1       -1 0.30197597E+00 0.23746010E+04</pdfrwt>
<totfact> 0.75450614E-01</totfact>
</mgrwt>
</event>
<event>
 6    1  0.1831439E-005  0.1175973E+04  0.7818608E-02  0.9134151E-01
         -2   -1    0    0    0  501 -0.00000000000E+00  0.00000000000E+00  0.93584839536E+03  0.93584839536E+03  0.00000000000E+00 0.  1.
          2   -1    0    0  501    0  0.00000000000E+00 -0.00000000000E+00 -0.36942769400E+03  0.36942769400E+03  0.00000000000E+00 0. -1.
         23    2    1    2    0    0  0.50459911113E+03  0.38716116537E+02 -0.39504705340E+02  0.51580487448E+03  0.91514185587E+02 0.  0.
         13    1    3    3    0    0  0.25754324126E+03  0.43486045016E+02 -0.59549742095E+02  0.26789126341E+03  0.00000000000E+00 0.  1.
        -13    1    3    3    0    0  0.24705586987E+03 -0.47699284785E+01  0.20045036755E+02  0.24791361107E+03  0.00000000000E+00 0. -1.
         22    1    1    2    0    0 -0.50459911113E+03 -0.38716116537E+02  0.60592540670E+03  0.78947121488E+03  0.00000000000E+00 0.  1.
<mgrwt>
<rscale>  0 0.11759733E+04</rscale>
<asrwt>0</asrwt>
<pdfrwt beam="1">  1        2 0.56835030E-01 0.11759733E+04</pdfrwt>
<pdfrwt beam="2">  1       -2 0.14397668E+00 0.11759733E+04</pdfrwt>
<totfact> 0.28664165E+01</totfact>
</mgrwt>
</event>
<event>
 6    1  0.1831439E-005  0.1537457E+04  0.7818608E-02  0.8859920E-01
          2   -1    0    0  501    0  0.00000000000E+00  0.00000000000E+00  0.23177539407E+04  0.23177539407E+04  0.00000000000E+00 0. -1.
         -2   -1    0    0    0  501 -0.00000000000E+00 -0.00000000000E+00 -0.25496380714E+03  0.25496380714E+03  0.00000000000E+00 0.  1.
         23    2    1    2    0    0  0.16380217118E+03 -0.33014413031E+03 -0.88951137551E+02  0.38964266991E+03  0.89904434193E+02 0.  0.
         11    1    3    3    0    0  0.10600497816E+02 -0.66355595864E+02 -0.46352523161E+02  0.81633277895E+02  0.00000000000E+00 0. -1.
        -11    1    3    3    0    0  0.15320167336E+03 -0.26378853444E+03 -0.42598614390E+02  0.30800939202E+03  0.00000000000E+00 0.  1.
         22    1    1    2    0    0 -0.16380217118E+03  0.33014413031E+03  0.21517412711E+04  0.21830750779E+04  0.00000000000E+00 0. -1.
<mgrwt>
<rscale>  0 0.15374568E+04</rscale>
<asrwt>0</asrwt>
<pdfrwt beam="1">  1        2 0.35657752E+00 0.15374568E+04</pdfrwt>
<pdfrwt beam="2">  1       -2 0.39225203E-01 0.15374568E+04</pdfrwt>
<totfact> 0.26264346E+01</totfact>
</mgrwt>
</event>
<event>
 6    1  0.1831439E-005  0.1469226E+04  0.7818608E-02  0.8905179E-01
         -2   -1    0    0    0  501 -0.00000000000E+00  0.00000000000E+00  0.24230029170E+03  0.24230029170E+03  0.00000000000E+00 0.  1.
          2   -1    0    0  501    0  0.00000000000E+00 -0.00000000000E+00 -0.22272216337E+04  0.22272216337E+04  0.00000000000E+00 0. -1.
         23    2    1    2    0    0 -0.13732063233E+02  0.33730613638E+03 -0.20876026389E+04  0.21166657962E+04  0.90693526184E+02 0.  0.
         13    1    3    3    0    0  0.21524062077E+02  0.25338756962E+03 -0.16706286251E+04  0.16898723469E+04  0.00000000000E+00 0. -1.
        -13    1    3    3    0    0 -0.35256125310E+02  0.83918566763E+02 -0.41697401376E+03  0.42679344930E+03  0.00000000000E+00 0.  1.
         22    1    1    2    0    0  0.13732063233E+02 -0.33730613638E+03  0.10268129687E+03  0.35285612922E+03  0.00000000000E+00 0.  1.
<mgrwt>
<rscale>  0 0.14692263E+04</rscale>
<asrwt>0</asrwt>
<pdfrwt beam="1">  1        2 0.34264948E+00 0.14692263E+04</pdfrwt>
<pdfrwt beam="2">  1       -2 0.37276969E-01 0.14692263E+04</pdfrwt>
<totfact> 0.32796717E+01</totfact>
</mgrwt>
</event>
<event>
 6    1  0.1831439E-005  0.8042240E+03  0.7818608E-02  0.9553923E-01
         -1   -1    0    0    0  501 -0.00000000000E+00  0.00000000000E+00  0.18144995022E+03  0.18144995022E+03  0.00000000000E+00 0.  1.
          1   -1    0    0  501    0  0.00000000000E+00 -0.00000000000E+00 -0.89112217089E+03  0.89112217089E+03  0.00000000000E+00 0. -1.
         23    2    1    2    0    0  0.35502251676E+03 -0.78201674617E+01 -0.12387265456E+03  0.38754418440E+03  0.93508918775E+02 0.  0.
         11    1    3    3    0    0  0.16496970909E+03 -0.36908426919E+02 -0.92609390694E+02  0.19275304444E+03  0.00000000000E+00 0. -1.
        -11    1    3    3    0    0  0.19005280767E+03  0.29088259458E+02 -0.31263263863E+02  0.19479113996E+03  0.00000000000E+00 0.  1.
         22    1    1    2    0    0 -0.35502251676E+03  0.78201674617E+01 -0.58579956611E+03  0.68502793671E+03  0.00000000000E+00 0. -1.
<mgrwt>
<rscale>  0 0.80422403E+03</rscale>
<asrwt>0</asrwt>
<pdfrwt beam="1">  1        1 0.13709572E+00 0.80422403E+03</pdfrwt>
<pdfrwt beam="2">  1       -1 0.27915376E-01 0.80422403E+03</pdfrwt>
<totfact> 0.21622235E+02</totfact>
</mgrwt>
</event>
<event>
 6    1  0.2321396E-005  0.3545866E+04  0.7818608E-02  0.8103005E-01
         -2   -1    0    0    0  501 -0.00000000000E+00  0.00000000000E+00  0.10801856590E+04  0.10801856590E+04  0.00000000000E+00 0.  1.
          2   -1    0    0  501    0  0.00000000000E+00 -0.00000000000E+00 -0.29099555036E+04  0.29099555036E+04  0.00000000000E+00 0. -1.
         23    2    1    2    0    0  0.15975997099E+04 -0.59724655671E+03 -0.37586447666E+03  0.17489653325E+04  0.92613966692E+02 0.  0.
         13    1    3    3    0    0  0.91196418991E+03 -0.30955242787E+03 -0.17593328220E+03  0.97900659296E+03  0.00000000000E+00 0. -1.
        -13    1    3    3    0    0  0.68563551998E+03 -0.28769412884E+03 -0.19993119446E+03  0.76995873951E+03  0.00000000000E+00 0.  1.
         22    1    1    2    0    0 -0.15975997099E+04  0.59724655671E+03 -0.14539053680E+04  0.22411758301E+04  0.00000000000E+00 0. -1.
<mgrwt>
<rscale>  0 0.35458664E+04</rscale>
<asrwt>0</asrwt>
<pdfrwt beam="1">  1        2 0.44768546E+00 0.35458664E+04</pdfrwt>
<pdfrwt beam="2">  1       -2 0.16618241E+00 0.35458664E+04</pdfrwt>
<totfact> 0.36790055E-01</totfact>
</mgrwt>
</event>
<event>
 6    1  0.1831439E-005  0.3223003E+04  0.7818608E-02  0.8182768E-01
         -2   -1    0    0    0  501 -0.00000000000E+00  0.00000000000E+00  0.11024522718E+04  0.11024522718E+04  0.00000000000E+00 0.  1.
          2   -1    0    0  501    0  0.00000000000E+00 -0.00000000000E+00 -0.23556008382E+04  0.23556008382E+04  0.00000000000E+00 0. -1.
         23    2    1    2    0    0 -0.87212970070E+03  0.10089935489E+04 -0.15953166055E+04  0.20811881335E+04  0.87354328319E+02 0.  0.
         13    1    3    3    0    0 -0.40813648919E+03  0.40605024530E+03 -0.68602713076E+03  0.89559221728E+03  0.00000000000E+00 0.  1.
        -13    1    3    3    0    0 -0.46399321151E+03  0.60294330360E+03 -0.90928947472E+03  0.11855959162E+04  0.00000000000E+00 0. -1.
         22    1    1    2    0    0  0.87212970070E+03 -0.10089935489E+04  0.34216803909E+03  0.13768649765E+04  0.00000000000E+00 0.  1.
<mgrwt>
<rscale>  0 0.32230033E+04</rscale>
<asrwt>0</asrwt>
<pdfrwt beam="1">  1        2 0.36240013E+00 0.32230033E+04</pdfrwt>
<pdfrwt beam="2">  1       -2 0.16960804E+00 0.32230033E+04</pdfrwt>
<totfact> 0.75984032E-01</totfact>
</mgrwt>
</event>
<event>
 6    1  0.1831439E-005  0.3076499E+04  0.7818608E-02  0.8222217E-01
          2   -1    0    0  501    0  0.00000000000E+00  0.00000000000E+00  0.11161141524E+04  0.11161141524E+04  0.00000000000E+00 0. -1.
         -2   -1    0    0    0  501 -0.00000000000E+00 -0.00000000000E+00 -0.21200447744E+04  0.21200447744E+04  0.00000000000E+00 0.  1.
         23    2    1    2    0    0 -0.12628266202E+04  0.31825920453E+03 -0.13606476813E+04  0.18858748624E+04  0.95613231742E+02 0.  0.
         13    1    3    3    0    0 -0.78304033368E+03  0.16140467606E+03 -0.87830714045E+03  0.11876982220E+04  0.00000000000E+00 0. -1.
        -13    1    3    3    0    0 -0.47978628657E+03  0.15685452847E+03 -0.48234054082E+03  0.69817664040E+03  0.00000000000E+00 0.  1.
         22    1    1    2    0    0  0.12628266202E+04 -0.31825920453E+03  0.35671705930E+03  0.13502840644E+04  0.00000000000E+00 0. -1.
<mgrwt>
<rscale>  0 0.30764993E+04</rscale>
<asrwt>0</asrwt>
<pdfrwt beam="1">  1        2 0.17170987E+00 0.30764993E+04</pdfrwt>
<pdfrwt beam="2">  1       -2 0.32616073E+00 0.30764993E+04</pdfrwt>
<totfact> 0.39716464E-01</totfact>
</mgrwt>
</event>
<event>
 6    1  0.1831439E-005  0.6315546E+04  0.7818608E-02  0.7652463E-01
         -2   -1    0    0    0  501 -0.00000000000E+00  0.00000000000E+00  0.24873973730E+04  0.24873973730E+04  0.00000000000E+00 0.  1.
          2   -1    0    0  501    0  0.00000000000E+00 -0.00000000000E+00 -0.40088211244E+04  0.40088211244E+04  0.00000000000E+00 0. -1.
         23    2    1    2    0    0  0.18772309542E+04 -0.20499121099E+04 -0.23007055897E+04  0.36094528509E+04  0.93637377027E+02 0.  0.
         11    1    3    3    0    0  0.13214669347E+04 -0.14247128787E+04 -0.15544893000E+04  0.24884771709E+04  0.00000000000E+00 0. -1.
        -11    1    3    3    0    0  0.55576401955E+03 -0.62519923117E+03 -0.74621628971E+03  0.11209756800E+04  0.00000000000E+00 0.  1.
         22    1    1    2    0    0 -0.18772309542E+04  0.20499121099E+04  0.77928183831E+03  0.28867656464E+04  0.00000000000E+00 0.  1.
<mgrwt>
<rscale>  0 0.63155463E+04</rscale>
<asrwt>0</asrwt>
<pdfrwt beam="1">  1        2 0.61674171E+00 0.63155463E+04</pdfrwt>
<pdfrwt beam="2">  1       -2 0.38267652E+00 0.63155463E+04</pdfrwt>
<totfact> 0.21167515E-03</totfact>
</mgrwt>
</event>
<event>
 6    1  0.1831439E-005  0.2890097E+04  0.7818608E-02  0.8275830E-01
         -2   -1    0    0    0  501 -0.00000000000E+00  0.00000000000E+00  0.89455520530E+03  0.89455520530E+03  0.00000000000E+00 0.  1.
          2   -1    0    0  501    0  0.00000000000E+00 -0.00000000000E+00 -0.23343053494E+04  0.23343053494E+04  0.00000000000E+00 0. -1.
         23    2    1    2    0    0  0.10415233667E+04  0.51105546516E+03  0.23921941248E+03  0.11880549824E+04  0.91104895348E+02 0.  0.
         13    1    3    3    0    0  0.13438918716E+03  0.40198090983E+02  0.48049711863E+02  0.14827378377E+03  0.00000000000E+00 0. -1.
        -13    1    3    3    0    0  0.90713417959E+03  0.47085737418E+03  0.19116970062E+03  0.10397811986E+04  0.00000000000E+00 0.  1.
         22    1    1    2    0    0 -0.10415233667E+04 -0.51105546516E+03 -0.16789695565E+04  0.20408055723E+04  0.00000000000E+00 0. -1.
<mgrwt>
<rscale>  0 0.28900969E+04</rscale>
<asrwt>0</asrwt>
<pdfrwt beam="1">  1        2 0.35912389E+00 0.28900969E+04</pdfrwt>
<pdfrwt beam="2">  1       -2 0.13762388E+00 0.28900969E+04</pdfrwt>
<totfact> 0.14055896E+00</totfact>
</mgrwt>
</event>
<event>
 6    1  0.1831439E-005  0.1090741E+04  0.7818608E-02  0.9214264E-01
         -1   -1    0    0    0  501 -0.00000000000E+00  0.00000000000E+00  0.44339156932E+03  0.44339156932E+03  0.00000000000E+00 0.  1.
          1   -1    0    0  501    0  0.00000000000E+00 -0.00000000000E+00 -0.67080441132E+03  0.67080441132E+03  0.00000000000E+00 0. -1.
         23    2    1    2    0    0 -0.18872104147E+03  0.11251205701E+03 -0.62008390605E+03  0.66423469451E+03  0.91810045106E+02 0.  0.
         13    1    3    3    0    0 -0.11499484910E+03  0.11724113453E+03 -0.42326978809E+03  0.45401168758E+03  0.00000000000E+00 0.  1.
        -13    1    3    3    0    0 -0.73726192367E+02 -0.47290775271E+01 -0.19681411796E+03  0.21022300693E+03  0.00000000000E+00 0. -1.
         22    1    1    2    0    0  0.18872104147E+03 -0.11251205701E+03  0.39267106406E+03  0.44996128613E+03  0.00000000000E+00 0.  1.
<mgrwt>
<rscale>  0 0.10907411E+04</rscale>
<asrwt>0</asrwt>
<pdfrwt beam="1">  1        1 0.10320068E+00 0.10907411E+04</pdfrwt>
<pdfrwt beam="2">  1       -1 0.68214088E-01 0.10907411E+04</pdfrwt>
<totfact> 0.63052045E+01</totfact>
</mgrwt>
</event>
<event>
 6    1  0.1831439E-005  0.2231933E+04  0.7818608E-02  0.8505253E-01
         -1   -1    0    0    0  501 -0.00000000000E+00  0.00000000000E+00  0.12226314008E+04  0.12226314008E+04  0.00000000000E+00 0.  1.
          1   -1    0    0  501    0  0.00000000000E+00 -0.00000000000E+00 -0.10186073283E+04  0.10186073283E+04  0.00000000000E+00 0. -1.
         23    2    1    2    0    0 -0.31932572591E+03  0.74306572407E+03  0.87155033784E+03  0.11925696180E+04  0.92231843567E+02 0.  0.
         11    1    3    3    0    0 -0.12777419076E+03  0.19849684619E+03  0.23123330095E+03  0.33044830343E+03  0.00000000000E+00 0. -1.
        -11    1    3    3    0    0 -0.19155153515E+03  0.54456887788E+03  0.64031703689E+03  0.86212131461E+03  0.00000000000E+00 0.  1.
         22    1    1    2    0    0  0.31932572591E+03 -0.74306572407E+03 -0.66752626540E+03  0.10486691111E+04  0.00000000000E+00 0. -1.
<mgrwt>
<rscale>  0 0.22319331E+04</rscale>
<asrwt>0</asrwt>
<pdfrwt beam="1">  1        1 0.15670882E+00 0.22319331E+04</pdfrwt>
<pdfrwt beam="2">  1       -1 0.18809714E+00 0.22319331E+04</pdfrwt>
<totfact> 0.24246300E+00</totfact>
</mgrwt>
</event>
<event>
 6    1  0.1831439E-005  0.2550215E+04  0.7818608E-02  0.8385312E-01
          1   -1    0    0  501    0  0.00000000000E+00  0.00000000000E+00  0.17479123379E+04  0.17479123379E+04  0.00000000000E+00 0. -1.
         -1   -1    0    0    0  501 -0.00000000000E+00 -0.00000000000E+00 -0.93019472387E+03  0.93019472387E+03  0.00000000000E+00 0.  1.
         23    2    1    2    0    0  0.94157252443E+03 -0.83513406340E+03  0.61287974555E+03  0.14029732355E+04  0.93298415928E+02 0.  0.
         13    1    3    3    0    0  0.50686472223E+03 -0.50882813952E+03  0.36327804499E+03  0.80485331594E+03  0.00000000000E+00 0. -1.
        -13    1    3    3    0    0  0.43470780220E+03 -0.32630592388E+03  0.24960170056E+03  0.59811991956E+03  0.00000000000E+00 0.  1.
         22    1    1    2    0    0 -0.94157252443E+03  0.83513406340E+03  0.20483786853E+03  0.12751338263E+04  0.00000000000E+00 0.  1.
<mgrwt>
<rscale>  0 0.25502148E+04</rscale>
<asrwt>0</asrwt>
<pdfrwt beam="1">  1        1 0.26890959E+00 0.25502148E+04</pdfrwt>
<pdfrwt beam="2">  1       -1 0.14310688E+00 0.25502148E+04</pdfrwt>
<totfact> 0.15469460E+00</totfact>
</mgrwt>
</event>
<event>
 6    1  0.1968758E-005  0.3592334E+04  0.7818608E-02  0.8092250E-01
          1   -1    0    0  501    0  0.00000000000E+00  0.00000000000E+00  0.18238542111E+04  0.18238542111E+04  0.00000000000E+00 0. -1.
         -1   -1    0    0    0  501 -0.00000000000E+00 -0.00000000000E+00 -0.17688996347E+04  0.17688996347E+04  0.00000000000E+00 0.  1.
         23    2    1    2    0    0  0.58281671911E+03 -0.16965131549E+04 -0.37676571115E+02  0.17965320493E+04  0.90970695789E+02 0.  0.
         13    1    3    3    0    0  0.23885883762E+03 -0.56264795669E+03 -0.13142913406E+02  0.61139103989E+03  0.00000000000E+00 0. -1.
        -13    1    3    3    0    0  0.34395788149E+03 -0.11338651982E+04 -0.24533657709E+02  0.11851410094E+04  0.00000000000E+00 0.  1.
         22    1    1    2    0    0 -0.58281671911E+03  0.16965131549E+04  0.92631147584E+02  0.17962217965E+04  0.00000000000E+00 0.  1.
<mgrwt>
<rscale>  0 0.35923335E+04</rscale>
<asrwt>0</asrwt>
<pdfrwt beam="1">  1        1 0.28059295E+00 0.35923335E+04</pdfrwt>
<pdfrwt beam="2">  1       -1 0.27213841E+00 0.35923335E+04</pdfrwt>
<totfact> 0.15901073E-01</totfact>
</mgrwt>
</event>
<event>
 6    1  0.1831439E-005  0.1609168E+04  0.7818608E-02  0.8814935E-01
         -1   -1    0    0    0  501 -0.00000000000E+00  0.00000000000E+00  0.23413939355E+04  0.23413939355E+04  0.00000000000E+00 0.  1.
          1   -1    0    0  501    0  0.00000000000E+00 -0.00000000000E+00 -0.27648297291E+03  0.27648297291E+03  0.00000000000E+00 0. -1.
         23    2    1    2    0    0  0.68165822935E+03 -0.36554591770E+03  0.13801375755E+04  0.15848249488E+04  0.92782710844E+02 0.  0.
         11    1    3    3    0    0  0.42682477458E+03 -0.27346861370E+03  0.85762931481E+03  0.99623918438E+03  0.00000000000E+00 0. -1.
        -11    1    3    3    0    0  0.25483345477E+03 -0.92077304000E+02  0.52250826073E+03  0.58858576445E+03  0.00000000000E+00 0.  1.
         22    1    1    2    0    0 -0.68165822935E+03  0.36554591770E+03  0.68477338706E+03  0.10330519596E+04  0.00000000000E+00 0. -1.
<mgrwt>
<rscale>  0 0.16091682E+04</rscale>
<asrwt>0</asrwt>
<pdfrwt beam="1">  1        1 0.42535844E-01 0.16091682E+04</pdfrwt>
<pdfrwt beam="2">  1       -1 0.36021444E+00 0.16091682E+04</pdfrwt>
<totfact> 0.12478772E+00</totfact>
</mgrwt>
</event>
<event>
 6    1  0.1831439E-005  0.3945434E+04  0.7818608E-02  0.8015646E-01
          1   -1    0    0  501    0  0.00000000000E+00  0.00000000000E+00  0.28324791251E+04  0.28324791251E+04  0.00000000000E+00 0. -1.
         -1   -1    0    0    0  501 -0.00000000000E+00 -0.00000000000E+00 -0.13739243664E+04  0.13739243664E+04  0.00000000000E+00 0.  1.
         23    2    1    2    0    0 -0.10101545333E+04  0.14881467321E+04  0.15912322087E+04  0.24029079458E+04  0.83389307998E+02 0.  0.
         13    1    3    3    0    0 -0.38517947302E+03  0.61448625833E+03  0.68318707567E+03  0.99634390071E+03  0.00000000000E+00 0. -1.
        -13    1    3    3    0    0 -0.62497506024E+03  0.87366047374E+03  0.90804513307E+03  0.14065640451E+04  0.00000000000E+00 0.  1.
         22    1    1    2    0    0  0.10101545333E+04 -0.14881467321E+04 -0.13267745005E+03  0.18034955456E+04  0.00000000000E+00 0.  1.
<mgrwt>
<rscale>  0 0.39454339E+04</rscale>
<asrwt>0</asrwt>
<pdfrwt beam="1">  1        1 0.43576602E+00 0.39454339E+04</pdfrwt>
<pdfrwt beam="2">  1       -1 0.21137298E+00 0.39454339E+04</pdfrwt>
<totfact> 0.78123935E-02</totfact>
</mgrwt>
</event>
<event>
 6    1  0.1831439E-005  0.3256222E+04  0.7818608E-02  0.8174125E-01
         -2   -1    0    0    0  501 -0.00000000000E+00  0.00000000000E+00  0.10474526338E+04  0.10474526338E+04  0.00000000000E+00 0.  1.
          2   -1    0    0  501    0  0.00000000000E+00 -0.00000000000E+00 -0.25306582580E+04  0.25306582580E+04  0.00000000000E+00 0. -1.
         23    2    1    2    0    0 -0.15938872551E+04  0.22875842777E+03 -0.49026933127E+03  0.16863578735E+04  0.10311091120E+03 0.  0.
         13    1    3    3    0    0 -0.10872451115E+04  0.13489873497E+03 -0.37841938219E+03  0.11590948322E+04  0.00000000000E+00 0. -1.
        -13    1    3    3    0    0 -0.50664214363E+03  0.93859692801E+02 -0.11184994908E+03  0.52726304132E+03  0.00000000000E+00 0.  1.
         22    1    1    2    0    0  0.15938872551E+04 -0.22875842777E+03 -0.99293629296E+03  0.18917530183E+04  0.00000000000E+00 0. -1.
<mgrwt>
<rscale>  0 0.32562215E+04</rscale>
<asrwt>0</asrwt>
<pdfrwt beam="1">  1        2 0.38933203E+00 0.32562215E+04</pdfrwt>
<pdfrwt beam="2">  1       -2 0.16114656E+00 0.32562215E+04</pdfrwt>
<totfact> 0.69167275E-01</totfact>
</mgrwt>
</event>
<event>
 6    1  0.1831439E-005  0.9427685E+03  0.7818608E-02  0.9373643E-01
         -1   -1    0    0    0  501 -0.00000000000E+00  0.00000000000E+00  0.71709766801E+03  0.71709766801E+03  0.00000000000E+00 0.  1.
          1   -1    0    0  501    0  0.00000000000E+00 -0.00000000000E+00 -0.30986448978E+03  0.30986448978E+03  0.00000000000E+00 0. -1.
         23    2    1    2    0    0  0.19554227389E+03 -0.22693153327E+03  0.59561771452E+03  0.67309292320E+03  0.92514429888E+02 0.  0.
         13    1    3    3    0    0  0.70331560240E+02 -0.40445735023E+02  0.98700779129E+02  0.12776630874E+03  0.00000000000E+00 0. -1.
        -13    1    3    3    0    0  0.12521071365E+03 -0.18648579825E+03  0.49691693540E+03  0.54532661447E+03  0.00000000000E+00 0.  1.
         22    1    1    2    0    0 -0.19554227389E+03  0.22693153327E+03 -0.18838453629E+03  0.35386923458E+03  0.00000000000E+00 0. -1.
<mgrwt>
<rscale>  0 0.94276848E+03</rscale>
<asrwt>0</asrwt>
<pdfrwt beam="1">  1        1 0.47671460E-01 0.94276848E+03</pdfrwt>
<pdfrwt beam="2">  1       -1 0.11032272E+00 0.94276848E+03</pdfrwt>
<totfact> 0.64096617E+01</totfact>
</mgrwt>
</event>
<event>
 6    1  0.1831439E-005  0.2110484E+04  0.7818608E-02  0.8556639E-01
          1   -1    0    0  501    0  0.00000000000E+00  0.00000000000E+00  0.15666131228E+04  0.15666131228E+04  0.00000000000E+00 0. -1.
         -1   -1    0    0    0  501 -0.00000000000E+00 -0.00000000000E+00 -0.71079179928E+03  0.71079179928E+03  0.00000000000E+00 0.  1.
         23    2    1    2    0    0  0.76018085780E+02  0.64520990115E+03 -0.46586508598E+03  0.80467632151E+03  0.91646812086E+02 0.  0.
         13    1    3    3    0    0  0.54535053948E+02  0.13796685891E+03 -0.10965110400E+03  0.18447842929E+03  0.00000000000E+00 0. -1.
        -13    1    3    3    0    0  0.21483031832E+02  0.50724304224E+03 -0.35621398198E+03  0.62019789222E+03  0.00000000000E+00 0.  1.
         22    1    1    2    0    0 -0.76018085780E+02 -0.64520990115E+03  0.13216864095E+04  0.14727286006E+04  0.00000000000E+00 0. -1.
<mgrwt>
<rscale>  0 0.21104841E+04</rscale>
<asrwt>0</asrwt>
<pdfrwt beam="1">  1        1 0.24101740E+00 0.21104841E+04</pdfrwt>
<pdfrwt beam="2">  1       -1 0.10935259E+00 0.21104841E+04</pdfrwt>
<totfact> 0.41834604E+00</totfact>
</mgrwt>
</event>
<event>
 6    1  0.1831439E-005  0.2996308E+04  0.7818608E-02  0.8244786E-01
         -1   -1    0    0    0  501 -0.00000000000E+00  0.00000000000E+00  0.73148838884E+03  0.73148838884E+03  0.00000000000E+00 0.  1.
          1   -1    0    0  501    0  0.00000000000E+00 -0.00000000000E+00 -0.30683540907E+04  0.30683540907E+04  0.00000000000E+00 0. -1.
         23    2    1    2    0    0  0.47982476947E+03 -0.25066586841E+03  0.60039873292E+03  0.81310721394E+03  0.87175202194E+02 0.  0.
         11    1    3    3    0    0  0.28442079530E+03 -0.19493129802E+03  0.36421073250E+03  0.50154048432E+03  0.00000000000E+00 0. -1.
        -11    1    3    3    0    0  0.19540397418E+03 -0.55734570388E+02  0.23618800043E+03  0.31156672962E+03  0.00000000000E+00 0.  1.
         22    1    1    2    0    0 -0.47982476947E+03  0.25066586841E+03 -0.29372644348E+04  0.29867352656E+04  0.00000000000E+00 0. -1.
<mgrwt>
<rscale>  0 0.29963080E+04</rscale>
<asrwt>0</asrwt>
<pdfrwt beam="1">  1        1 0.47205446E+00 0.29963080E+04</pdfrwt>
<pdfrwt beam="2">  1       -1 0.11253668E+00 0.29963080E+04</pdfrwt>
<totfact> 0.32750344E-01</totfact>
</mgrwt>
</event>
<event>
 6    1  0.1831439E-005  0.8166634E+03  0.7818608E-02  0.9536206E-01
          1   -1    0    0  501    0  0.00000000000E+00  0.00000000000E+00  0.56386274860E+03  0.56386274860E+03  0.00000000000E+00 0. -1.
         -1   -1    0    0    0  501 -0.00000000000E+00 -0.00000000000E+00 -0.29570102381E+03  0.29570102381E+03  0.00000000000E+00 0.  1.
         23    2    1    2    0    0 -0.19089363349E+03  0.25965212158E+03  0.39041850534E+03  0.51488083994E+03  0.93893910797E+02 0.  0.
         13    1    3    3    0    0 -0.49556196744E+02  0.14566987494E+03  0.16957498294E+03  0.22897861023E+03  0.00000000000E+00 0. -1.
        -13    1    3    3    0    0 -0.14133743674E+03  0.11398224664E+03  0.22084352239E+03  0.28590222972E+03  0.00000000000E+00 0.  1.
         22    1    1    2    0    0  0.19089363349E+03 -0.25965212158E+03 -0.12225678055E+03  0.34468293247E+03  0.00000000000E+00 0.  1.
<mgrwt>
<rscale>  0 0.81666344E+03</rscale>
<asrwt>0</asrwt>
<pdfrwt beam="1">  1        1 0.86748115E-01 0.81666344E+03</pdfrwt>
<pdfrwt beam="2">  1       -1 0.45492465E-01 0.81666344E+03</pdfrwt>
<totfact> 0.18158496E+02</totfact>
</mgrwt>
</event>
<event>
 6    1  0.1831439E-005  0.3091088E+04  0.7818608E-02  0.8218188E-01
          2   -1    0    0  501    0  0.00000000000E+00  0.00000000000E+00  0.14963537470E+04  0.14963537470E+04  0.00000000000E+00 0. -1.
         -2   -1    0    0    0  501 -0.00000000000E+00 -0.00000000000E+00 -0.15963515518E+04  0.15963515518E+04  0.00000000000E+00 0.  1.
         23    2    1    2    0    0  0.14874523928E+04 -0.18413880676E+02 -0.46359516115E+03  0.15613474929E+04  0.10015901443E+03 0.  0.
         13    1    3    3    0    0  0.11353055134E+04  0.24418570288E+02 -0.37238416173E+03  0.11950668765E+04  0.00000000000E+00 0. -1.
        -13    1    3    3    0    0  0.35214687944E+03 -0.42832450963E+02 -0.91210999415E+02  0.36628061643E+03  0.00000000000E+00 0.  1.
         22    1    1    2    0    0 -0.14874523928E+04  0.18413880676E+02  0.36359735632E+03  0.15313578058E+04  0.00000000000E+00 0. -1.
<mgrwt>
<rscale>  0 0.30910882E+04</rscale>
<asrwt>0</asrwt>
<pdfrwt beam="1">  1        2 0.23020827E+00 0.30910882E+04</pdfrwt>
<pdfrwt beam="2">  1       -2 0.24559255E+00 0.30910882E+04</pdfrwt>
<totfact> 0.74133379E-01</totfact>
</mgrwt>
</event>
<event>
 6    1  0.1831439E-005  0.4947973E+04  0.7818608E-02  0.7836583E-01
         -2   -1    0    0    0  501 -0.00000000000E+00  0.00000000000E+00  0.28499368825E+04  0.28499368825E+04  0.00000000000E+00 0.  1.
          2   -1    0    0  501    0  0.00000000000E+00 -0.00000000000E+00 -0.21476300726E+04  0.21476300726E+04  0.00000000000E+00 0. -1.
         23    2    1    2    0    0 -0.42477258035E+03 -0.69733137839E+03 -0.20066182335E+04  0.21682600280E+04  0.90177700965E+02 0.  0.
         13    1    3    3    0    0 -0.69449595716E+02 -0.18449827830E+03 -0.51288432917E+03  0.54946628299E+03  0.00000000000E+00 0.  1.
        -13    1    3    3    0    0 -0.35532298463E+03 -0.51283310009E+03 -0.14937339043E+04  0.16187937450E+04  0.00000000000E+00 0. -1.
         22    1    1    2    0    0  0.42477258035E+03  0.69733137839E+03  0.27089250435E+04  0.28293069270E+04  0.00000000000E+00 0.  1.
<mgrwt>
<rscale>  0 0.49479734E+04</rscale>
<asrwt>0</asrwt>
<pdfrwt beam="1">  1        2 0.33040463E+00 0.49479734E+04</pdfrwt>
<pdfrwt beam="2">  1       -2 0.43845183E+00 0.49479734E+04</pdfrwt>
<totfact> 0.16752464E-02</totfact>
</mgrwt>
</event>
<event>
 6    1  0.1831439E-005  0.2903687E+04  0.7818608E-02  0.8271781E-01
          2   -1    0    0  501    0  0.00000000000E+00  0.00000000000E+00  0.31390952589E+04  0.31390952589E+04  0.00000000000E+00 0. -1.
         -2   -1    0    0    0  501 -0.00000000000E+00 -0.00000000000E+00 -0.67148335938E+03  0.67148335938E+03  0.00000000000E+00 0.  1.
         23    2    1    2    0    0 -0.39990012853E+03  0.16846977404E+02  0.30645310190E+04  0.30918878860E+04  0.90644360315E+02 0.  0.
         11    1    3    3    0    0 -0.22123052914E+03 -0.84559505052E+01  0.13696559166E+04  0.13874335227E+04  0.00000000000E+00 0.  1.
        -11    1    3    3    0    0 -0.17866959939E+03  0.25302927909E+02  0.16948751024E+04  0.17044543633E+04  0.00000000000E+00 0. -1.
         22    1    1    2    0    0  0.39990012853E+03 -0.16846977404E+02 -0.59691911946E+03  0.71869073225E+03  0.00000000000E+00 0.  1.
<mgrwt>
<rscale>  0 0.29036875E+04</rscale>
<asrwt>0</asrwt>
<pdfrwt beam="1">  1        2 0.48293772E+00 0.29036875E+04</pdfrwt>
<pdfrwt beam="2">  1       -2 0.10330513E+00 0.29036875E+04</pdfrwt>
<totfact> 0.93614155E-01</totfact>
</mgrwt>
</event>
<event>
 6    1  0.1831439E-005  0.3493116E+04  0.7818608E-02  0.8115423E-01
         -1   -1    0    0    0  501 -0.00000000000E+00  0.00000000000E+00  0.64191975790E+03  0.64191975790E+03  0.00000000000E+00 0.  1.
          1   -1    0    0  501    0  0.00000000000E+00 -0.00000000000E+00 -0.47520967459E+04  0.47520967459E+04  0.00000000000E+00 0. -1.
         23    2    1    2    0    0 -0.16065615986E+04  0.20048407328E+03 -0.30634034398E+04  0.34660722891E+04  0.89344526855E+02 0.  0.
         11    1    3    3    0    0 -0.71876058967E+03  0.47054962677E+02 -0.13897857173E+04  0.15653546866E+04  0.00000000000E+00 0. -1.
        -11    1    3    3    0    0 -0.88780100893E+03  0.15342911060E+03 -0.16736177225E+04  0.19007176025E+04  0.00000000000E+00 0.  1.
         22    1    1    2    0    0  0.16065615986E+04 -0.20048407328E+03 -0.10467735481E+04  0.19279442147E+04  0.00000000000E+00 0.  1.
<mgrwt>
<rscale>  0 0.34931160E+04</rscale>
<asrwt>0</asrwt>
<pdfrwt beam="1">  1        1 0.73109182E+00 0.34931160E+04</pdfrwt>
<pdfrwt beam="2">  1       -1 0.98756884E-01 0.34931160E+04</pdfrwt>
<totfact> 0.13711857E-02</totfact>
</mgrwt>
</event>
<event>
 6    1  0.1831439E-005  0.2479468E+04  0.7818608E-02  0.8410337E-01
          1   -1    0    0  501    0  0.00000000000E+00  0.00000000000E+00  0.15038088576E+04  0.15038088576E+04  0.00000000000E+00 0. -1.
         -1   -1    0    0    0  501 -0.00000000000E+00 -0.00000000000E+00 -0.10220316045E+04  0.10220316045E+04  0.00000000000E+00 0.  1.
         23    2    1    2    0    0 -0.34383524343E+03  0.10374992372E+04 -0.35106608280E+03  0.11517024182E+04  0.92432265773E+02 0.  0.
         11    1    3    3    0    0 -0.34531217972E+02  0.65988699577E+02 -0.45760355802E+02  0.87412376982E+02  0.00000000000E+00 0. -1.
        -11    1    3    3    0    0 -0.30930402546E+03  0.97151053760E+03 -0.30530572700E+03  0.10642900412E+04  0.00000000000E+00 0.  1.
         22    1    1    2    0    0  0.34383524343E+03 -0.10374992372E+04  0.83284333586E+03  0.13741380440E+04  0.00000000000E+00 0. -1.
<mgrwt>
<rscale>  0 0.24794678E+04</rscale>
<asrwt>0</asrwt>
<pdfrwt beam="1">  1        1 0.23135521E+00 0.24794678E+04</pdfrwt>
<pdfrwt beam="2">  1       -1 0.15723563E+00 0.24794678E+04</pdfrwt>
<totfact> 0.17751934E+00</totfact>
</mgrwt>
</event>
<event>
 6    1  0.1831439E-005  0.8220205E+03  0.7818608E-02  0.9528679E-01
         -2   -1    0    0    0  501 -0.00000000000E+00  0.00000000000E+00  0.28355816465E+03  0.28355816465E+03  0.00000000000E+00 0.  1.
          2   -1    0    0  501    0  0.00000000000E+00 -0.00000000000E+00 -0.59574878450E+03  0.59574878450E+03  0.00000000000E+00 0. -1.
         23    2    1    2    0    0 -0.12848223671E+03 -0.18836181823E+03  0.20119706151E+03  0.31756432918E+03  0.91536800764E+02 0.  0.
         13    1    3    3    0    0 -0.13903955692E+02  0.95788323833E+01  0.11590289713E+02  0.20479473366E+02  0.00000000000E+00 0. -1.
        -13    1    3    3    0    0 -0.11457828101E+03 -0.19794065061E+03  0.18960677180E+03  0.29708485582E+03  0.00000000000E+00 0.  1.
         22    1    1    2    0    0  0.12848223671E+03  0.18836181823E+03 -0.51338768136E+03  0.56174261997E+03  0.00000000000E+00 0. -1.
<mgrwt>
<rscale>  0 0.82202052E+03</rscale>
<asrwt>0</asrwt>
<pdfrwt beam="1">  1        2 0.91653659E-01 0.82202052E+03</pdfrwt>
<pdfrwt beam="2">  1       -2 0.43624333E-01 0.82202052E+03</pdfrwt>
<totfact> 0.25068978E+02</totfact>
</mgrwt>
</event>
<event>
 6    1  0.1831439E-005  0.3646066E+04  0.7818608E-02  0.8080020E-01
         -1   -1    0    0    0  501 -0.00000000000E+00  0.00000000000E+00  0.20266749281E+04  0.20266749281E+04  0.00000000000E+00 0.  1.
          1   -1    0    0  501    0  0.00000000000E+00 -0.00000000000E+00 -0.16398533175E+04  0.16398533175E+04  0.00000000000E+00 0. -1.
         23    2    1    2    0    0  0.92484548290E+03 -0.10558039315E+04 -0.97455510832E+03  0.17111746511E+04  0.91103888618E+02 0.  0.
         11    1    3    3    0    0  0.21707826275E+03 -0.30501548201E+03 -0.27676366047E+03  0.46557012380E+03  0.00000000000E+00 0.  1.
        -11    1    3    3    0    0  0.70776722015E+03 -0.75078844946E+03 -0.69779144785E+03  0.12456045273E+04  0.00000000000E+00 0. -1.
         22    1    1    2    0    0 -0.92484548290E+03  0.10558039315E+04  0.13613767189E+04  0.19553535945E+04  0.00000000000E+00 0.  1.
<mgrwt>
<rscale>  0 0.36460662E+04</rscale>
<asrwt>0</asrwt>
<pdfrwt beam="1">  1        1 0.25228513E+00 0.36460662E+04</pdfrwt>
<pdfrwt beam="2">  1       -1 0.31179614E+00 0.36460662E+04</pdfrwt>
<totfact> 0.11687353E-01</totfact>
</mgrwt>
</event>
<event>
 6    1  0.1831439E-005  0.2579265E+04  0.7818608E-02  0.8375279E-01
          2   -1    0    0  501    0  0.00000000000E+00  0.00000000000E+00  0.19177691099E+04  0.19177691099E+04  0.00000000000E+00 0. -1.
         -2   -1    0    0    0  501 -0.00000000000E+00 -0.00000000000E+00 -0.86723269056E+03  0.86723269056E+03  0.00000000000E+00 0.  1.
         23    2    1    2    0    0 -0.58174209378E+03  0.26962706034E+03 -0.68027814114E+03  0.93923863633E+03  0.90929925350E+02 0.  0.
         11    1    3    3    0    0 -0.38434291345E+03  0.13348835799E+03 -0.45229779592E+03  0.60836823802E+03  0.00000000000E+00 0. -1.
        -11    1    3    3    0    0 -0.19739918033E+03  0.13613870235E+03 -0.22798034522E+03  0.33087039831E+03  0.00000000000E+00 0.  1.
         22    1    1    2    0    0  0.58174209378E+03 -0.26962706034E+03  0.17308145605E+04  0.18457631642E+04  0.00000000000E+00 0. -1.
<mgrwt>
<rscale>  0 0.25792651E+04</rscale>
<asrwt>0</asrwt>
<pdfrwt beam="1">  1        2 0.29504140E+00 0.25792651E+04</pdfrwt>
<pdfrwt beam="2">  1       -2 0.13342041E+00 0.25792651E+04</pdfrwt>
<totfact> 0.26741838E+00</totfact>
</mgrwt>
</event>
<event>
 6    1  0.1831439E-005  0.3238361E+04  0.7818608E-02  0.8178759E-01
         -2   -1    0    0    0  501 -0.00000000000E+00  0.00000000000E+00  0.27600545315E+04  0.27600545315E+04  0.00000000000E+00 0.  1.
          2   -1    0    0  501    0  0.00000000000E+00 -0.00000000000E+00 -0.94988885934E+03  0.94988885934E+03  0.00000000000E+00 0. -1.
         23    2    1    2    0    0 -0.89650704423E+03  0.51362096590E+03 -0.52042768640E+03  0.11605911633E+04  0.92711890543E+02 0.  0.
         11    1    3    3    0    0 -0.49798552426E+03  0.23213157456E+03 -0.27165261880E+03  0.61291907751E+03  0.00000000000E+00 0.  1.
        -11    1    3    3    0    0 -0.39852151998E+03  0.28148939134E+03 -0.24877506759E+03  0.54767208581E+03  0.00000000000E+00 0. -1.
         22    1    1    2    0    0  0.89650704423E+03 -0.51362096590E+03  0.23305933586E+04  0.25493522276E+04  0.00000000000E+00 0.  1.
<mgrwt>
<rscale>  0 0.32383607E+04</rscale>
<asrwt>0</asrwt>
<pdfrwt beam="1">  1        2 0.14613675E+00 0.32383607E+04</pdfrwt>
<pdfrwt beam="2">  1       -2 0.42462377E+00 0.32383607E+04</pdfrwt>
<totfact> 0.11634864E-01</totfact>
</mgrwt>
</event>
<event>
 6    1  0.1831439E-005  0.8653372E+03  0.7818608E-02  0.9469980E-01
          2   -1    0    0  501    0  0.00000000000E+00  0.00000000000E+00  0.51790720324E+03  0.51790720324E+03  0.00000000000E+00 0. -1.
         -2   -1    0    0    0  501 -0.00000000000E+00 -0.00000000000E+00 -0.36145877267E+03  0.36145877267E+03  0.00000000000E+00 0.  1.
         23    2    1    2    0    0  0.12607231810E+03  0.38239055268E+03 -0.68383681636E+02  0.41820847262E+03  0.90029075760E+02 0.  0.
         11    1    3    3    0    0  0.78522843950E+01  0.11646712402E+03 -0.48835089184E+02  0.12653503579E+03  0.00000000000E+00 0.  1.
        -11    1    3    3    0    0  0.11822003371E+03  0.26592342866E+03 -0.19548592452E+02  0.29167343683E+03  0.00000000000E+00 0. -1.
         22    1    1    2    0    0 -0.12607231810E+03 -0.38239055268E+03  0.22483211221E+03  0.46115750330E+03  0.00000000000E+00 0. -1.
<mgrwt>
<rscale>  0 0.86533716E+03</rscale>
<asrwt>0</asrwt>
<pdfrwt beam="1">  1        2 0.79678031E-01 0.86533716E+03</pdfrwt>
<pdfrwt beam="2">  1       -2 0.55609042E-01 0.86533716E+03</pdfrwt>
<totfact> 0.18049242E+02</totfact>
</mgrwt>
</event>
<event>
 6    1  0.1831439E-005  0.1865872E+04  0.7818608E-02  0.8672033E-01
         -2   -1    0    0    0  501 -0.00000000000E+00  0.00000000000E+00  0.28215149850E+03  0.28215149850E+03  0.00000000000E+00 0.  1.
          2   -1    0    0  501    0  0.00000000000E+00 -0.00000000000E+00 -0.30847596139E+04  0.30847596139E+04  0.00000000000E+00 0. -1.
         23    2    1    2    0    0  0.70084145904E+03 -0.59759690129E+03 -0.11620621494E+04  0.14855042256E+04  0.89630118102E+02 0.  0.
         13    1    3    3    0    0  0.26965343313E+03 -0.28563439427E+03 -0.51420619512E+03  0.64707649647E+03  0.00000000000E+00 0. -1.
        -13    1    3    3    0    0  0.43118802591E+03 -0.31196250702E+03 -0.64785595429E+03  0.83842772914E+03  0.00000000000E+00 0.  1.
         22    1    1    2    0    0 -0.70084145904E+03  0.59759690129E+03 -0.16405459660E+04  0.18814068868E+04  0.00000000000E+00 0.  1.
<mgrwt>
<rscale>  0 0.18658720E+04</rscale>
<asrwt>0</asrwt>
<pdfrwt beam="1">  1        2 0.47457841E+00 0.18658720E+04</pdfrwt>
<pdfrwt beam="2">  1       -2 0.43407923E-01 0.18658720E+04</pdfrwt>
<totfact> 0.73012179E+00</totfact>
</mgrwt>
</event>
<event>
 6    1  0.1831439E-005  0.3953821E+04  0.7818608E-02  0.8013928E-01
          2   -1    0    0  501    0  0.00000000000E+00  0.00000000000E+00  0.38064729221E+04  0.38064729221E+04  0.00000000000E+00 0. -1.
         -2   -1    0    0    0  501 -0.00000000000E+00 -0.00000000000E+00 -0.10267180505E+04  0.10267180505E+04  0.00000000000E+00 0.  1.
         23    2    1    2    0    0 -0.15121570242E+04 -0.17757998617E+03  0.29300390507E+04  0.33032436364E+04  0.90200694132E+02 0.  0.
         11    1    3    3    0    0 -0.31746152656E+03 -0.45350224166E+02  0.54210451329E+03  0.62985376636E+03  0.00000000000E+00 0. -1.
        -11    1    3    3    0    0 -0.11946954976E+04 -0.13222976201E+03  0.23879345374E+04  0.26733898700E+04  0.00000000000E+00 0.  1.
         22    1    1    2    0    0  0.15121570242E+04  0.17757998617E+03 -0.15028417906E+03  0.15299473363E+04  0.00000000000E+00 0.  1.
<mgrwt>
<rscale>  0 0.39538207E+04</rscale>
<asrwt>0</asrwt>
<pdfrwt beam="1">  1        2 0.58561121E+00 0.39538207E+04</pdfrwt>
<pdfrwt beam="2">  1       -2 0.15795663E+00 0.39538207E+04</pdfrwt>
<totfact> 0.10001151E-01</totfact>
</mgrwt>
</event>
<event>
 6    1  0.2083504E-005  0.4752413E+04  0.7818608E-02  0.7867878E-01
          2   -1    0    0  501    0  0.00000000000E+00  0.00000000000E+00  0.21987182410E+04  0.21987182410E+04  0.00000000000E+00 0. -1.
         -2   -1    0    0    0  501 -0.00000000000E+00 -0.00000000000E+00 -0.25680225488E+04  0.25680225488E+04  0.00000000000E+00 0.  1.
         23    2    1    2    0    0  0.13722703734E+04  0.19238250543E+04  0.57701397557E+02  0.23653739520E+04  0.86230298763E+02 0.  0.
         11    1    3    3    0    0  0.80828099242E+03  0.10649521210E+04  0.16542052683E+02  0.13370545323E+04  0.00000000000E+00 0. -1.
        -11    1    3    3    0    0  0.56398938094E+03  0.85887293332E+03  0.41159344874E+02  0.10283194198E+04  0.00000000000E+00 0.  1.
         22    1    1    2    0    0 -0.13722703734E+04 -0.19238250543E+04 -0.42700570538E+03  0.24013668378E+04  0.00000000000E+00 0. -1.
<mgrwt>
<rscale>  0 0.47524133E+04</rscale>
<asrwt>0</asrwt>
<pdfrwt beam="1">  1        2 0.33826435E+00 0.47524133E+04</pdfrwt>
<pdfrwt beam="2">  1       -2 0.39508039E+00 0.47524133E+04</pdfrwt>
<totfact> 0.30705145E-02</totfact>
</mgrwt>
</event>
<event>
 6    1  0.1831439E-005  0.1228786E+04  0.7818608E-02  0.9088026E-01
         -2   -1    0    0    0  501 -0.00000000000E+00  0.00000000000E+00  0.35523653180E+03  0.35523653180E+03  0.00000000000E+00 0.  1.
          2   -1    0    0  501    0  0.00000000000E+00 -0.00000000000E+00 -0.10626130379E+04  0.10626130379E+04  0.00000000000E+00 0. -1.
         23    2    1    2    0    0  0.49995008454E+03  0.20666869619E+03 -0.28063633111E+02  0.54944412497E+03  0.91865346836E+02 0.  0.
         11    1    3    3    0    0  0.38509974727E+03  0.19236043764E+03 -0.43580868701E+02  0.43267036579E+03  0.00000000000E+00 0. -1.
        -11    1    3    3    0    0  0.11485033726E+03  0.14308258549E+02  0.15517235591E+02  0.11677375918E+03  0.00000000000E+00 0.  1.
         22    1    1    2    0    0 -0.49995008454E+03 -0.20666869619E+03 -0.67931287295E+03  0.86840544469E+03  0.00000000000E+00 0. -1.
<mgrwt>
<rscale>  0 0.12287863E+04</rscale>
<asrwt>0</asrwt>
<pdfrwt beam="1">  1        2 0.16347893E+00 0.12287863E+04</pdfrwt>
<pdfrwt beam="2">  1       -2 0.54651775E-01 0.12287863E+04</pdfrwt>
<totfact> 0.71312368E+01</totfact>
</mgrwt>
</event>
<event>
 6    1  0.1831439E-005  0.7623563E+03  0.7818608E-02  0.9616162E-01
         -3   -1    0    0    0  501 -0.00000000000E+00  0.00000000000E+00  0.12686580672E+04  0.12686580672E+04  0.00000000000E+00 0.  1.
          3   -1    0    0  501    0  0.00000000000E+00 -0.00000000000E+00 -0.11452793824E+03  0.11452793824E+03  0.00000000000E+00 0. -1.
         23    2    1    2    0    0 -0.18950542567E+03 -0.15302678208E+03  0.11041255551E+04  0.11345296969E+04  0.93460629702E+02 0.  0.
         11    1    3    3    0    0 -0.25708486672E+02 -0.53776283279E+02  0.15072285052E+03  0.16208082120E+03  0.00000000000E+00 0.  1.
        -11    1    3    3    0    0 -0.16379693900E+03 -0.99250498799E+02  0.95340270457E+03  0.97244887568E+03  0.00000000000E+00 0. -1.
         22    1    1    2    0    0  0.18950542567E+03  0.15302678208E+03  0.50004573895E+02  0.24865630859E+03  0.00000000000E+00 0. -1.
<mgrwt>
<rscale>  0 0.76235633E+03</rscale>
<asrwt>0</asrwt>
<pdfrwt beam="1">  1        3 0.17619684E-01 0.76235633E+03</pdfrwt>
<pdfrwt beam="2">  1       -3 0.19517815E+00 0.76235633E+03</pdfrwt>
<totfact> 0.12016916E+01</totfact>
</mgrwt>
</event>
<event>
 6    1  0.1831439E-005  0.2208848E+04  0.7818608E-02  0.8514754E-01
          2   -1    0    0  501    0  0.00000000000E+00  0.00000000000E+00  0.21806795741E+04  0.21806795741E+04  0.00000000000E+00 0. -1.
         -2   -1    0    0    0  501 -0.00000000000E+00 -0.00000000000E+00 -0.55934498124E+03  0.55934498124E+03  0.00000000000E+00 0.  1.
         23    2    1    2    0    0  0.26070219753E+03  0.88941973138E+03  0.15526237796E+04  0.18106407432E+04  0.93521150724E+02 0.  0.
         13    1    3    3    0    0  0.95815729150E+02  0.45208405583E+03  0.71214384535E+03  0.84894611369E+03  0.00000000000E+00 0.  1.
        -13    1    3    3    0    0  0.16488646838E+03  0.43733567555E+03  0.84047993424E+03  0.96169462950E+03  0.00000000000E+00 0. -1.
         22    1    1    2    0    0 -0.26070219753E+03 -0.88941973138E+03  0.68710813256E+02  0.92938381212E+03  0.00000000000E+00 0.  1.
<mgrwt>
<rscale>  0 0.22088478E+04</rscale>
<asrwt>0</asrwt>
<pdfrwt beam="1">  1        2 0.33548916E+00 0.22088478E+04</pdfrwt>
<pdfrwt beam="2">  1       -2 0.86053075E-01 0.22088478E+04</pdfrwt>
<totfact> 0.56648006E+00</totfact>
</mgrwt>
</event>
<event>
 6    1  0.1831439E-005  0.8407102E+03  0.7818608E-02  0.9502891E-01
         -2   -1    0    0    0  501 -0.00000000000E+00  0.00000000000E+00  0.60572981398E+03  0.60572981398E+03  0.00000000000E+00 0.  1.
          2   -1    0    0  501    0  0.00000000000E+00 -0.00000000000E+00 -0.29171162476E+03  0.29171162476E+03  0.00000000000E+00 0. -1.
         23    2    1    2    0    0  0.98743854867E+02 -0.27739563281E+03  0.47129799289E+03  0.56362169303E+03  0.94068744923E+02 0.  0.
         13    1    3    3    0    0  0.96914188016E+02 -0.15333337029E+03  0.23646440893E+03  0.29802499723E+03  0.00000000000E+00 0.  1.
        -13    1    3    3    0    0  0.18296668515E+01 -0.12406226253E+03  0.23483358397E+03  0.26559669581E+03  0.00000000000E+00 0. -1.
         22    1    1    2    0    0 -0.98743854867E+02  0.27739563281E+03 -0.15727980368E+03  0.33381974571E+03  0.00000000000E+00 0. -1.
<mgrwt>
<rscale>  0 0.84071024E+03</rscale>
<asrwt>0</asrwt>
<pdfrwt beam="1">  1        2 0.44878712E-01 0.84071024E+03</pdfrwt>
<pdfrwt beam="2">  1       -2 0.93189202E-01 0.84071024E+03</pdfrwt>
<totfact> 0.11108056E+02</totfact>
</mgrwt>
</event>
<event>
 6    1  0.1831439E-005  0.3503626E+04  0.7818608E-02  0.8112931E-01
         -1   -1    0    0    0  501 -0.00000000000E+00  0.00000000000E+00  0.11893404177E+04  0.11893404177E+04  0.00000000000E+00 0.  1.
          1   -1    0    0  501    0  0.00000000000E+00 -0.00000000000E+00 -0.25802949199E+04  0.25802949199E+04  0.00000000000E+00 0. -1.
         23    2    1    2    0    0  0.58047951292E+03 -0.42433969762E+03  0.10214260192E+04  0.12523748378E+04  0.90060966507E+02 0.  0.
         11    1    3    3    0    0  0.49098141121E+03 -0.31686431341E+03  0.80637662796E+03  0.99584587431E+03  0.00000000000E+00 0. -1.
        -11    1    3    3    0    0  0.89498101718E+02 -0.10747538421E+03  0.21504939124E+03  0.25652896346E+03  0.00000000000E+00 0.  1.
         22    1    1    2    0    0 -0.58047951292E+03  0.42433969762E+03 -0.24123805214E+04  0.25172604998E+04  0.00000000000E+00 0. -1.
<mgrwt>
<rscale>  0 0.35036261E+04</rscale>
<asrwt>0</asrwt>
<pdfrwt beam="1">  1        1 0.39696845E+00 0.35036261E+04</pdfrwt>
<pdfrwt beam="2">  1       -1 0.18297545E+00 0.35036261E+04</pdfrwt>
<totfact> 0.19243108E-01</totfact>
</mgrwt>
</event>
<event>
 6    1  0.1831439E-005  0.9025333E+03  0.7818608E-02  0.9422420E-01
         -2   -1    0    0    0  501 -0.00000000000E+00  0.00000000000E+00  0.27669337034E+03  0.27669337034E+03  0.00000000000E+00 0.  1.
          2   -1    0    0  501    0  0.00000000000E+00 -0.00000000000E+00 -0.73598292439E+03  0.73598292439E+03  0.00000000000E+00 0. -1.
         23    2    1    2    0    0  0.31954920697E+03  0.95962342465E+02 -0.56671850406E+03  0.66216032342E+03  0.77239654398E+02 0.  0.
         11    1    3    3    0    0  0.87589693785E+02  0.52953922046E+02 -0.12657942446E+03  0.16278336222E+03  0.00000000000E+00 0. -1.
        -11    1    3    3    0    0  0.23195951319E+03  0.43008420419E+02 -0.44013907960E+03  0.49937696120E+03  0.00000000000E+00 0.  1.
         22    1    1    2    0    0 -0.31954920697E+03 -0.95962342465E+02  0.10742895002E+03  0.35051597132E+03  0.00000000000E+00 0.  1.
<mgrwt>
<rscale>  0 0.90253331E+03</rscale>
<asrwt>0</asrwt>
<pdfrwt beam="1">  1        2 0.11322814E+00 0.90253331E+03</pdfrwt>
<pdfrwt beam="2">  1       -2 0.42568211E-01 0.90253331E+03</pdfrwt>
<totfact> 0.20152771E+02</totfact>
</mgrwt>
</event>
<event>
 6    1  0.1831439E-005  0.1116334E+04  0.7818608E-02  0.9189416E-01
          1   -1    0    0  501    0  0.00000000000E+00  0.00000000000E+00  0.11581148479E+04  0.11581148479E+04  0.00000000000E+00 0. -1.
         -1   -1    0    0    0  501 -0.00000000000E+00 -0.00000000000E+00 -0.26901533478E+03  0.26901533478E+03  0.00000000000E+00 0.  1.
         23    2    1    2    0    0 -0.13144768644E+03  0.56618829001E+01  0.11357250041E+04  0.11476043628E+04  0.99065318644E+02 0.  0.
         13    1    3    3    0    0 -0.11822926955E+03 -0.29890386092E+02  0.73061286591E+03  0.74072042985E+03  0.00000000000E+00 0. -1.
        -13    1    3    3    0    0 -0.13218416896E+02  0.35552268992E+02  0.40511213816E+03  0.40688393291E+03  0.00000000000E+00 0.  1.
         22    1    1    2    0    0  0.13144768644E+03 -0.56618829001E+01 -0.24662549098E+03  0.27952581990E+03  0.00000000000E+00 0.  1.
<mgrwt>
<rscale>  0 0.11163345E+04</rscale>
<asrwt>0</asrwt>
<pdfrwt beam="1">  1        1 0.17817151E+00 0.11163345E+04</pdfrwt>
<pdfrwt beam="2">  1       -1 0.41386975E-01 0.11163345E+04</pdfrwt>
<totfact> 0.65288695E+01</totfact>
</mgrwt>
</event>
<event>
 6    1  0.1831439E-005  0.3607947E+04  0.7818608E-02  0.8088674E-01
         -2   -1    0    0    0  501 -0.00000000000E+00  0.00000000000E+00  0.22330643116E+04  0.22330643116E+04  0.00000000000E+00 0. -1.
          2   -1    0    0  501    0  0.00000000000E+00 -0.00000000000E+00 -0.14573336224E+04  0.14573336224E+04  0.00000000000E+00 0.  1.
         23    2    1    2    0    0 -0.46269582834E+03 -0.17025460927E+04  0.76717289225E+03  0.19260782738E+04  0.92046960731E+02 0.  0.
         13    1    3    3    0    0 -0.14364846792E+03 -0.39656172887E+03  0.16320494367E+03  0.45225207659E+03  0.00000000000E+00 0.  1.
        -13    1    3    3    0    0 -0.31904736042E+03 -0.13059843638E+04  0.60396794859E+03  0.14738261972E+04  0.00000000000E+00 0. -1.
         22    1    1    2    0    0  0.46269582834E+03  0.17025460927E+04  0.85577969328E+01  0.17643196601E+04  0.00000000000E+00 0. -1.
<mgrwt>
<rscale>  0 0.36079466E+04</rscale>
<asrwt>0</asrwt>
<pdfrwt beam="1">  1        2 0.22420517E+00 0.36079466E+04</pdfrwt>
<pdfrwt beam="2">  1       -2 0.34354836E+00 0.36079466E+04</pdfrwt>
<totfact> 0.18666787E-01</totfact>
</mgrwt>
</event>
<event>
 6    1  0.1831439E-005  0.2645154E+04  0.7818608E-02  0.8353023E-01
          2   -1    0    0  501    0  0.00000000000E+00  0.00000000000E+00  0.27033231016E+04  0.27033231016E+04  0.00000000000E+00 0. -1.
         -2   -1    0    0    0  501 -0.00000000000E+00 -0.00000000000E+00 -0.64705930740E+03  0.64705930740E+03  0.00000000000E+00 0.  1.
         23    2    1    2    0    0 -0.57446432424E+03  0.75778668496E+03 -0.13204563979E+03  0.96439244704E+03  0.91470329533E+02 0.  0.
         11    1    3    3    0    0 -0.36299383075E+03  0.40501722338E+03 -0.67199431521E+02  0.54801390128E+03  0.00000000000E+00 0. -1.
        -11    1    3    3    0    0 -0.21147049349E+03  0.35276946158E+03 -0.64846208270E+02  0.41637854576E+03  0.00000000000E+00 0.  1.
         22    1    1    2    0    0  0.57446432424E+03 -0.75778668496E+03  0.21883094340E+04  0.23859899620E+04  0.00000000000E+00 0. -1.
<mgrwt>
<rscale>  0 0.26451543E+04</rscale>
<asrwt>0</asrwt>
<pdfrwt beam="1">  1        2 0.41589586E+00 0.26451543E+04</pdfrwt>
<pdfrwt beam="2">  1       -2 0.99547587E-01 0.26451543E+04</pdfrwt>
<totfact> 0.19445158E+00</totfact>
</mgrwt>
</event>
<event>
 6    1  0.1831439E-005  0.4932413E+04  0.7818608E-02  0.7839019E-01
          2   -1    0    0  501    0  0.00000000000E+00  0.00000000000E+00  0.42719820506E+04  0.42719820506E+04  0.00000000000E+00 0.  1.
         -2   -1    0    0    0  501 -0.00000000000E+00 -0.00000000000E+00 -0.14237356887E+04  0.14237356887E+04  0.00000000000E+00 0. -1.
         23    2    1    2    0    0  0.91965502807E+03 -0.14326923136E+04  0.34836741195E+04  0.38785383119E+04  0.93281459203E+02 0.  0.
         13    1    3    3    0    0  0.43322659998E+03 -0.62586841330E+03  0.16437792798E+04  0.18114653953E+04  0.00000000000E+00 0. -1.
        -13    1    3    3    0    0  0.48642842808E+03 -0.80682390025E+03  0.18398948397E+04  0.20670729166E+04  0.00000000000E+00 0.  1.
         22    1    1    2    0    0 -0.91965502807E+03  0.14326923136E+04 -0.63542775753E+03  0.18171794273E+04  0.00000000000E+00 0. -1.
<mgrwt>
<rscale>  0 0.49324125E+04</rscale>
<asrwt>0</asrwt>
<pdfrwt beam="1">  1        2 0.65722800E+00 0.49324125E+04</pdfrwt>
<pdfrwt beam="2">  1       -2 0.21903626E+00 0.49324125E+04</pdfrwt>
<totfact> 0.14642294E-02</totfact>
</mgrwt>
</event>
<event>
 6    1  0.1831439E-005  0.3456927E+04  0.7818608E-02  0.8124074E-01
          1   -1    0    0  501    0  0.00000000000E+00  0.00000000000E+00  0.22245878998E+04  0.22245878998E+04  0.00000000000E+00 0. -1.
         -1   -1    0    0    0  501 -0.00000000000E+00 -0.00000000000E+00 -0.13429839589E+04  0.13429839589E+04  0.00000000000E+00 0.  1.
         23    2    1    2    0    0  0.13286082324E+04  0.46309380557E+03 -0.59294688848E+03  0.15294462844E+04  0.89242457653E+02 0.  0.
         13    1    3    3    0    0  0.77892761417E+03  0.27355841221E+03 -0.30007926077E+03  0.87841333992E+03  0.00000000000E+00 0. -1.
        -13    1    3    3    0    0  0.54968061825E+03  0.18953539335E+03 -0.29286762771E+03  0.65103294446E+03  0.00000000000E+00 0.  1.
         22    1    1    2    0    0 -0.13286082324E+04 -0.46309380557E+03  0.14745508294E+04  0.20381255742E+04  0.00000000000E+00 0.  1.
<mgrwt>
<rscale>  0 0.34569269E+04</rscale>
<asrwt>0</asrwt>
<pdfrwt beam="1">  1        1 0.34224429E+00 0.34569269E+04</pdfrwt>
<pdfrwt beam="2">  1       -1 0.20661292E+00 0.34569269E+04</pdfrwt>
<totfact> 0.23265649E-01</totfact>
</mgrwt>
</event>
<event>
 6    1  0.1831439E-005  0.9767472E+03  0.7818608E-02  0.9334422E-01
         -2   -1    0    0    0  501 -0.00000000000E+00  0.00000000000E+00  0.87571175904E+02  0.87571175904E+02  0.00000000000E+00 0.  1.
          2   -1    0    0  501    0  0.00000000000E+00 -0.00000000000E+00 -0.27235988471E+04  0.27235988471E+04  0.00000000000E+00 0. -1.
         23    2    1    2    0    0 -0.47419006593E+03  0.28368343556E+02 -0.10586987396E+04  0.11638608413E+04  0.89822353746E+02 0.  0.
         13    1    3    3    0    0 -0.11401985761E+03  0.43846621874E+02 -0.23982730051E+03  0.26914714980E+03  0.00000000000E+00 0. -1.
        -13    1    3    3    0    0 -0.36017020832E+03 -0.15478278317E+02 -0.81887143906E+03  0.89471369150E+03  0.00000000000E+00 0.  1.
         22    1    1    2    0    0  0.47419006593E+03 -0.28368343556E+02 -0.15773289317E+04  0.16473091817E+04  0.00000000000E+00 0. -1.
<mgrwt>
<rscale>  0 0.97674716E+03</rscale>
<asrwt>0</asrwt>
<pdfrwt beam="1">  1        2 0.41901519E+00 0.97674716E+03</pdfrwt>
<pdfrwt beam="2">  1       -2 0.13472489E-01 0.97674716E+03</pdfrwt>
<totfact> 0.11015386E+02</totfact>
</mgrwt>
</event>
<event>
 6    1  0.1831439E-005  0.2174328E+04  0.7818608E-02  0.8529190E-01
          3   -1    0    0  501    0  0.00000000000E+00  0.00000000000E+00  0.13361455872E+04  0.13361455872E+04  0.00000000000E+00 0. -1.
         -3   -1    0    0    0  501 -0.00000000000E+00 -0.00000000000E+00 -0.88457868629E+03  0.88457868629E+03  0.00000000000E+00 0.  1.
         23    2    1    2    0    0  0.61988198733E+03  0.86854139791E+03  0.42812085033E+03  0.11534063474E+04  0.91874379244E+02 0.  0.
         11    1    3    3    0    0  0.20896285746E+03  0.36969031912E+03  0.16456627710E+03  0.45543217651E+03  0.00000000000E+00 0.  1.
        -11    1    3    3    0    0  0.41091912987E+03  0.49885107879E+03  0.26355457323E+03  0.69797417085E+03  0.00000000000E+00 0. -1.
         22    1    1    2    0    0 -0.61988198733E+03 -0.86854139791E+03  0.23446050551E+02  0.10673179261E+04  0.00000000000E+00 0.  1.
<mgrwt>
<rscale>  0 0.21743283E+04</rscale>
<asrwt>0</asrwt>
<pdfrwt beam="1">  1        3 0.20556086E+00 0.21743283E+04</pdfrwt>
<pdfrwt beam="2">  1       -3 0.13608903E+00 0.21743283E+04</pdfrwt>
<totfact> 0.13451720E-01</totfact>
</mgrwt>
</event>
<event>
 6    1  0.1831439E-005  0.1984811E+04  0.7818608E-02  0.8613755E-01
         -1   -1    0    0    0  501 -0.00000000000E+00  0.00000000000E+00  0.84194213372E+03  0.84194213372E+03  0.00000000000E+00 0.  1.
          1   -1    0    0  501    0  0.00000000000E+00 -0.00000000000E+00 -0.11697577276E+04  0.11697577276E+04  0.00000000000E+00 0. -1.
         23    2    1    2    0    0  0.61457819774E+03 -0.77337779542E+03 -0.92464888389E+02  0.99621498693E+03  0.89860831464E+02 0.  0.
         13    1    3    3    0    0  0.33342391302E+03 -0.46256684272E+03 -0.17657432369E+02  0.57048345697E+03  0.00000000000E+00 0.  1.
        -13    1    3    3    0    0  0.28115428472E+03 -0.31081095270E+03 -0.74807456020E+02  0.42573152997E+03  0.00000000000E+00 0. -1.
         22    1    1    2    0    0 -0.61457819774E+03  0.77337779542E+03 -0.23535070552E+03  0.10154848744E+04  0.00000000000E+00 0. -1.
<mgrwt>
<rscale>  0 0.19848106E+04</rscale>
<asrwt>0</asrwt>
<pdfrwt beam="1">  1        1 0.17996273E+00 0.19848106E+04</pdfrwt>
<pdfrwt beam="2">  1       -1 0.12952956E+00 0.19848106E+04</pdfrwt>
<totfact> 0.53474041E+00</totfact>
</mgrwt>
</event>
<event>
 6    1  0.1831439E-005  0.2876490E+04  0.7818608E-02  0.8279907E-01
          2   -1    0    0  501    0  0.00000000000E+00  0.00000000000E+00  0.19612367028E+04  0.19612367028E+04  0.00000000000E+00 0. -1.
         -2   -1    0    0    0  501 -0.00000000000E+00 -0.00000000000E+00 -0.10547164122E+04  0.10547164122E+04  0.00000000000E+00 0.  1.
         23    2    1    2    0    0 -0.54787250048E+03  0.19790123024E+03  0.18307492457E+04  0.19234658908E+04  0.93536402786E+02 0.  0.
         13    1    3    3    0    0 -0.10767178975E+03  0.25417229541E+02  0.24679670481E+03  0.27045861674E+03  0.00000000000E+00 0.  1.
        -13    1    3    3    0    0 -0.44020071073E+03  0.17248400070E+03  0.15839525409E+04  0.16530072740E+04  0.00000000000E+00 0. -1.
         22    1    1    2    0    0  0.54787250048E+03 -0.19790123024E+03 -0.92422895511E+03  0.10924872243E+04  0.00000000000E+00 0.  1.
<mgrwt>
<rscale>  0 0.28764899E+04</rscale>
<asrwt>0</asrwt>
<pdfrwt beam="1">  1        2 0.30172872E+00 0.28764899E+04</pdfrwt>
<pdfrwt beam="2">  1       -2 0.16226406E+00 0.28764899E+04</pdfrwt>
<totfact> 0.14718940E+00</totfact>
</mgrwt>
</event>
<event>
 6    1  0.1831439E-005  0.2138857E+04  0.7818608E-02  0.8544317E-01
          1   -1    0    0  501    0  0.00000000000E+00  0.00000000000E+00  0.62609447707E+03  0.62609447707E+03  0.00000000000E+00 0. -1.
         -1   -1    0    0    0  501 -0.00000000000E+00 -0.00000000000E+00 -0.18266855109E+04  0.18266855109E+04  0.00000000000E+00 0.  1.
         23    2    1    2    0    0  0.93089151072E+03  0.30356185163E+03 -0.10888334973E+04  0.14672859244E+04  0.93063400270E+02 0.  0.
         13    1    3    3    0    0  0.52682415887E+03  0.20952451778E+03 -0.58556784575E+03  0.81506681928E+03  0.00000000000E+00 0.  1.
        -13    1    3    3    0    0  0.40406735185E+03  0.94037333848E+02 -0.50326565157E+03  0.65221910508E+03  0.00000000000E+00 0. -1.
         22    1    1    2    0    0 -0.93089151072E+03 -0.30356185163E+03 -0.11175753656E+03  0.98549406365E+03  0.00000000000E+00 0. -1.
<mgrwt>
<rscale>  0 0.21388574E+04</rscale>
<asrwt>0</asrwt>
<pdfrwt beam="1">  1        1 0.96322230E-01 0.21388574E+04</pdfrwt>
<pdfrwt beam="2">  1       -1 0.28102853E+00 0.21388574E+04</pdfrwt>
<totfact> 0.12933930E+00</totfact>
</mgrwt>
</event>
<event>
 6    1  0.1831439E-005  0.1366310E+04  0.7818608E-02  0.8978573E-01
         -1   -1    0    0    0  501 -0.00000000000E+00  0.00000000000E+00  0.43696175761E+03  0.43696175761E+03  0.00000000000E+00 0.  1.
          1   -1    0    0  501    0  0.00000000000E+00 -0.00000000000E+00 -0.10680579587E+04  0.10680579587E+04  0.00000000000E+00 0. -1.
         23    2    1    2    0    0 -0.11902013925E+03 -0.20917320371E+03 -0.10176400016E+04  0.10496788194E+04  0.91187873762E+02 0.  0.
         11    1    3    3    0    0  0.13524188760E+02 -0.35535543786E+02 -0.18451765810E+03  0.18839438608E+03  0.00000000000E+00 0.  1.
        -11    1    3    3    0    0 -0.13254432801E+03 -0.17363765993E+03 -0.83312234353E+03  0.86128443335E+03  0.00000000000E+00 0. -1.
         22    1    1    2    0    0  0.11902013925E+03  0.20917320371E+03  0.38654380051E+03  0.45534089692E+03  0.00000000000E+00 0.  1.
<mgrwt>
<rscale>  0 0.13663096E+04</rscale>
<asrwt>0</asrwt>
<pdfrwt beam="1">  1        1 0.16431661E+00 0.13663096E+04</pdfrwt>
<pdfrwt beam="2">  1       -1 0.67224886E-01 0.13663096E+04</pdfrwt>
<totfact> 0.29377253E+01</totfact>
</mgrwt>
</event>
<event>
 6    1  0.1831439E-005  0.1843673E+04  0.7818608E-02  0.8683413E-01
          2   -1    0    0  501    0  0.00000000000E+00  0.00000000000E+00  0.59149916375E+03  0.59149916375E+03  0.00000000000E+00 0. -1.
         -2   -1    0    0    0  501 -0.00000000000E+00 -0.00000000000E+00 -0.14366594856E+04  0.14366594856E+04  0.00000000000E+00 0.  1.
         23    2    1    2    0    0  0.39936017864E+03  0.82255890643E+03 -0.31764813849E+03  0.97252575367E+03  0.93884476063E+02 0.  0.
         13    1    3    3    0    0  0.14585850138E+03  0.38972068743E+03 -0.11682714399E+03  0.43221001632E+03  0.00000000000E+00 0.  1.
        -13    1    3    3    0    0  0.25350167726E+03  0.43283821900E+03 -0.20082099450E+03  0.54031573735E+03  0.00000000000E+00 0. -1.
         22    1    1    2    0    0 -0.39936017864E+03 -0.82255890643E+03 -0.52751218337E+03  0.10556328957E+04  0.00000000000E+00 0. -1.
<mgrwt>
<rscale>  0 0.18436734E+04</rscale>
<asrwt>0</asrwt>
<pdfrwt beam="1">  1        2 0.90999872E-01 0.18436734E+04</pdfrwt>
<pdfrwt beam="2">  1       -2 0.22102453E+00 0.18436734E+04</pdfrwt>
<totfact> 0.46193011E+00</totfact>
</mgrwt>
</event>
<event>
 6    1  0.1831439E-005  0.3298524E+04  0.7818608E-02  0.8163271E-01
         -2   -1    0    0    0  501 -0.00000000000E+00  0.00000000000E+00  0.20064755641E+04  0.20064755641E+04  0.00000000000E+00 0.  1.
          2   -1    0    0  501    0  0.00000000000E+00 -0.00000000000E+00 -0.13556432637E+04  0.13556432637E+04  0.00000000000E+00 0. -1.
         23    2    1    2    0    0 -0.16249291566E+04  0.29601599717E+02  0.60160355021E+03  0.17361746441E+04  0.10537810234E+03 0.  0.
         13    1    3    3    0    0 -0.92156524388E+03  0.60915090859E+02  0.31156731611E+03  0.97471397830E+03  0.00000000000E+00 0. -1.
        -13    1    3    3    0    0 -0.70336391272E+03 -0.31313491141E+02  0.29003623410E+03  0.76146066579E+03  0.00000000000E+00 0.  1.
         22    1    1    2    0    0  0.16249291566E+04 -0.29601599717E+02  0.49228750136E+02  0.16259441837E+04  0.00000000000E+00 0. -1.
<mgrwt>
<rscale>  0 0.32985240E+04</rscale>
<asrwt>0</asrwt>
<pdfrwt beam="1">  1        2 0.20856050E+00 0.32985240E+04</pdfrwt>
<pdfrwt beam="2">  1       -2 0.30868855E+00 0.32985240E+04</pdfrwt>
<totfact> 0.36031187E-01</totfact>
</mgrwt>
</event>
<event>
 6    1  0.1831439E-005  0.2547245E+03  0.7818608E-02  0.1110355E+00
          2   -1    0    0  501    0  0.00000000000E+00  0.00000000000E+00  0.83600917711E+02  0.83600917711E+02  0.00000000000E+00 0.  1.
         -2   -1    0    0    0  501 -0.00000000000E+00 -0.00000000000E+00 -0.19403071379E+03  0.19403071379E+03  0.00000000000E+00 0. -1.
         23    2    1    2    0    0 -0.67783109037E+01  0.96332681962E+02 -0.31175713090E+01  0.13326458298E+03  0.91781254700E+02 0.  0.
         11    1    3    3    0    0  0.78526361688E+01  0.10509194500E+03 -0.22173926584E+02  0.10769245015E+03  0.00000000000E+00 0. -1.
        -11    1    3    3    0    0 -0.14630947073E+02 -0.87592630407E+01  0.19056355275E+02  0.25572132833E+02  0.00000000000E+00 0.  1.
         22    1    1    2    0    0  0.67783109037E+01 -0.96332681962E+02 -0.10731222477E+03  0.14436704852E+03  0.00000000000E+00 0. -1.
<mgrwt>
<rscale>  0 0.25472452E+03</rscale>
<asrwt>0</asrwt>
<pdfrwt beam="1">  1        2 0.12861680E-01 0.25472452E+03</pdfrwt>
<pdfrwt beam="2">  1       -2 0.29850879E-01 0.25472452E+03</pdfrwt>
<totfact> 0.47937875E+03</totfact>
</mgrwt>
</event>
<event>
 6    1  0.1831439E-005  0.2094783E+04  0.7818608E-02  0.8563545E-01
          2   -1    0    0  501    0  0.00000000000E+00  0.00000000000E+00  0.28996654391E+04  0.28996654391E+04  0.00000000000E+00 0. -1.
         -2   -1    0    0    0  501 -0.00000000000E+00 -0.00000000000E+00 -0.37832931762E+03  0.37832931762E+03  0.00000000000E+00 0.  1.
         23    2    1    2    0    0 -0.87651991382E+03 -0.56250895662E+03  0.14052202794E+04  0.17514240710E+04  0.90215060730E+02 0.  0.
         11    1    3    3    0    0 -0.50846218680E+03 -0.35837021912E+03  0.77872948218E+03  0.99668581598E+03  0.00000000000E+00 0.  1.
        -11    1    3    3    0    0 -0.36805772702E+03 -0.20413873750E+03  0.62649079718E+03  0.75473825497E+03  0.00000000000E+00 0. -1.
         22    1    1    2    0    0  0.87651991382E+03  0.56250895662E+03  0.11161158421E+04  0.15265706858E+04  0.00000000000E+00 0.  1.
<mgrwt>
<rscale>  0 0.20947825E+04</rscale>
<asrwt>0</asrwt>
<pdfrwt beam="1">  1        2 0.44610236E+00 0.20947825E+04</pdfrwt>
<pdfrwt beam="2">  1       -2 0.58204512E-01 0.20947825E+04</pdfrwt>
<totfact> 0.51246022E+00</totfact>
</mgrwt>
</event>
<event>
 6    1  0.1831439E-005  0.4210350E+04  0.7818608E-02  0.7963406E-01
          1   -1    0    0  501    0  0.00000000000E+00  0.00000000000E+00  0.12851999798E+04  0.12851999798E+04  0.00000000000E+00 0. -1.
         -1   -1    0    0    0  501 -0.00000000000E+00 -0.00000000000E+00 -0.34483046520E+04  0.34483046520E+04  0.00000000000E+00 0.  1.
         23    2    1    2    0    0 -0.49969708253E+03  0.61711749045E+03  0.11087977232E+04  0.13666252968E+04  0.87756136766E+02 0.  0.
         13    1    3    3    0    0 -0.30207416836E+03  0.43858250750E+03  0.73413242610E+03  0.90694753879E+03  0.00000000000E+00 0. -1.
        -13    1    3    3    0    0 -0.19762291417E+03  0.17853498295E+03  0.37466529708E+03  0.45967775798E+03  0.00000000000E+00 0.  1.
         22    1    1    2    0    0  0.49969708253E+03 -0.61711749045E+03 -0.32719023954E+04  0.33668793350E+04  0.00000000000E+00 0.  1.
<mgrwt>
<rscale>  0 0.42103497E+04</rscale>
<asrwt>0</asrwt>
<pdfrwt beam="1">  1        1 0.19772307E+00 0.42103497E+04</pdfrwt>
<pdfrwt beam="2">  1       -1 0.53050842E+00 0.42103497E+04</pdfrwt>
<totfact> 0.69040243E-03</totfact>
</mgrwt>
</event>
<event>
 6    1  0.1831439E-005  0.7893203E+03  0.7818608E-02  0.9575605E-01
         -2   -1    0    0    0  501 -0.00000000000E+00  0.00000000000E+00  0.10752387296E+04  0.10752387296E+04  0.00000000000E+00 0.  1.
          2   -1    0    0  501    0  0.00000000000E+00 -0.00000000000E+00 -0.14485772615E+03  0.14485772615E+03  0.00000000000E+00 0. -1.
         23    2    1    2    0    0 -0.16759352582E+03  0.25869492846E+03  0.10328071897E+03  0.33742690462E+03  0.90439776323E+02 0.  0.
         11    1    3    3    0    0 -0.87039699716E+02  0.19094153778E+03  0.99144751620E+02  0.23208675522E+03  0.00000000000E+00 0.  1.
        -11    1    3    3    0    0 -0.80553826104E+02  0.67753390682E+02  0.41359673514E+01  0.10534014940E+03  0.00000000000E+00 0. -1.
         22    1    1    2    0    0  0.16759352582E+03 -0.25869492846E+03  0.82710028453E+03  0.88266955118E+03  0.00000000000E+00 0.  1.
<mgrwt>
<rscale>  0 0.78932031E+03</rscale>
<asrwt>0</asrwt>
<pdfrwt beam="1">  1        2 0.22285805E-01 0.78932031E+03</pdfrwt>
<pdfrwt beam="2">  1       -2 0.16542134E+00 0.78932031E+03</pdfrwt>
<totfact> 0.58139609E+01</totfact>
</mgrwt>
</event>
<event>
 6    1  0.2320248E-005  0.2141693E+04  0.7818608E-02  0.8543096E-01
         -2   -1    0    0    0  501 -0.00000000000E+00  0.00000000000E+00  0.65715975614E+03  0.65715975614E+03  0.00000000000E+00 0.  1.
          2   -1    0    0  501    0  0.00000000000E+00 -0.00000000000E+00 -0.17449521918E+04  0.17449521918E+04  0.00000000000E+00 0. -1.
         23    2    1    2    0    0  0.46927127980E+03  0.80847856456E+03  0.37463399551E+02  0.93921966959E+03  0.82927426318E+02 0.  0.
         11    1    3    3    0    0  0.16384479355E+03  0.35453236350E+03 -0.32592445430E+01  0.39057513466E+03  0.00000000000E+00 0.  1.
        -11    1    3    3    0    0  0.30542648625E+03  0.45394620106E+03  0.40722644094E+02  0.54864453492E+03  0.00000000000E+00 0. -1.
         22    1    1    2    0    0 -0.46927127980E+03 -0.80847856456E+03 -0.11252558353E+04  0.14628922784E+04  0.00000000000E+00 0. -1.
<mgrwt>
<rscale>  0 0.21416931E+04</rscale>
<asrwt>0</asrwt>
<pdfrwt beam="1">  1        2 0.26845418E+00 0.21416931E+04</pdfrwt>
<pdfrwt beam="2">  1       -2 0.10110150E+00 0.21416931E+04</pdfrwt>
<totfact> 0.68429785E+00</totfact>
</mgrwt>
</event>
<event>
 6    1  0.1831439E-005  0.3641225E+04  0.7818608E-02  0.8081113E-01
         -2   -1    0    0    0  501 -0.00000000000E+00  0.00000000000E+00  0.16203607949E+04  0.16203607949E+04  0.00000000000E+00 0.  1.
          2   -1    0    0  501    0  0.00000000000E+00 -0.00000000000E+00 -0.20456121592E+04  0.20456121592E+04  0.00000000000E+00 0. -1.
         23    2    1    2    0    0  0.81350295687E+03 -0.10219336182E+04 -0.14882717714E+04  0.19818863271E+04  0.82372126127E+02 0.  0.
         13    1    3    3    0    0  0.29785771378E+03 -0.43897855441E+03 -0.60702408879E+03  0.80616352762E+03  0.00000000000E+00 0.  1.
        -13    1    3    3    0    0  0.51564524310E+03 -0.58295506381E+03 -0.88124768266E+03  0.11757227995E+04  0.00000000000E+00 0. -1.
         22    1    1    2    0    0 -0.81350295687E+03  0.10219336182E+04  0.10630204072E+04  0.16840866269E+04  0.00000000000E+00 0.  1.
<mgrwt>
<rscale>  0 0.36412249E+04</rscale>
<asrwt>0</asrwt>
<pdfrwt beam="1">  1        2 0.31470956E+00 0.36412249E+04</pdfrwt>
<pdfrwt beam="2">  1       -2 0.24928628E+00 0.36412249E+04</pdfrwt>
<totfact> 0.33230170E-01</totfact>
</mgrwt>
</event>
<event>
 6    1  0.1831439E-005  0.3651285E+04  0.7818608E-02  0.8078844E-01
          2   -1    0    0  501    0  0.00000000000E+00  0.00000000000E+00  0.16032609248E+04  0.16032609248E+04  0.00000000000E+00 0. -1.
         -2   -1    0    0    0  501 -0.00000000000E+00 -0.00000000000E+00 -0.20788695076E+04  0.20788695076E+04  0.00000000000E+00 0.  1.
         23    2    1    2    0    0 -0.93386629861E+03 -0.14177535341E+04 -0.91306095644E+03  0.19289915542E+04  0.72088549214E+02 0.  0.
         11    1    3    3    0    0 -0.51320322331E+03 -0.77501387376E+03 -0.45919391315E+03  0.10367656933E+04  0.00000000000E+00 0.  1.
        -11    1    3    3    0    0 -0.42066307530E+03 -0.64273966030E+03 -0.45386704330E+03  0.89222586089E+03  0.00000000000E+00 0. -1.
         22    1    1    2    0    0  0.93386629861E+03  0.14177535341E+04  0.43745237359E+03  0.17531388782E+04  0.00000000000E+00 0. -1.
<mgrwt>
<rscale>  0 0.36512848E+04</rscale>
<asrwt>0</asrwt>
<pdfrwt beam="1">  1        2 0.24665553E+00 0.36512848E+04</pdfrwt>
<pdfrwt beam="2">  1       -2 0.31982608E+00 0.36512848E+04</pdfrwt>
<totfact> 0.21631026E-01</totfact>
</mgrwt>
</event>
<event>
 6    1  0.1831439E-005  0.3344938E+04  0.7818608E-02  0.8151554E-01
          2   -1    0    0  501    0  0.00000000000E+00  0.00000000000E+00  0.21380158439E+04  0.21380158439E+04  0.00000000000E+00 0. -1.
         -2   -1    0    0    0  501 -0.00000000000E+00 -0.00000000000E+00 -0.13082933437E+04  0.13082933437E+04  0.00000000000E+00 0.  1.
         23    2    1    2    0    0  0.13906598902E+04  0.54610308691E+03  0.11867207143E+04  0.19102065750E+04  0.91758343910E+02 0.  0.
         11    1    3    3    0    0  0.11282071207E+04  0.40374980714E+03  0.94740419012E+03  0.15275601178E+04  0.00000000000E+00 0. -1.
        -11    1    3    3    0    0  0.26245276951E+03  0.14235327977E+03  0.23931652420E+03  0.38264645724E+03  0.00000000000E+00 0.  1.
         22    1    1    2    0    0 -0.13906598902E+04 -0.54610308691E+03 -0.35699821414E+03  0.15361026127E+04  0.00000000000E+00 0.  1.
<mgrwt>
<rscale>  0 0.33449376E+04</rscale>
<asrwt>0</asrwt>
<pdfrwt beam="1">  1        2 0.32892551E+00 0.33449376E+04</pdfrwt>
<pdfrwt beam="2">  1       -2 0.20127590E+00 0.33449376E+04</pdfrwt>
<totfact> 0.60742105E-01</totfact>
</mgrwt>
</event>
<event>
 6    1  0.1831439E-005  0.2011274E+04  0.7818608E-02  0.8601368E-01
         -1   -1    0    0    0  501 -0.00000000000E+00  0.00000000000E+00  0.88626123190E+03  0.88626123190E+03  0.00000000000E+00 0.  1.
          1   -1    0    0  501    0  0.00000000000E+00 -0.00000000000E+00 -0.11410918559E+04  0.11410918559E+04  0.00000000000E+00 0. -1.
         23    2    1    2    0    0 -0.82356748436E+02  0.53665195826E+03 -0.97879976119E+03  0.11224170293E+04  0.83624498455E+02 0.  0.
         11    1    3    3    0    0 -0.51203610024E+02  0.10923774647E+03 -0.20444777510E+03  0.23738910606E+03  0.00000000000E+00 0.  1.
        -11    1    3    3    0    0 -0.31153138412E+02  0.42741421180E+03 -0.77435198609E+03  0.88502792320E+03  0.00000000000E+00 0. -1.
         22    1    1    2    0    0  0.82356748436E+02 -0.53665195826E+03  0.72396913723E+03  0.90493605850E+03  0.00000000000E+00 0.  1.
<mgrwt>
<rscale>  0 0.20112737E+04</rscale>
<asrwt>0</asrwt>
<pdfrwt beam="1">  1        1 0.17555259E+00 0.20112737E+04</pdfrwt>
<pdfrwt beam="2">  1       -1 0.13634788E+00 0.20112737E+04</pdfrwt>
<totfact> 0.49153885E+00</totfact>
</mgrwt>
</event>
<event>
 6    1  0.1831439E-005  0.9681271E+03  0.7818608E-02  0.9344210E-01
         -2   -1    0    0    0  501 -0.00000000000E+00  0.00000000000E+00  0.99784203276E+03  0.99784203276E+03  0.00000000000E+00 0.  1.
          2   -1    0    0  501    0  0.00000000000E+00 -0.00000000000E+00 -0.23482426247E+03  0.23482426247E+03  0.00000000000E+00 0. -1.
         23    2    1    2    0    0  0.11385502767E+03 -0.14608750117E+03 -0.17847750254E+03  0.27312584580E+03  0.91863939656E+02 0.  0.
         13    1    3    3    0    0  0.11799253428E+02 -0.12902944372E+02 -0.72708455658E+02  0.74781200038E+02  0.00000000000E+00 0. -1.
        -13    1    3    3    0    0  0.10205577424E+03 -0.13318455679E+03 -0.10576904688E+03  0.19834464576E+03  0.00000000000E+00 0.  1.
         22    1    1    2    0    0 -0.11385502767E+03  0.14608750117E+03  0.94149527283E+03  0.95954044943E+03  0.00000000000E+00 0.  1.
<mgrwt>
<rscale>  0 0.96812710E+03</rscale>
<asrwt>0</asrwt>
<pdfrwt beam="1">  1        2 0.36126810E-01 0.96812710E+03</pdfrwt>
<pdfrwt beam="2">  1       -2 0.15351416E+00 0.96812710E+03</pdfrwt>
<totfact> 0.40639994E+01</totfact>
</mgrwt>
</event>
<event>
 6    1  0.1831439E-005  0.7545288E+03  0.7818608E-02  0.9628272E-01
          1   -1    0    0  501    0  0.00000000000E+00  0.00000000000E+00  0.50534222627E+03  0.50534222627E+03  0.00000000000E+00 0. -1.
         -1   -1    0    0    0  501 -0.00000000000E+00 -0.00000000000E+00 -0.28164762393E+03  0.28164762393E+03  0.00000000000E+00 0.  1.
         23    2    1    2    0    0  0.14750081368E+03  0.12796928249E+03 -0.22009589311E+03  0.30213664442E+03  0.68641987448E+02 0.  0.
         13    1    3    3    0    0  0.76148982144E+02  0.22180515692E+02 -0.88282005978E+02  0.11867752667E+03  0.00000000000E+00 0.  1.
        -13    1    3    3    0    0  0.71351831540E+02  0.10578876679E+03 -0.13181388714E+03  0.18345911775E+03  0.00000000000E+00 0. -1.
         22    1    1    2    0    0 -0.14750081368E+03 -0.12796928249E+03  0.44379049546E+03  0.48485320578E+03  0.00000000000E+00 0. -1.
<mgrwt>
<rscale>  0 0.75452883E+03</rscale>
<asrwt>0</asrwt>
<pdfrwt beam="1">  1        1 0.77744958E-01 0.75452883E+03</pdfrwt>
<pdfrwt beam="2">  1       -1 0.43330404E-01 0.75452883E+03</pdfrwt>
<totfact> 0.23230598E+02</totfact>
</mgrwt>
</event>
<event>
 6    1  0.1831439E-005  0.1440141E+04  0.7818608E-02  0.8925264E-01
         -1   -1    0    0    0  501 -0.00000000000E+00  0.00000000000E+00  0.35017289559E+03  0.35017289559E+03  0.00000000000E+00 0.  1.
          1   -1    0    0  501    0  0.00000000000E+00 -0.00000000000E+00 -0.14807008206E+04  0.14807008206E+04  0.00000000000E+00 0. -1.
         23    2    1    2    0    0 -0.19698579465E+03 -0.21415377261E+03  0.26577869261E+03  0.40457171030E+03  0.91513461924E+02 0.  0.
         13    1    3    3    0    0 -0.11168212664E+03 -0.16531620951E+03  0.13465282299E+03  0.24069426515E+03  0.00000000000E+00 0.  1.
        -13    1    3    3    0    0 -0.85303668002E+02 -0.48837563100E+02  0.13112586962E+03  0.16387744514E+03  0.00000000000E+00 0. -1.
         22    1    1    2    0    0  0.19698579465E+03  0.21415377261E+03 -0.13963066177E+04  0.14263020059E+04  0.00000000000E+00 0. -1.
<mgrwt>
<rscale>  0 0.14401407E+04</rscale>
<asrwt>0</asrwt>
<pdfrwt beam="1">  1        1 0.22780012E+00 0.14401407E+04</pdfrwt>
<pdfrwt beam="2">  1       -1 0.53872754E-01 0.14401407E+04</pdfrwt>
<totfact> 0.22806359E+01</totfact>
</mgrwt>
</event>
<event>
 6    1  0.1831439E-005  0.9427521E+03  0.7818608E-02  0.9373663E-01
         -1   -1    0    0    0  501 -0.00000000000E+00  0.00000000000E+00  0.14873349618E+03  0.14873349618E+03  0.00000000000E+00 0.  1.
          1   -1    0    0  501    0  0.00000000000E+00 -0.00000000000E+00 -0.14939163229E+04  0.14939163229E+04  0.00000000000E+00 0. -1.
         23    2    1    2    0    0 -0.44617657353E+03  0.17821954816E+02 -0.44241244924E+03  0.63548274690E+03  0.93372316661E+02 0.  0.
         13    1    3    3    0    0 -0.38847600177E+02  0.28637735418E+02 -0.55948388037E+02  0.73888280893E+02  0.00000000000E+00 0.  1.
        -13    1    3    3    0    0 -0.40732897336E+03 -0.10815780602E+02 -0.38646406120E+03  0.56159446601E+03  0.00000000000E+00 0. -1.
         22    1    1    2    0    0  0.44617657353E+03 -0.17821954816E+02 -0.90277037743E+03  0.10071670721E+04  0.00000000000E+00 0. -1.
<mgrwt>
<rscale>  0 0.94275214E+03</rscale>
<asrwt>0</asrwt>
<pdfrwt beam="1">  1        1 0.22983329E+00 0.94275214E+03</pdfrwt>
<pdfrwt beam="2">  1       -1 0.22882076E-01 0.94275214E+03</pdfrwt>
<totfact> 0.10829829E+02</totfact>
</mgrwt>
</event>
<event>
 6    1  0.1831439E-005  0.2292203E+04  0.7818608E-02  0.8481002E-01
          1   -1    0    0  501    0  0.00000000000E+00  0.00000000000E+00  0.11815692559E+04  0.11815692559E+04  0.00000000000E+00 0. -1.
         -1   -1    0    0    0  501 -0.00000000000E+00 -0.00000000000E+00 -0.11116987134E+04  0.11116987134E+04  0.00000000000E+00 0.  1.
         23    2    1    2    0    0 -0.35897018937E+03  0.30232791322E+02  0.11217462947E+04  0.11814153637E+04  0.87486533499E+02 0.  0.
         11    1    3    3    0    0 -0.64021182260E+02  0.30258714132E+02  0.30293507254E+03  0.31110120497E+03  0.00000000000E+00 0. -1.
        -11    1    3    3    0    0 -0.29494900711E+03 -0.25922809223E-01  0.81881122213E+03  0.87031415877E+03  0.00000000000E+00 0.  1.
         22    1    1    2    0    0  0.35897018937E+03 -0.30232791322E+02 -0.10518757521E+04  0.11118526055E+04  0.00000000000E+00 0.  1.
<mgrwt>
<rscale>  0 0.22922033E+04</rscale>
<asrwt>0</asrwt>
<pdfrwt beam="1">  1        1 0.18177989E+00 0.22922033E+04</pdfrwt>
<pdfrwt beam="2">  1       -1 0.17103057E+00 0.22922033E+04</pdfrwt>
<totfact> 0.24112210E+00</totfact>
</mgrwt>
</event>
<event>
 6    1  0.1831439E-005  0.1367626E+04  0.7818608E-02  0.8977592E-01
         -1   -1    0    0    0  501 -0.00000000000E+00  0.00000000000E+00  0.52533988904E+03  0.52533988904E+03  0.00000000000E+00 0.  1.
          1   -1    0    0  501    0  0.00000000000E+00 -0.00000000000E+00 -0.89009086119E+03  0.89009086119E+03  0.00000000000E+00 0. -1.
         23    2    1    2    0    0 -0.58691219253E+03 -0.34105889065E+02  0.17378982724E+03  0.61815079562E+03  0.79236157574E+02 0.  0.
         11    1    3    3    0    0 -0.45858845811E+03 -0.57422347805E+02  0.12369315920E+03  0.47843567757E+03  0.00000000000E+00 0. -1.
        -11    1    3    3    0    0 -0.12832373442E+03  0.23316458740E+02  0.50096668036E+02  0.13971511805E+03  0.00000000000E+00 0.  1.
         22    1    1    2    0    0  0.58691219253E+03  0.34105889065E+02 -0.53854079939E+03  0.79727995460E+03  0.00000000000E+00 0. -1.
<mgrwt>
<rscale>  0 0.13676260E+04</rscale>
<asrwt>0</asrwt>
<pdfrwt beam="1">  1        1 0.13693705E+00 0.13676260E+04</pdfrwt>
<pdfrwt beam="2">  1       -1 0.80821522E-01 0.13676260E+04</pdfrwt>
<totfact> 0.27671557E+01</totfact>
</mgrwt>
</event>
<event>
 6    1  0.1831439E-005  0.1143977E+04  0.7818608E-02  0.9163358E-01
          1   -1    0    0  501    0  0.00000000000E+00  0.00000000000E+00  0.23228058311E+04  0.23228058311E+04  0.00000000000E+00 0. -1.
         -1   -1    0    0    0  501 -0.00000000000E+00 -0.00000000000E+00 -0.14085162034E+03  0.14085162034E+03  0.00000000000E+00 0.  1.
         23    2    1    2    0    0  0.41942055785E+03  0.82349342443E+02  0.19052930088E+04  0.19545047836E+04  0.85161499608E+02 0.  0.
         11    1    3    3    0    0  0.20453729494E+03  0.80597832183E+02  0.10326726729E+04  0.10558145504E+04  0.00000000000E+00 0. -1.
        -11    1    3    3    0    0  0.21488326291E+03  0.17515102604E+01  0.87262033596E+03  0.89869023317E+03  0.00000000000E+00 0.  1.
         22    1    1    2    0    0 -0.41942055785E+03 -0.82349342443E+02  0.27666120195E+03  0.50915266788E+03  0.00000000000E+00 0.  1.
<mgrwt>
<rscale>  0 0.11439772E+04</rscale>
<asrwt>0</asrwt>
<pdfrwt beam="1">  1        1 0.35735471E+00 0.11439772E+04</pdfrwt>
<pdfrwt beam="2">  1       -1 0.21669482E-01 0.11439772E+04</pdfrwt>
<totfact> 0.32055797E+01</totfact>
</mgrwt>
</event>
<event>
 6    1  0.1831439E-005  0.3029448E+04  0.7818608E-02  0.8235372E-01
          1   -1    0    0  501    0  0.00000000000E+00  0.00000000000E+00  0.25185653652E+04  0.25185653652E+04  0.00000000000E+00 0. -1.
         -1   -1    0    0    0  501 -0.00000000000E+00 -0.00000000000E+00 -0.91099012782E+03  0.91099012782E+03  0.00000000000E+00 0.  1.
         23    2    1    2    0    0 -0.31167289585E+03 -0.14402341525E+03  0.24730123220E+04  0.24985001320E+04  0.93969286326E+02 0.  0.
         11    1    3    3    0    0 -0.45682802145E+02 -0.49749506090E+02  0.31836259631E+03  0.32544842064E+03  0.00000000000E+00 0. -1.
        -11    1    3    3    0    0 -0.26599009371E+03 -0.94273909163E+02  0.21546497256E+04  0.21730517113E+04  0.00000000000E+00 0.  1.
         22    1    1    2    0    0  0.31167289585E+03  0.14402341525E+03 -0.86543708453E+03  0.93105536110E+03  0.00000000000E+00 0.  1.
<mgrwt>
<rscale>  0 0.30294476E+04</rscale>
<asrwt>0</asrwt>
<pdfrwt beam="1">  1        1 0.38747159E+00 0.30294476E+04</pdfrwt>
<pdfrwt beam="2">  1       -1 0.14015233E+00 0.30294476E+04</pdfrwt>
<totfact> 0.46643585E-01</totfact>
</mgrwt>
</event>
<event>
 6    1  0.1831439E-005  0.9492673E+03  0.7818608E-02  0.9366007E-01
          2   -1    0    0  501    0  0.00000000000E+00  0.00000000000E+00  0.58579392554E+03  0.58579392554E+03  0.00000000000E+00 0. -1.
         -2   -1    0    0    0  501 -0.00000000000E+00 -0.00000000000E+00 -0.38456717370E+03  0.38456717370E+03  0.00000000000E+00 0.  1.
         23    2    1    2    0    0  0.45607513815E+03 -0.11610529231E+03  0.94406824644E+02  0.48776865484E+03  0.86721632642E+02 0.  0.
         11    1    3    3    0    0  0.33181746073E+03 -0.10335833909E+03  0.34543815382E+02  0.34925499093E+03  0.00000000000E+00 0.  1.
        -11    1    3    3    0    0  0.12425767742E+03 -0.12746953217E+02  0.59863009262E+02  0.13851366392E+03  0.00000000000E+00 0. -1.
         22    1    1    2    0    0 -0.45607513815E+03  0.11610529231E+03  0.10681992720E+03  0.48259244440E+03  0.00000000000E+00 0.  1.
<mgrwt>
<rscale>  0 0.94926733E+03</rscale>
<asrwt>0</asrwt>
<pdfrwt beam="1">  1        2 0.90122142E-01 0.94926733E+03</pdfrwt>
<pdfrwt beam="2">  1       -2 0.59164181E-01 0.94926733E+03</pdfrwt>
<totfact> 0.13641617E+02</totfact>
</mgrwt>
</event>
<event>
 6    1  0.1831439E-005  0.5756916E+04  0.7818608E-02  0.7721294E-01
          2   -1    0    0  501    0  0.00000000000E+00  0.00000000000E+00  0.31520145469E+04  0.31520145469E+04  0.00000000000E+00 0. -1.
         -2   -1    0    0    0  501 -0.00000000000E+00 -0.00000000000E+00 -0.26286427506E+04  0.26286427506E+04  0.00000000000E+00 0.  1.
         23    2    1    2    0    0  0.24229256240E+04  0.14725570144E+04  0.75647567115E+03  0.29357794166E+04  0.86905706305E+02 0.  0.
         13    1    3    3    0    0  0.49754024509E+03  0.34194596481E+03  0.14959630914E+03  0.62197459276E+03  0.00000000000E+00 0.  1.
        -13    1    3    3    0    0  0.19253853789E+04  0.11306110496E+04  0.60687936201E+03  0.23138048239E+04  0.00000000000E+00 0. -1.
         22    1    1    2    0    0 -0.24229256240E+04 -0.14725570144E+04 -0.23310387481E+03  0.28448778808E+04  0.00000000000E+00 0.  1.
<mgrwt>
<rscale>  0 0.57569159E+04</rscale>
<asrwt>0</asrwt>
<pdfrwt beam="1">  1        2 0.48492531E+00 0.57569159E+04</pdfrwt>
<pdfrwt beam="2">  1       -2 0.40440658E+00 0.57569159E+04</pdfrwt>
<totfact> 0.66402220E-03</totfact>
</mgrwt>
</event>
<event>
 6    1  0.1831439E-005  0.2190757E+04  0.7818608E-02  0.8522285E-01
         -2   -1    0    0    0  501 -0.00000000000E+00  0.00000000000E+00  0.12133037560E+04  0.12133037560E+04  0.00000000000E+00 0.  1.
          2   -1    0    0  501    0  0.00000000000E+00 -0.00000000000E+00 -0.98891442410E+03  0.98891442410E+03  0.00000000000E+00 0. -1.
         23    2    1    2    0    0  0.76441283307E+03  0.13015615700E+03  0.88746620771E+03  0.11819542202E+04  0.90287896992E+02 0.  0.
         11    1    3    3    0    0  0.21057644944E+03  0.56339590184E+02  0.30435043894E+03  0.37436049492E+03  0.00000000000E+00 0. -1.
        -11    1    3    3    0    0  0.55383638363E+03  0.73816566818E+02  0.58311576878E+03  0.80759372532E+03  0.00000000000E+00 0.  1.
         22    1    1    2    0    0 -0.76441283307E+03 -0.13015615700E+03 -0.66307687581E+03  0.10202639599E+04  0.00000000000E+00 0. -1.
<mgrwt>
<rscale>  0 0.21907566E+04</rscale>
<asrwt>0</asrwt>
<pdfrwt beam="1">  1        2 0.15214068E+00 0.21907566E+04</pdfrwt>
<pdfrwt beam="2">  1       -2 0.18666212E+00 0.21907566E+04</pdfrwt>
<totfact> 0.38229976E+00</totfact>
</mgrwt>
</event>
<event>
 6    1  0.1831439E-005  0.1892420E+04  0.7818608E-02  0.8658639E-01
         -1   -1    0    0    0  501 -0.00000000000E+00  0.00000000000E+00  0.38847194734E+03  0.38847194734E+03  0.00000000000E+00 0.  1.
          1   -1    0    0  501    0  0.00000000000E+00 -0.00000000000E+00 -0.23047052814E+04  0.23047052814E+04  0.00000000000E+00 0. -1.
         23    2    1    2    0    0 -0.25151311013E+03 -0.86957894596E+03 -0.57894296042E+03  0.10783175038E+04  0.90373113854E+02 0.  0.
         11    1    3    3    0    0 -0.16112702786E+03 -0.62770629407E+03 -0.37062610972E+03  0.74655262636E+03  0.00000000000E+00 0.  1.
        -11    1    3    3    0    0 -0.90386082273E+02 -0.24187265190E+03 -0.20831685071E+03  0.33176487743E+03  0.00000000000E+00 0. -1.
         22    1    1    2    0    0  0.25151311013E+03  0.86957894596E+03 -0.13372903736E+04  0.16148597249E+04  0.00000000000E+00 0. -1.
<mgrwt>
<rscale>  0 0.18924200E+04</rscale>
<asrwt>0</asrwt>
<pdfrwt beam="1">  1        1 0.35457004E+00 0.18924200E+04</pdfrwt>
<pdfrwt beam="2">  1       -1 0.59764915E-01 0.18924200E+04</pdfrwt>
<totfact> 0.49112487E+00</totfact>
</mgrwt>
</event>
<event>
 6    1  0.1831439E-005  0.1532505E+04  0.7818608E-02  0.8863120E-01
         -2   -1    0    0    0  501 -0.00000000000E+00  0.00000000000E+00  0.20576808406E+03  0.20576808406E+03  0.00000000000E+00 0.  1.
          2   -1    0    0  501    0  0.00000000000E+00 -0.00000000000E+00 -0.28534220195E+04  0.28534220195E+04  0.00000000000E+00 0. -1.
         23    2    1    2    0    0 -0.35788723359E+03  0.48656606630E+03 -0.39567031575E+03  0.72761123246E+03  0.89628667267E+02 0.  0.
         13    1    3    3    0    0 -0.19052272148E+03  0.33147553523E+03 -0.24074405652E+03  0.45181040117E+03  0.00000000000E+00 0. -1.
        -13    1    3    3    0    0 -0.16736451211E+03  0.15509053107E+03 -0.15492625923E+03  0.27580083129E+03  0.00000000000E+00 0.  1.
         22    1    1    2    0    0  0.35788723359E+03 -0.48656606630E+03 -0.22519836197E+04  0.23315788711E+04  0.00000000000E+00 0. -1.
<mgrwt>
<rscale>  0 0.15325054E+04</rscale>
<asrwt>0</asrwt>
<pdfrwt beam="1">  1        2 0.43898799E+00 0.15325054E+04</pdfrwt>
<pdfrwt beam="2">  1       -2 0.31656630E-01 0.15325054E+04</pdfrwt>
<totfact> 0.19276068E+01</totfact>
</mgrwt>
</event>
<event>
 6    1  0.1831439E-005  0.6852181E+03  0.7818608E-02  0.9742850E-01
         -2   -1    0    0    0  501 -0.00000000000E+00  0.00000000000E+00  0.51647354213E+03  0.51647354213E+03  0.00000000000E+00 0.  1.
          2   -1    0    0  501    0  0.00000000000E+00 -0.00000000000E+00 -0.22727392645E+03  0.22727392645E+03  0.00000000000E+00 0. -1.
         23    2    1    2    0    0  0.14982469607E+03 -0.18876337236E+03  0.40267427400E+03  0.47737264173E+03  0.87515814780E+02 0.  0.
         11    1    3    3    0    0  0.99498825720E+02 -0.10870431556E+03  0.31780718230E+03  0.35031136103E+03  0.00000000000E+00 0. -1.
        -11    1    3    3    0    0  0.50325870354E+02 -0.80059056792E+02  0.84867091699E+02  0.12706128071E+03  0.00000000000E+00 0.  1.
         22    1    1    2    0    0 -0.14982469607E+03  0.18876337236E+03 -0.11347465832E+03  0.26637482685E+03  0.00000000000E+00 0. -1.
<mgrwt>
<rscale>  0 0.68521813E+03</rscale>
<asrwt>0</asrwt>
<pdfrwt beam="1">  1        2 0.34965220E-01 0.68521813E+03</pdfrwt>
<pdfrwt beam="2">  1       -2 0.79457467E-01 0.68521813E+03</pdfrwt>
<totfact> 0.21232962E+02</totfact>
</mgrwt>
</event>
<event>
 6    1  0.1831439E-005  0.2398811E+04  0.7818608E-02  0.8439949E-01
         -2   -1    0    0    0  501 -0.00000000000E+00  0.00000000000E+00  0.68836374589E+03  0.68836374589E+03  0.00000000000E+00 0.  1.
          2   -1    0    0  501    0  0.00000000000E+00 -0.00000000000E+00 -0.20898449018E+04  0.20898449018E+04  0.00000000000E+00 0. -1.
         23    2    1    2    0    0 -0.12134121554E+03 -0.88756830491E+03  0.21848022938E+03  0.92705331214E+03  0.95880375772E+02 0.  0.
         11    1    3    3    0    0 -0.10813785204E+03 -0.63356435045E+03  0.19484005868E+03  0.67161017687E+03  0.00000000000E+00 0. -1.
        -11    1    3    3    0    0 -0.13203363498E+02 -0.25400395446E+03  0.23640170698E+02  0.25544313528E+03  0.00000000000E+00 0.  1.
         22    1    1    2    0    0  0.12134121554E+03  0.88756830491E+03 -0.16199613853E+04  0.18511553355E+04  0.00000000000E+00 0. -1.
<mgrwt>
<rscale>  0 0.23988109E+04</rscale>
<asrwt>0</asrwt>
<pdfrwt beam="1">  1        2 0.32151460E+00 0.23988109E+04</pdfrwt>
<pdfrwt beam="2">  1       -2 0.10590211E+00 0.23988109E+04</pdfrwt>
<totfact> 0.38550408E+00</totfact>
</mgrwt>
</event>
<event>
 6    1  0.1831439E-005  0.2215284E+04  0.7818608E-02  0.8512093E-01
         -1   -1    0    0    0  501 -0.00000000000E+00  0.00000000000E+00  0.11766686126E+04  0.11766686126E+04  0.00000000000E+00 0. -1.
          1   -1    0    0  501    0  0.00000000000E+00 -0.00000000000E+00 -0.10426646974E+04  0.10426646974E+04  0.00000000000E+00 0.  1.
         23    2    1    2    0    0 -0.97006431488E+02 -0.76875197077E+03  0.85765209503E+03  0.11591179883E+04  0.87163950599E+02 0.  0.
         13    1    3    3    0    0 -0.25481361386E+02 -0.52680797659E+03  0.57658892787E+03  0.78142865043E+03  0.00000000000E+00 0.  1.
        -13    1    3    3    0    0 -0.71525070102E+02 -0.24194399418E+03  0.28106316716E+03  0.37768933783E+03  0.00000000000E+00 0. -1.
         22    1    1    2    0    0  0.97006431488E+02  0.76875197077E+03 -0.72364817982E+03  0.10602153217E+04  0.00000000000E+00 0.  1.
<mgrwt>
<rscale>  0 0.22152840E+04</rscale>
<asrwt>0</asrwt>
<pdfrwt beam="1">  1        1 0.16040995E+00 0.22152840E+04</pdfrwt>
<pdfrwt beam="2">  1       -1 0.18102594E+00 0.22152840E+04</pdfrwt>
<totfact> 0.26119805E+00</totfact>
</mgrwt>
</event>
<event>
 6    1  0.1831439E-005  0.2709257E+04  0.7818608E-02  0.8332008E-01
          2   -1    0    0  501    0  0.00000000000E+00  0.00000000000E+00  0.41217716969E+03  0.41217716969E+03  0.00000000000E+00 0. -1.
         -2   -1    0    0    0  501 -0.00000000000E+00 -0.00000000000E+00 -0.44520143614E+04  0.44520143614E+04  0.00000000000E+00 0.  1.
         23    2    1    2    0    0 -0.59222489631E+03  0.73523864843E+02 -0.42025909398E+04  0.42456247448E+04  0.86155556987E+02 0.  0.
         11    1    3    3    0    0 -0.47682862932E+03  0.89237360324E+02 -0.32690506478E+04  0.33048481033E+04  0.00000000000E+00 0. -1.
        -11    1    3    3    0    0 -0.11539626699E+03 -0.15713495481E+02 -0.93354029199E+03  0.94077664148E+03  0.00000000000E+00 0.  1.
         22    1    1    2    0    0  0.59222489631E+03 -0.73523864843E+02  0.16275374812E+03  0.61856678624E+03  0.00000000000E+00 0. -1.
<mgrwt>
<rscale>  0 0.27092572E+04</rscale>
<asrwt>0</asrwt>
<pdfrwt beam="1">  1        2 0.63411870E-01 0.27092572E+04</pdfrwt>
<pdfrwt beam="2">  1       -2 0.68492531E+00 0.27092572E+04</pdfrwt>
<totfact> 0.17112035E-02</totfact>
</mgrwt>
</event>
<event>
 6    1  0.1831439E-005  0.8015187E+03  0.7818608E-02  0.9557821E-01
          1   -1    0    0  501    0  0.00000000000E+00  0.00000000000E+00  0.16249988505E+04  0.16249988505E+04  0.00000000000E+00 0.  1.
         -1   -1    0    0    0  501 -0.00000000000E+00 -0.00000000000E+00 -0.98835797588E+02  0.98835797588E+02  0.00000000000E+00 0. -1.
         23    2    1    2    0    0  0.37506675967E+03  0.11809581908E+02  0.50392494513E+03  0.63489695959E+03  0.91319540819E+02 0.  0.
         11    1    3    3    0    0  0.25499476664E+03  0.74326550624E+01  0.26718616046E+03  0.36941307465E+03  0.00000000000E+00 0.  1.
        -11    1    3    3    0    0  0.12007199303E+03  0.43769268460E+01  0.23673878467E+03  0.26548388494E+03  0.00000000000E+00 0. -1.
         22    1    1    2    0    0 -0.37506675967E+03 -0.11809581908E+02  0.10222381078E+04  0.10889376885E+04  0.00000000000E+00 0.  1.
<mgrwt>
<rscale>  0 0.80151870E+03</rscale>
<asrwt>0</asrwt>
<pdfrwt beam="1">  1        1 0.24999980E+00 0.80151870E+03</pdfrwt>
<pdfrwt beam="2">  1       -1 0.15205508E-01 0.80151870E+03</pdfrwt>
<totfact> 0.17555794E+02</totfact>
</mgrwt>
</event>
<event>
 6    1  0.1831439E-005  0.4595982E+03  0.7818608E-02  0.1024898E+00
         -2   -1    0    0    0  501 -0.00000000000E+00  0.00000000000E+00  0.56801941255E+02  0.56801941255E+02  0.00000000000E+00 0. -1.
          2   -1    0    0  501    0  0.00000000000E+00 -0.00000000000E+00 -0.92967982354E+03  0.92967982354E+03  0.00000000000E+00 0.  1.
         23    2    1    2    0    0  0.28050055328E+02 -0.21921097896E+03 -0.45669332439E+03  0.51526011299E+03  0.89910692309E+02 0.  0.
         11    1    3    3    0    0  0.52429994323E+02 -0.73641400218E+02 -0.15613114271E+03  0.18041311996E+03  0.00000000000E+00 0. -1.
        -11    1    3    3    0    0 -0.24379938994E+02 -0.14556957875E+03 -0.30056218168E+03  0.33484699302E+03  0.00000000000E+00 0.  1.
         22    1    1    2    0    0 -0.28050055328E+02  0.21921097896E+03 -0.41618455790E+03  0.47122165181E+03  0.00000000000E+00 0.  1.
<mgrwt>
<rscale>  0 0.45959817E+03</rscale>
<asrwt>0</asrwt>
<pdfrwt beam="1">  1        2 0.14302767E+00 0.45959817E+03</pdfrwt>
<pdfrwt beam="2">  1       -2 0.87387599E-02 0.45959817E+03</pdfrwt>
<totfact> 0.23971900E+03</totfact>
</mgrwt>
</event>
<event>
 6    1  0.1831439E-005  0.1380156E+04  0.7818608E-02  0.8968309E-01
          1   -1    0    0  501    0  0.00000000000E+00  0.00000000000E+00  0.66930222971E+03  0.66930222971E+03  0.00000000000E+00 0. -1.
         -1   -1    0    0    0  501 -0.00000000000E+00 -0.00000000000E+00 -0.71149906145E+03  0.71149906145E+03  0.00000000000E+00 0.  1.
         23    2    1    2    0    0 -0.54628451297E+03  0.16775438599E+03 -0.40263274050E+03  0.70516651743E+03  0.92619600799E+02 0.  0.
         13    1    3    3    0    0 -0.35031769942E+03  0.71675220696E+02 -0.21418943627E+03  0.41681763686E+03  0.00000000000E+00 0. -1.
        -13    1    3    3    0    0 -0.19596681355E+03  0.96079165290E+02 -0.18844330423E+03  0.28834888057E+03  0.00000000000E+00 0.  1.
         22    1    1    2    0    0  0.54628451297E+03 -0.16775438599E+03  0.36043590876E+03  0.67563477372E+03  0.00000000000E+00 0. -1.
<mgrwt>
<rscale>  0 0.13801564E+04</rscale>
<asrwt>0</asrwt>
<pdfrwt beam="1">  1        1 0.10296957E+00 0.13801564E+04</pdfrwt>
<pdfrwt beam="2">  1       -1 0.10946139E+00 0.13801564E+04</pdfrwt>
<totfact> 0.21992396E+01</totfact>
</mgrwt>
</event>
<event>
 6    1  0.1831439E-005  0.1363614E+04  0.7818608E-02  0.8980586E-01
          2   -1    0    0  501    0  0.00000000000E+00  0.00000000000E+00  0.22518297613E+04  0.22518297613E+04  0.00000000000E+00 0. -1.
         -2   -1    0    0    0  501 -0.00000000000E+00 -0.00000000000E+00 -0.20643703553E+03  0.20643703553E+03  0.00000000000E+00 0.  1.
         23    2    1    2    0    0  0.44447509356E+03 -0.47973986784E+03  0.13471606551E+04  0.15015868743E+04  0.11051181361E+03 0.  0.
         11    1    3    3    0    0  0.41229926432E+03 -0.46828537704E+03  0.12249611944E+04  0.13747042611E+04  0.00000000000E+00 0. -1.
        -11    1    3    3    0    0  0.32175829236E+02 -0.11454490806E+02  0.12219946069E+03  0.12688261322E+03  0.00000000000E+00 0.  1.
         22    1    1    2    0    0 -0.44447509356E+03  0.47973986784E+03  0.69823207069E+03  0.95667992251E+03  0.00000000000E+00 0.  1.
<mgrwt>
<rscale>  0 0.13636144E+04</rscale>
<asrwt>0</asrwt>
<pdfrwt beam="1">  1        2 0.34643533E+00 0.13636144E+04</pdfrwt>
<pdfrwt beam="2">  1       -2 0.31759546E-01 0.13636144E+04</pdfrwt>
<totfact> 0.43497805E+01</totfact>
</mgrwt>
</event>
<event>
 6    1  0.3589036E-005  0.2600041E+04  0.7818608E-02  0.8368187E-01
          1   -1    0    0  501    0  0.00000000000E+00  0.00000000000E+00  0.23770248721E+04  0.23770248721E+04  0.00000000000E+00 0. -1.
         -1   -1    0    0    0  501 -0.00000000000E+00 -0.00000000000E+00 -0.71099544018E+03  0.71099544018E+03  0.00000000000E+00 0.  1.
         23    2    1    2    0    0 -0.12446867777E+04 -0.36438270635E+03  0.90818525807E+03  0.15859058948E+04  0.90978638855E+02 0.  0.
         11    1    3    3    0    0 -0.51873716372E+03 -0.14911888353E+03  0.32371686146E+03  0.62937849728E+03  0.00000000000E+00 0. -1.
        -11    1    3    3    0    0 -0.72594961403E+03 -0.21526382282E+03  0.58446839660E+03  0.95652739750E+03  0.00000000000E+00 0.  1.
         22    1    1    2    0    0  0.12446867777E+04  0.36438270635E+03  0.75784417382E+03  0.15021144175E+04  0.00000000000E+00 0.  1.
<mgrwt>
<rscale>  0 0.26000414E+04</rscale>
<asrwt>0</asrwt>
<pdfrwt beam="1">  1        1 0.36569613E+00 0.26000414E+04</pdfrwt>
<pdfrwt beam="2">  1       -1 0.10938391E+00 0.26000414E+04</pdfrwt>
<totfact> 0.11219126E+00</totfact>
</mgrwt>
</event>
<event>
 6    1  0.1831439E-005  0.1955021E+04  0.7818608E-02  0.8627943E-01
         -1   -1    0    0    0  501 -0.00000000000E+00  0.00000000000E+00  0.10053268055E+04  0.10053268055E+04  0.00000000000E+00 0.  1.
          1   -1    0    0  501    0  0.00000000000E+00 -0.00000000000E+00 -0.95046418803E+03  0.95046418803E+03  0.00000000000E+00 0. -1.
         23    2    1    2    0    0  0.46609998954E+03 -0.39185647508E+02 -0.82930129244E+03  0.95552576131E+03  0.80648196937E+02 0.  0.
         11    1    3    3    0    0  0.45093805873E+03 -0.48193519814E+02 -0.76967642849E+03  0.89334738637E+03  0.00000000000E+00 0.  1.
        -11    1    3    3    0    0  0.15161930811E+02  0.90078723062E+01 -0.59624863944E+02  0.62178374937E+02  0.00000000000E+00 0. -1.
         22    1    1    2    0    0 -0.46609998954E+03  0.39185647508E+02  0.88416390988E+03  0.10002652322E+04  0.00000000000E+00 0.  1.
<mgrwt>
<rscale>  0 0.19550214E+04</rscale>
<asrwt>0</asrwt>
<pdfrwt beam="1">  1        1 0.14622526E+00 0.19550214E+04</pdfrwt>
<pdfrwt beam="2">  1       -1 0.15466566E+00 0.19550214E+04</pdfrwt>
<totfact> 0.49510188E+00</totfact>
</mgrwt>
</event>
<event>
 6    1  0.1831439E-005  0.3714652E+04  0.7818608E-02  0.8064722E-01
          2   -1    0    0  501    0  0.00000000000E+00  0.00000000000E+00  0.20528899752E+04  0.20528899752E+04  0.00000000000E+00 0. -1.
         -2   -1    0    0    0  501 -0.00000000000E+00 -0.00000000000E+00 -0.16803921348E+04  0.16803921348E+04  0.00000000000E+00 0.  1.
         23    2    1    2    0    0 -0.42080838543E+03  0.17175060826E+04 -0.38086850374E+03  0.18111822975E+04  0.91725988154E+02 0.  0.
         13    1    3    3    0    0 -0.93725007963E+02  0.24876154462E+03 -0.64972021438E+02  0.27365680472E+03  0.00000000000E+00 0.  1.
        -13    1    3    3    0    0 -0.32708337747E+03  0.14687445379E+04 -0.31589648230E+03  0.15375254928E+04  0.00000000000E+00 0. -1.
         22    1    1    2    0    0  0.42080838543E+03 -0.17175060826E+04  0.75336634413E+03  0.19220998125E+04  0.00000000000E+00 0. -1.
<mgrwt>
<rscale>  0 0.37146522E+04</rscale>
<asrwt>0</asrwt>
<pdfrwt beam="1">  1        2 0.31582923E+00 0.37146522E+04</pdfrwt>
<pdfrwt beam="2">  1       -2 0.25852187E+00 0.37146522E+04</pdfrwt>
<totfact> 0.28717677E-01</totfact>
</mgrwt>
</event>
<event>
 6    1  0.1831439E-005  0.1994637E+04  0.7818608E-02  0.8609132E-01
          2   -1    0    0  501    0  0.00000000000E+00  0.00000000000E+00  0.13193770436E+04  0.13193770436E+04  0.00000000000E+00 0. -1.
         -2   -1    0    0    0  501 -0.00000000000E+00 -0.00000000000E+00 -0.75387438464E+03  0.75387438464E+03  0.00000000000E+00 0.  1.
         23    2    1    2    0    0 -0.42059387490E+03 -0.15331543014E+03  0.12072354340E+04  0.12908028463E+04  0.91377054658E+02 0.  0.
         13    1    3    3    0    0 -0.21385432951E+03 -0.30173964866E+02  0.59399261412E+03  0.63203747360E+03  0.00000000000E+00 0. -1.
        -13    1    3    3    0    0 -0.20673954539E+03 -0.12314146528E+03  0.61324281990E+03  0.65876537269E+03  0.00000000000E+00 0.  1.
         22    1    1    2    0    0  0.42059387490E+03  0.15331543014E+03 -0.64173277510E+03  0.78244858192E+03  0.00000000000E+00 0.  1.
<mgrwt>
<rscale>  0 0.19946374E+04</rscale>
<asrwt>0</asrwt>
<pdfrwt beam="1">  1        2 0.20298108E+00 0.19946374E+04</pdfrwt>
<pdfrwt beam="2">  1       -2 0.11598067E+00 0.19946374E+04</pdfrwt>
<totfact> 0.86477281E+00</totfact>
</mgrwt>
</event>
<event>
 6    1  0.1831439E-005  0.6813630E+03  0.7818608E-02  0.9749646E-01
         -1   -1    0    0    0  501 -0.00000000000E+00  0.00000000000E+00  0.86308836143E+02  0.86308836143E+02  0.00000000000E+00 0.  1.
          1   -1    0    0  501    0  0.00000000000E+00 -0.00000000000E+00 -0.13447510183E+04  0.13447510183E+04  0.00000000000E+00 0. -1.
         23    2    1    2    0    0 -0.12694128575E+03 -0.19859475636E+03 -0.11393505312E+04  0.11669826146E+04  0.90414725411E+02 0.  0.
         13    1    3    3    0    0 -0.85015584338E+02 -0.73018887535E+02 -0.67040812419E+03  0.67971057112E+03  0.00000000000E+00 0. -1.
        -13    1    3    3    0    0 -0.41925701411E+02 -0.12557586882E+03 -0.46894240702E+03  0.48727204350E+03  0.00000000000E+00 0.  1.
         22    1    1    2    0    0  0.12694128575E+03  0.19859475636E+03 -0.11909165099E+03  0.26407723987E+03  0.00000000000E+00 0.  1.
<mgrwt>
<rscale>  0 0.68136303E+03</rscale>
<asrwt>0</asrwt>
<pdfrwt beam="1">  1        1 0.20688476E+00 0.68136303E+03</pdfrwt>
<pdfrwt beam="2">  1       -1 0.13278283E-01 0.68136303E+03</pdfrwt>
<totfact> 0.34342127E+02</totfact>
</mgrwt>
</event>
<event>
 6    1  0.1831439E-005  0.2644210E+04  0.7818608E-02  0.8353337E-01
          1   -1    0    0  501    0  0.00000000000E+00  0.00000000000E+00  0.29276268754E+04  0.29276268754E+04  0.00000000000E+00 0. -1.
         -1   -1    0    0    0  501 -0.00000000000E+00 -0.00000000000E+00 -0.59705773121E+03  0.59705773121E+03  0.00000000000E+00 0.  1.
         23    2    1    2    0    0 -0.59620024215E+03  0.54451143345E+03  0.25596484921E+04  0.26853844353E+04  0.86843147086E+02 0.  0.
         13    1    3    3    0    0 -0.52766104131E+03  0.46587390025E+03  0.21317743781E+04  0.22449780989E+04  0.00000000000E+00 0.  1.
        -13    1    3    3    0    0 -0.68539200841E+02  0.78637533192E+02  0.42787411397E+03  0.44040633634E+03  0.00000000000E+00 0. -1.
         22    1    1    2    0    0  0.59620024215E+03 -0.54451143345E+03 -0.22907934794E+03  0.83930017130E+03  0.00000000000E+00 0.  1.
<mgrwt>
<rscale>  0 0.26442105E+04</rscale>
<asrwt>0</asrwt>
<pdfrwt beam="1">  1        1 0.45040413E+00 0.26442105E+04</pdfrwt>
<pdfrwt beam="2">  1       -1 0.91855037E-01 0.26442105E+04</pdfrwt>
<totfact> 0.68319769E-01</totfact>
</mgrwt>
</event>
<event>
 6    1  0.1831439E-005  0.2059575E+04  0.7818608E-02  0.8579263E-01
         -2   -1    0    0    0  501 -0.00000000000E+00  0.00000000000E+00  0.57057356738E+03  0.57057356738E+03  0.00000000000E+00 0.  1.
          2   -1    0    0  501    0  0.00000000000E+00 -0.00000000000E+00 -0.18585898789E+04  0.18585898789E+04  0.00000000000E+00 0. -1.
         23    2    1    2    0    0  0.40253740080E+03 -0.46415763037E+03  0.32639701244E+03  0.70179288805E+03  0.92193183696E+02 0.  0.
         13    1    3    3    0    0  0.24882367995E+03 -0.22912796582E+03  0.20753469483E+03  0.39684190553E+03  0.00000000000E+00 0. -1.
        -13    1    3    3    0    0  0.15371372085E+03 -0.23502966455E+03  0.11886231761E+03  0.30495098253E+03  0.00000000000E+00 0.  1.
         22    1    1    2    0    0 -0.40253740080E+03  0.46415763037E+03 -0.16144133240E+04  0.17273705583E+04  0.00000000000E+00 0. -1.
<mgrwt>
<rscale>  0 0.20595750E+04</rscale>
<asrwt>0</asrwt>
<pdfrwt beam="1">  1        2 0.28593691E+00 0.20595750E+04</pdfrwt>
<pdfrwt beam="2">  1       -2 0.87780548E-01 0.20595750E+04</pdfrwt>
<totfact> 0.82855134E+00</totfact>
</mgrwt>
</event>
<event>
 6    1  0.1831439E-005  0.3340072E+04  0.7818608E-02  0.8152773E-01
          1   -1    0    0  501    0  0.00000000000E+00  0.00000000000E+00  0.19079289563E+04  0.19079289563E+04  0.00000000000E+00 0. -1.
         -1   -1    0    0    0  501 -0.00000000000E+00 -0.00000000000E+00 -0.14618053124E+04  0.14618053124E+04  0.00000000000E+00 0.  1.
         23    2    1    2    0    0  0.14507838705E+04  0.21853836736E+03 -0.57900436221E+03  0.15799241432E+04  0.91549931042E+02 0.  0.
         11    1    3    3    0    0  0.11270978076E+04  0.14470266688E+03 -0.41635909090E+03  0.12102244512E+04  0.00000000000E+00 0.  1.
        -11    1    3    3    0    0  0.32368606285E+03  0.73835700471E+02 -0.16264527131E+03  0.36969969195E+03  0.00000000000E+00 0. -1.
         22    1    1    2    0    0 -0.14507838705E+04 -0.21853836736E+03  0.10251280061E+04  0.17898101256E+04  0.00000000000E+00 0. -1.
<mgrwt>
<rscale>  0 0.33400723E+04</rscale>
<asrwt>0</asrwt>
<pdfrwt beam="1">  1        1 0.29352753E+00 0.33400723E+04</pdfrwt>
<pdfrwt beam="2">  1       -1 0.22489312E+00 0.33400723E+04</pdfrwt>
<totfact> 0.29043325E-01</totfact>
</mgrwt>
</event>
<event>
 6    1  0.1831439E-005  0.2707127E+04  0.7818608E-02  0.8332696E-01
         -2   -1    0    0    0  501 -0.00000000000E+00  0.00000000000E+00  0.69339776145E+03  0.69339776145E+03  0.00000000000E+00 0. -1.
          2   -1    0    0  501    0  0.00000000000E+00 -0.00000000000E+00 -0.26422556179E+04  0.26422556179E+04  0.00000000000E+00 0.  1.
         23    2    1    2    0    0 -0.10511341897E+04 -0.57516732684E+03 -0.17471627124E+04  0.21205889902E+04  0.92841711585E+02 0.  0.
         11    1    3    3    0    0 -0.82697123998E+03 -0.46845067341E+03 -0.13209587565E+04  0.16273473820E+04  0.00000000000E+00 0.  1.
        -11    1    3    3    0    0 -0.22416294972E+03 -0.10671665342E+03 -0.42620395588E+03  0.49324160829E+03  0.00000000000E+00 0. -1.
         22    1    1    2    0    0  0.10511341897E+04  0.57516732684E+03 -0.20169514411E+03  0.12150643891E+04  0.00000000000E+00 0. -1.
<mgrwt>
<rscale>  0 0.27071270E+04</rscale>
<asrwt>0</asrwt>
<pdfrwt beam="1">  1        2 0.40650086E+00 0.27071270E+04</pdfrwt>
<pdfrwt beam="2">  1       -2 0.10667658E+00 0.27071270E+04</pdfrwt>
<totfact> 0.17822773E+00</totfact>
</mgrwt>
</event>
<event>
 6    1  0.1831439E-005  0.5791277E+03  0.7818608E-02  0.9949681E-01
         -2   -1    0    0    0  501 -0.00000000000E+00  0.00000000000E+00  0.62762556458E+03  0.62762556458E+03  0.00000000000E+00 0.  1.
          2   -1    0    0  501    0  0.00000000000E+00 -0.00000000000E+00 -0.13359432833E+03  0.13359432833E+03  0.00000000000E+00 0. -1.
         23    2    1    2    0    0 -0.10082965824E+03  0.22460335660E+03  0.43466215699E+03  0.50796512918E+03  0.92109141609E+02 0.  0.
         13    1    3    3    0    0 -0.11442189755E+03  0.16705084215E+03  0.35600032055E+03  0.40955412674E+03  0.00000000000E+00 0. -1.
        -13    1    3    3    0    0  0.13592239301E+02  0.57552514455E+02  0.78661836444E+02  0.98411002444E+02  0.00000000000E+00 0.  1.
         22    1    1    2    0    0  0.10082965824E+03 -0.22460335660E+03  0.59369079251E+02  0.25325476373E+03  0.00000000000E+00 0. -1.
<mgrwt>
<rscale>  0 0.57912767E+03</rscale>
<asrwt>0</asrwt>
<pdfrwt beam="1">  1        2 0.20552974E-01 0.57912767E+03</pdfrwt>
<pdfrwt beam="2">  1       -2 0.96557777E-01 0.57912767E+03</pdfrwt>
<totfact> 0.24984888E+02</totfact>
</mgrwt>
</event>
<event>
 6    1  0.1831439E-005  0.3570638E+04  0.7818608E-02  0.8097251E-01
         -1   -1    0    0    0  501 -0.00000000000E+00  0.00000000000E+00  0.12195595776E+04  0.12195595776E+04  0.00000000000E+00 0.  1.
          1   -1    0    0  501    0  0.00000000000E+00 -0.00000000000E+00 -0.26135370935E+04  0.26135370935E+04  0.00000000000E+00 0. -1.
         23    2    1    2    0    0  0.52719130885E+03 -0.11984112236E+04  0.60355741659E+03  0.14447361574E+04  0.94132208198E+02 0.  0.
         13    1    3    3    0    0  0.28978658489E+03 -0.76619232281E+03  0.36092248425E+03  0.89514913839E+03  0.00000000000E+00 0. -1.
        -13    1    3    3    0    0  0.23740472396E+03 -0.43221890074E+03  0.24263493234E+03  0.54958701905E+03  0.00000000000E+00 0.  1.
         22    1    1    2    0    0 -0.52719130885E+03  0.11984112236E+04 -0.19975349325E+04  0.23883605137E+04  0.00000000000E+00 0.  1.
<mgrwt>
<rscale>  0 0.35706381E+04</rscale>
<asrwt>0</asrwt>
<pdfrwt beam="1">  1        1 0.40208262E+00 0.35706381E+04</pdfrwt>
<pdfrwt beam="2">  1       -1 0.18762455E+00 0.35706381E+04</pdfrwt>
<totfact> 0.16810171E-01</totfact>
</mgrwt>
</event>
<event>
 6    1  0.1831439E-005  0.2262505E+04  0.7818608E-02  0.8492853E-01
          2   -1    0    0  501    0  0.00000000000E+00  0.00000000000E+00  0.18135913739E+04  0.18135913739E+04  0.00000000000E+00 0. -1.
         -2   -1    0    0    0  501 -0.00000000000E+00 -0.00000000000E+00 -0.70563457237E+03  0.70563457237E+03  0.00000000000E+00 0.  1.
         23    2    1    2    0    0  0.99956709736E+02 -0.81392825995E+03  0.14195859044E+04  0.16419670028E+04  0.91438188384E+02 0.  0.
         11    1    3    3    0    0  0.11135021803E+03 -0.76416542328E+03  0.13554093533E+04  0.15599622368E+04  0.00000000000E+00 0. -1.
        -11    1    3    3    0    0 -0.11393508292E+02 -0.49762836677E+02  0.64176551083E+02  0.82004766046E+02  0.00000000000E+00 0.  1.
         22    1    1    2    0    0 -0.99956709736E+02  0.81392825995E+03 -0.31162910282E+03  0.87725894347E+03  0.00000000000E+00 0.  1.
<mgrwt>
<rscale>  0 0.22625055E+04</rscale>
<asrwt>0</asrwt>
<pdfrwt beam="1">  1        2 0.27901406E+00 0.22625055E+04</pdfrwt>
<pdfrwt beam="2">  1       -2 0.10855917E+00 0.22625055E+04</pdfrwt>
<totfact> 0.52312786E+00</totfact>
</mgrwt>
</event>
<event>
 6    1  0.1831439E-005  0.2374564E+04  0.7818608E-02  0.8449088E-01
         -2   -1    0    0    0  501 -0.00000000000E+00  0.00000000000E+00  0.39230143549E+03  0.39230143549E+03  0.00000000000E+00 0. -1.
          2   -1    0    0  501    0  0.00000000000E+00 -0.00000000000E+00 -0.35932524507E+04  0.35932524507E+04  0.00000000000E+00 0.  1.
         23    2    1    2    0    0  0.47686077429E+03 -0.42667800982E+03  0.72633226995E+02  0.65001733071E+03  0.88298484929E+02 0.  0.
         13    1    3    3    0    0  0.35864994629E+03 -0.35969307098E+03  0.78725748247E+02  0.51401034301E+03  0.00000000000E+00 0.  1.
        -13    1    3    3    0    0  0.11821082800E+03 -0.66984938832E+02 -0.60925212520E+01  0.13600698769E+03  0.00000000000E+00 0. -1.
         22    1    1    2    0    0 -0.47686077429E+03  0.42667800982E+03 -0.32735842422E+04  0.33355365554E+04  0.00000000000E+00 0.  1.
<mgrwt>
<rscale>  0 0.23745636E+04</rscale>
<asrwt>0</asrwt>
<pdfrwt beam="1">  1        2 0.55280805E+00 0.23745636E+04</pdfrwt>
<pdfrwt beam="2">  1       -2 0.60354069E-01 0.23745636E+04</pdfrwt>
<totfact> 0.16132911E+00</totfact>
</mgrwt>
</event>
<event>
 6    1  0.1831439E-005  0.9414236E+03  0.7818608E-02  0.9375232E-01
          2   -1    0    0  501    0  0.00000000000E+00  0.00000000000E+00  0.65918080992E+03  0.65918080992E+03  0.00000000000E+00 0. -1.
         -2   -1    0    0    0  501 -0.00000000000E+00 -0.00000000000E+00 -0.33612872527E+03  0.33612872527E+03  0.00000000000E+00 0.  1.
         23    2    1    2    0    0  0.23000849553E+02 -0.11930128347E+03  0.63906878573E+03  0.65674138742E+03  0.90213645005E+02 0.  0.
         13    1    3    3    0    0  0.25331082227E+02 -0.70752627135E+02  0.17932133298E+03  0.19443183493E+03  0.00000000000E+00 0. -1.
        -13    1    3    3    0    0 -0.23302326737E+01 -0.48548656337E+02  0.45974745275E+03  0.46230955250E+03  0.00000000000E+00 0.  1.
         22    1    1    2    0    0 -0.23000849553E+02  0.11930128347E+03 -0.31601670108E+03  0.33856814776E+03  0.00000000000E+00 0.  1.
<mgrwt>
<rscale>  0 0.94142361E+03</rscale>
<asrwt>0</asrwt>
<pdfrwt beam="1">  1        2 0.10141243E+00 0.94142361E+03</pdfrwt>
<pdfrwt beam="2">  1       -2 0.51712112E-01 0.94142361E+03</pdfrwt>
<totfact> 0.15629802E+02</totfact>
</mgrwt>
</event>
<event>
 6    1  0.1831439E-005  0.1917620E+04  0.7818608E-02  0.8646135E-01
          1   -1    0    0  501    0  0.00000000000E+00  0.00000000000E+00  0.12458664231E+04  0.12458664231E+04  0.00000000000E+00 0. -1.
         -1   -1    0    0    0  501 -0.00000000000E+00 -0.00000000000E+00 -0.73789363102E+03  0.73789363102E+03  0.00000000000E+00 0.  1.
         23    2    1    2    0    0  0.82628924225E+02 -0.65328586676E+03 -0.46339179492E+03  0.81023582185E+03  0.90222882791E+02 0.  0.
         11    1    3    3    0    0  0.36283258762E+02 -0.43572081044E+03 -0.35279461970E+03  0.56181237367E+03  0.00000000000E+00 0. -1.
        -11    1    3    3    0    0  0.46345665463E+02 -0.21756505632E+03 -0.11059717522E+03  0.24842344818E+03  0.00000000000E+00 0.  1.
         22    1    1    2    0    0 -0.82628924225E+02  0.65328586676E+03  0.97136458702E+03  0.11735242323E+04  0.00000000000E+00 0. -1.
<mgrwt>
<rscale>  0 0.19176203E+04</rscale>
<asrwt>0</asrwt>
<pdfrwt beam="1">  1        1 0.19167176E+00 0.19176203E+04</pdfrwt>
<pdfrwt beam="2">  1       -1 0.11352210E+00 0.19176203E+04</pdfrwt>
<totfact> 0.65453786E+00</totfact>
</mgrwt>
</event>
<event>
 6    1  0.1831439E-005  0.2300396E+04  0.7818608E-02  0.8477765E-01
         -2   -1    0    0    0  501 -0.00000000000E+00  0.00000000000E+00  0.81534823879E+03  0.81534823879E+03  0.00000000000E+00 0.  1.
          2   -1    0    0  501    0  0.00000000000E+00 -0.00000000000E+00 -0.16225651808E+04  0.16225651808E+04  0.00000000000E+00 0. -1.
         23    2    1    2    0    0  0.80078657857E+03 -0.30599129663E+03 -0.12140654191E+04  0.14890111583E+04  0.91156841767E+02 0.  0.
         11    1    3    3    0    0  0.50317424158E+03 -0.23640467807E+03 -0.75870333819E+03  0.94058611758E+03  0.00000000000E+00 0. -1.
        -11    1    3    3    0    0  0.29761233700E+03 -0.69586618553E+02 -0.45536208089E+03  0.54842504075E+03  0.00000000000E+00 0.  1.
         22    1    1    2    0    0 -0.80078657857E+03  0.30599129663E+03  0.40684847710E+03  0.94890226122E+03  0.00000000000E+00 0.  1.
<mgrwt>
<rscale>  0 0.23003962E+04</rscale>
<asrwt>0</asrwt>
<pdfrwt beam="1">  1        2 0.24962541E+00 0.23003962E+04</pdfrwt>
<pdfrwt beam="2">  1       -2 0.12543819E+00 0.23003962E+04</pdfrwt>
<totfact> 0.46681921E+00</totfact>
</mgrwt>
</event>
<event>
 6    1  0.1831439E-005  0.3082847E+04  0.7818608E-02  0.8220461E-01
         -1   -1    0    0    0  501 -0.00000000000E+00  0.00000000000E+00  0.20442794458E+04  0.20442794458E+04  0.00000000000E+00 0.  1.
          1   -1    0    0  501    0  0.00000000000E+00 -0.00000000000E+00 -0.11622611100E+04  0.11622611100E+04  0.00000000000E+00 0. -1.
         23    2    1    2    0    0  0.84002745549E+03 -0.18641045937E+03  0.17699586725E+04  0.19700806791E+04  0.89828693782E+02 0.  0.
         11    1    3    3    0    0  0.20621621541E+03 -0.43474117121E+02  0.35036462587E+03  0.40886488895E+03  0.00000000000E+00 0. -1.
        -11    1    3    3    0    0  0.63381124008E+03 -0.14293634225E+03  0.14195940467E+04  0.15612157901E+04  0.00000000000E+00 0.  1.
         22    1    1    2    0    0 -0.84002745549E+03  0.18641045937E+03 -0.88794033672E+03  0.12364598768E+04  0.00000000000E+00 0. -1.
<mgrwt>
<rscale>  0 0.30828471E+04</rscale>
<asrwt>0</asrwt>
<pdfrwt beam="1">  1        1 0.17880940E+00 0.30828471E+04</pdfrwt>
<pdfrwt beam="2">  1       -1 0.31450453E+00 0.30828471E+04</pdfrwt>
<totfact> 0.25582569E-01</totfact>
</mgrwt>
</event>
<event>
 6    1  0.1831439E-005  0.1220310E+04  0.7818608E-02  0.9095262E-01
          2   -1    0    0  501    0  0.00000000000E+00  0.00000000000E+00  0.47047646588E+03  0.47047646588E+03  0.00000000000E+00 0. -1.
         -2   -1    0    0    0  501 -0.00000000000E+00 -0.00000000000E+00 -0.79130296077E+03  0.79130296077E+03  0.00000000000E+00 0.  1.
         23    2    1    2    0    0 -0.57012778328E+03  0.16580974818E+03 -0.28754188713E+03  0.66709764034E+03  0.98996782917E+02 0.  0.
         13    1    3    3    0    0 -0.79061355509E+02  0.60486149527E+02 -0.41790273910E+02  0.10796156359E+03  0.00000000000E+00 0.  1.
        -13    1    3    3    0    0 -0.49106642777E+03  0.10532359865E+03 -0.24575161322E+03  0.55913607675E+03  0.00000000000E+00 0. -1.
         22    1    1    2    0    0  0.57012778328E+03 -0.16580974818E+03 -0.33284607754E+02  0.59468178631E+03  0.00000000000E+00 0. -1.
<mgrwt>
<rscale>  0 0.12203105E+04</rscale>
<asrwt>0</asrwt>
<pdfrwt beam="1">  1        2 0.72380995E-01 0.12203105E+04</pdfrwt>
<pdfrwt beam="2">  1       -2 0.12173892E+00 0.12203105E+04</pdfrwt>
<totfact> 0.33347589E+01</totfact>
</mgrwt>
</event>
<event>
 6    1  0.1831439E-005  0.9215369E+03  0.7818608E-02  0.9399053E-01
         -2   -1    0    0    0  501 -0.00000000000E+00  0.00000000000E+00  0.46256101887E+03  0.46256101887E+03  0.00000000000E+00 0. -1.
          2   -1    0    0  501    0  0.00000000000E+00 -0.00000000000E+00 -0.45898287078E+03  0.45898287078E+03  0.00000000000E+00 0.  1.
         23    2    1    2    0    0  0.43777784668E+03  0.31090361691E+01 -0.12621127536E+03  0.46492106544E+03  0.92537570280E+02 0.  0.
         13    1    3    3    0    0  0.32709044436E+03 -0.18928391067E+02 -0.57084094215E+02  0.33257335520E+03  0.00000000000E+00 0. -1.
        -13    1    3    3    0    0  0.11068740232E+03  0.22037427236E+02 -0.69127181148E+02  0.13234771024E+03  0.00000000000E+00 0.  1.
         22    1    1    2    0    0 -0.43777784668E+03 -0.31090361691E+01  0.12978942346E+03  0.45662282421E+03  0.00000000000E+00 0. -1.
<mgrwt>
<rscale>  0 0.92153694E+03</rscale>
<asrwt>0</asrwt>
<pdfrwt beam="1">  1        2 0.70612749E-01 0.92153694E+03</pdfrwt>
<pdfrwt beam="2">  1       -2 0.71163234E-01 0.92153694E+03</pdfrwt>
<totfact> 0.12227951E+02</totfact>
</mgrwt>
</event>
<event>
 6    1  0.1831439E-005  0.3268668E+04  0.7818608E-02  0.8170914E-01
          1   -1    0    0  501    0  0.00000000000E+00  0.00000000000E+00  0.19510416470E+04  0.19510416470E+04  0.00000000000E+00 0. -1.
         -1   -1    0    0    0  501 -0.00000000000E+00 -0.00000000000E+00 -0.13690364911E+04  0.13690364911E+04  0.00000000000E+00 0.  1.
         23    2    1    2    0    0 -0.40791356808E+03  0.60771931981E+02  0.18962076101E+04  0.19426839326E+04  0.91273515833E+02 0.  0.
         11    1    3    3    0    0 -0.16249562195E+03 -0.11381455936E+02  0.86646633114E+03  0.88164520511E+03  0.00000000000E+00 0. -1.
        -11    1    3    3    0    0 -0.24541794612E+03  0.72153387918E+02  0.10297412789E+04  0.10610387275E+04  0.00000000000E+00 0.  1.
         22    1    1    2    0    0  0.40791356808E+03 -0.60771931981E+02 -0.13142024541E+04  0.13773942055E+04  0.00000000000E+00 0.  1.
<mgrwt>
<rscale>  0 0.32686677E+04</rscale>
<asrwt>0</asrwt>
<pdfrwt beam="1">  1        1 0.30016025E+00 0.32686677E+04</pdfrwt>
<pdfrwt beam="2">  1       -1 0.21062100E+00 0.32686677E+04</pdfrwt>
<totfact> 0.34070817E-01</totfact>
</mgrwt>
</event>
<event>
 6    1  0.1831439E-005  0.3258131E+04  0.7818608E-02  0.8173631E-01
         -1   -1    0    0    0  501 -0.00000000000E+00  0.00000000000E+00  0.85663224415E+03  0.85663224415E+03  0.00000000000E+00 0.  1.
          1   -1    0    0  501    0  0.00000000000E+00 -0.00000000000E+00 -0.30980092756E+04  0.30980092756E+04  0.00000000000E+00 0. -1.
         23    2    1    2    0    0  0.13798826872E+03  0.16051313426E+04 -0.14045463169E+04  0.21392151142E+04  0.89462614713E+02 0.  0.
         13    1    3    3    0    0  0.69847151183E+02  0.41861178329E+03 -0.39679939000E+03  0.58100275863E+03  0.00000000000E+00 0. -1.
        -13    1    3    3    0    0  0.68141117533E+02  0.11865195593E+04 -0.10077469269E+04  0.15582123556E+04  0.00000000000E+00 0.  1.
         22    1    1    2    0    0 -0.13798826872E+03 -0.16051313426E+04 -0.83683071462E+03  0.18154264056E+04  0.00000000000E+00 0. -1.
<mgrwt>
<rscale>  0 0.32581311E+04</rscale>
<asrwt>0</asrwt>
<pdfrwt beam="1">  1        1 0.47661680E+00 0.32581311E+04</pdfrwt>
<pdfrwt beam="2">  1       -1 0.13178958E+00 0.32581311E+04</pdfrwt>
<totfact> 0.20631802E-01</totfact>
</mgrwt>
</event>
<event>
 6    1  0.1831439E-005  0.2956019E+04  0.7818608E-02  0.8256403E-01
          2   -1    0    0  501    0  0.00000000000E+00  0.00000000000E+00  0.15302844650E+04  0.15302844650E+04  0.00000000000E+00 0. -1.
         -2   -1    0    0    0  501 -0.00000000000E+00 -0.00000000000E+00 -0.14275204340E+04  0.14275204340E+04  0.00000000000E+00 0.  1.
         23    2    1    2    0    0 -0.13565275508E+04  0.58193883848E+03  0.12830981663E+02  0.14789851800E+04  0.91720885241E+02 0.  0.
         11    1    3    3    0    0 -0.37333385618E+03  0.14832091465E+03  0.42866001464E+02  0.40399846036E+03  0.00000000000E+00 0.  1.
        -11    1    3    3    0    0 -0.98319369459E+03  0.43361792383E+03 -0.30035019801E+02  0.10749867196E+04  0.00000000000E+00 0. -1.
         22    1    1    2    0    0  0.13565275508E+04 -0.58193883848E+03  0.89933049342E+02  0.14788197189E+04  0.00000000000E+00 0.  1.
<mgrwt>
<rscale>  0 0.29560192E+04</rscale>
<asrwt>0</asrwt>
<pdfrwt beam="1">  1        2 0.23542838E+00 0.29560192E+04</pdfrwt>
<pdfrwt beam="2">  1       -2 0.21961853E+00 0.29560192E+04</pdfrwt>
<totfact> 0.10421129E+00</totfact>
</mgrwt>
</event>
<event>
 6    1  0.1831439E-005  0.3174125E+04  0.7818608E-02  0.8195684E-01
          4   -1    0    0  501    0  0.00000000000E+00  0.00000000000E+00  0.19268174323E+04  0.19268174323E+04  0.00000000000E+00 0. -1.
         -4   -1    0    0    0  501 -0.00000000000E+00 -0.00000000000E+00 -0.13072162834E+04  0.13072162834E+04  0.00000000000E+00 0.  1.
         23    2    1    2    0    0 -0.97427161690E+03  0.53500350562E+03 -0.84238692287E+03  0.13975035481E+04  0.89255278500E+02 0.  0.
         13    1    3    3    0    0 -0.48764438948E+03  0.26724880165E+03 -0.47736524150E+03  0.73286871018E+03  0.00000000000E+00 0. -1.
        -13    1    3    3    0    0 -0.48662722742E+03  0.26775470397E+03 -0.36502168137E+03  0.66463483796E+03  0.00000000000E+00 0.  1.
         22    1    1    2    0    0  0.97427161690E+03 -0.53500350562E+03  0.14619880718E+04  0.18365301676E+04  0.00000000000E+00 0. -1.
<mgrwt>
<rscale>  0 0.31741248E+04</rscale>
<asrwt>0</asrwt>
<pdfrwt beam="1">  1        4 0.29643345E+00 0.31741248E+04</pdfrwt>
<pdfrwt beam="2">  1       -4 0.20111020E+00 0.31741248E+04</pdfrwt>
<totfact> 0.70290736E-03</totfact>
</mgrwt>
</event>
<event>
 6    1  0.1831439E-005  0.2269175E+04  0.7818608E-02  0.8490175E-01
         -2   -1    0    0    0  501 -0.00000000000E+00  0.00000000000E+00  0.11544016095E+04  0.11544016095E+04  0.00000000000E+00 0.  1.
          2   -1    0    0  501    0  0.00000000000E+00 -0.00000000000E+00 -0.11151136249E+04  0.11151136249E+04  0.00000000000E+00 0. -1.
         23    2    1    2    0    0 -0.77189528881E+03  0.18699021978E+03 -0.78811753763E+03  0.11226117610E+04  0.91324879455E+02 0.  0.
         11    1    3    3    0    0 -0.60928447649E+03  0.18308676428E+03 -0.60979683892E+03  0.88124940925E+03  0.00000000000E+00 0. -1.
        -11    1    3    3    0    0 -0.16261081231E+03  0.39034555039E+01 -0.17832069871E+03  0.24136235174E+03  0.00000000000E+00 0.  1.
         22    1    1    2    0    0  0.77189528881E+03 -0.18699021978E+03  0.82740552218E+03  0.11469034734E+04  0.00000000000E+00 0.  1.
<mgrwt>
<rscale>  0 0.22691751E+04</rscale>
<asrwt>0</asrwt>
<pdfrwt beam="1">  1        2 0.17155594E+00 0.22691751E+04</pdfrwt>
<pdfrwt beam="2">  1       -2 0.17760025E+00 0.22691751E+04</pdfrwt>
<totfact> 0.36515045E+00</totfact>
</mgrwt>
</event>
<event>
 6    1  0.1831439E-005  0.1066185E+04  0.7818608E-02  0.9238791E-01
         -1   -1    0    0    0  501 -0.00000000000E+00  0.00000000000E+00  0.79566914630E+03  0.79566914630E+03  0.00000000000E+00 0.  1.
          1   -1    0    0  501    0  0.00000000000E+00 -0.00000000000E+00 -0.35716834000E+03  0.35716834000E+03  0.00000000000E+00 0. -1.
         23    2    1    2    0    0 -0.81363230174E+00 -0.10944174065E+03  0.78100515238E+03  0.79327193779E+03  0.85633887223E+02 0.  0.
         11    1    3    3    0    0  0.22305230173E+02 -0.11295394865E+03  0.62365995758E+03  0.63419859704E+03  0.00000000000E+00 0. -1.
        -11    1    3    3    0    0 -0.23118862474E+02  0.35122079980E+01  0.15734519481E+03  0.15907334075E+03  0.00000000000E+00 0.  1.
         22    1    1    2    0    0  0.81363230174E+00  0.10944174065E+03 -0.34250434608E+03  0.35956554851E+03  0.00000000000E+00 0. -1.
<mgrwt>
<rscale>  0 0.10661854E+04</rscale>
<asrwt>0</asrwt>
<pdfrwt beam="1">  1        1 0.54948976E-01 0.10661854E+04</pdfrwt>
<pdfrwt beam="2">  1       -1 0.12241064E+00 0.10661854E+04</pdfrwt>
<totfact> 0.41061800E+01</totfact>
</mgrwt>
</event>
<event>
 6    1  0.1831439E-005  0.1492738E+04  0.7818608E-02  0.8889296E-01
          1   -1    0    0  501    0  0.00000000000E+00  0.00000000000E+00  0.13550386456E+04  0.13550386456E+04  0.00000000000E+00 0. -1.
         -1   -1    0    0    0  501 -0.00000000000E+00 -0.00000000000E+00 -0.41110773884E+03  0.41110773884E+03  0.00000000000E+00 0.  1.
         23    2    1    2    0    0 -0.30774361400E+03  0.63917488751E+03  0.21072376223E+03  0.74592906172E+03  0.93568116258E+02 0.  0.
         11    1    3    3    0    0 -0.13624939349E+03  0.29629750348E+03  0.14524323741E+03  0.35700378963E+03  0.00000000000E+00 0. -1.
        -11    1    3    3    0    0 -0.17149422051E+03  0.34287738403E+03  0.65480524822E+02  0.38892527210E+03  0.00000000000E+00 0.  1.
         22    1    1    2    0    0  0.30774361400E+03 -0.63917488751E+03  0.73320714450E+03  0.10202173227E+04  0.00000000000E+00 0.  1.
<mgrwt>
<rscale>  0 0.14927383E+04</rscale>
<asrwt>0</asrwt>
<pdfrwt beam="1">  1        1 0.20846748E+00 0.14927383E+04</pdfrwt>
<pdfrwt beam="2">  1       -1 0.63247345E-01 0.14927383E+04</pdfrwt>
<totfact> 0.20282851E+01</totfact>
</mgrwt>
</event>
<event>
 6    1  0.1831439E-005  0.1509229E+04  0.7818608E-02  0.8878339E-01
          3   -1    0    0  501    0  0.00000000000E+00  0.00000000000E+00  0.23740782647E+04  0.23740782647E+04  0.00000000000E+00 0. -1.
         -3   -1    0    0    0  501 -0.00000000000E+00 -0.00000000000E+00 -0.23985857279E+03  0.23985857279E+03  0.00000000000E+00 0.  1.
         23    2    1    2    0    0 -0.25210410881E+03  0.34332847627E+03  0.21433857396E+04  0.21878911349E+04  0.10646250670E+03 0.  0.
         13    1    3    3    0    0 -0.14284971734E+03  0.14672085800E+03  0.79923198096E+03  0.82504836907E+03  0.00000000000E+00 0. -1.
        -13    1    3    3    0    0 -0.10925439147E+03  0.19660761828E+03  0.13441537586E+04  0.13628427658E+04  0.00000000000E+00 0.  1.
         22    1    1    2    0    0  0.25210410881E+03 -0.34332847627E+03 -0.91660476156E+01  0.42604570263E+03  0.00000000000E+00 0.  1.
<mgrwt>
<rscale>  0 0.15092290E+04</rscale>
<asrwt>0</asrwt>
<pdfrwt beam="1">  1        3 0.36524279E+00 0.15092290E+04</pdfrwt>
<pdfrwt beam="2">  1       -3 0.36901320E-01 0.15092290E+04</pdfrwt>
<totfact> 0.31697532E-01</totfact>
</mgrwt>
</event>
<event>
 6    1  0.1831439E-005  0.1398389E+04  0.7818608E-02  0.8954985E-01
         -1   -1    0    0    0  501 -0.00000000000E+00  0.00000000000E+00  0.23999415857E+03  0.23999415857E+03  0.00000000000E+00 0.  1.
          1   -1    0    0  501    0  0.00000000000E+00 -0.00000000000E+00 -0.20370213254E+04  0.20370213254E+04  0.00000000000E+00 0. -1.
         23    2    1    2    0    0 -0.20873950062E+03  0.52173647630E+03 -0.15718117617E+04  0.16716204819E+04  0.89116168226E+02 0.  0.
         11    1    3    3    0    0 -0.85386894295E+02  0.13034625798E+03 -0.36229392988E+03  0.39438301221E+03  0.00000000000E+00 0.  1.
        -11    1    3    3    0    0 -0.12335260632E+03  0.39139021832E+03 -0.12095178319E+04  0.12772374697E+04  0.00000000000E+00 0. -1.
         22    1    1    2    0    0  0.20873950062E+03 -0.52173647630E+03 -0.22521540512E+03  0.60539500206E+03  0.00000000000E+00 0.  1.
<mgrwt>
<rscale>  0 0.13983894E+04</rscale>
<asrwt>0</asrwt>
<pdfrwt beam="1">  1        1 0.31338791E+00 0.13983894E+04</pdfrwt>
<pdfrwt beam="2">  1       -1 0.36922176E-01 0.13983894E+04</pdfrwt>
<totfact> 0.19347564E+01</totfact>
</mgrwt>
</event>
<event>
 6    1  0.1831439E-005  0.1687496E+04  0.7818608E-02  0.8768528E-01
          2   -1    0    0  501    0  0.00000000000E+00  0.00000000000E+00  0.33050745976E+04  0.33050745976E+04  0.00000000000E+00 0.  1.
         -2   -1    0    0    0  501 -0.00000000000E+00 -0.00000000000E+00 -0.21539931711E+03  0.21539931711E+03  0.00000000000E+00 0. -1.
         23    2    1    2    0    0  0.51756097225E+03 -0.19722078176E+03  0.22816486759E+03  0.60585434435E+03  0.90746256235E+02 0.  0.
         13    1    3    3    0    0  0.27477564507E+03 -0.56797767233E+02  0.10613049314E+03  0.29998553809E+03  0.00000000000E+00 0. -1.
        -13    1    3    3    0    0  0.24278532717E+03 -0.14042301453E+03  0.12203437445E+03  0.30586880627E+03  0.00000000000E+00 0.  1.
         22    1    1    2    0    0 -0.51756097225E+03  0.19722078176E+03  0.28615104129E+04  0.29146195703E+04  0.00000000000E+00 0.  1.
<mgrwt>
<rscale>  0 0.16874961E+04</rscale>
<asrwt>0</asrwt>
<pdfrwt beam="1">  1        2 0.50847298E+00 0.16874961E+04</pdfrwt>
<pdfrwt beam="2">  1       -2 0.33138359E-01 0.16874961E+04</pdfrwt>
<totfact> 0.90213114E+00</totfact>
</mgrwt>
</event>
<event>
 6    1  0.1831439E-005  0.1217304E+04  0.7818608E-02  0.9097844E-01
          2   -1    0    0  501    0  0.00000000000E+00  0.00000000000E+00  0.20830882921E+04  0.20830882921E+04  0.00000000000E+00 0. -1.
         -2   -1    0    0    0  501 -0.00000000000E+00 -0.00000000000E+00 -0.17784046372E+03  0.17784046372E+03  0.00000000000E+00 0.  1.
         23    2    1    2    0    0 -0.25246356004E+03 -0.52043120779E+03  0.62518115770E+03  0.85623762516E+03  0.87777557496E+02 0.  0.
         13    1    3    3    0    0 -0.10429537737E+03 -0.31330025601E+03  0.34233343712E+03  0.47563300803E+03  0.00000000000E+00 0. -1.
        -13    1    3    3    0    0 -0.14816818267E+03 -0.20713095178E+03  0.28284772057E+03  0.38060461712E+03  0.00000000000E+00 0.  1.
         22    1    1    2    0    0  0.25246356004E+03  0.52043120779E+03  0.12800666707E+04  0.14046911306E+04  0.00000000000E+00 0. -1.
<mgrwt>
<rscale>  0 0.12173042E+04</rscale>
<asrwt>0</asrwt>
<pdfrwt beam="1">  1        2 0.32047510E+00 0.12173042E+04</pdfrwt>
<pdfrwt beam="2">  1       -2 0.27360073E-01 0.12173042E+04</pdfrwt>
<totfact> 0.72135963E+01</totfact>
</mgrwt>
</event>
<event>
 6    1  0.1831439E-005  0.2252111E+04  0.7818608E-02  0.8497046E-01
         -1   -1    0    0    0  501 -0.00000000000E+00  0.00000000000E+00  0.39710714806E+03  0.39710714806E+03  0.00000000000E+00 0.  1.
          1   -1    0    0  501    0  0.00000000000E+00 -0.00000000000E+00 -0.31930967074E+04  0.31930967074E+04  0.00000000000E+00 0. -1.
         23    2    1    2    0    0 -0.80804549305E+03  0.25846053573E+03 -0.22428183368E+03  0.88217505324E+03  0.90504785902E+02 0.  0.
         11    1    3    3    0    0 -0.21278872172E+03  0.27292088323E+02 -0.61919272989E+02  0.22328881419E+03  0.00000000000E+00 0. -1.
        -11    1    3    3    0    0 -0.59525677134E+03  0.23116844741E+03 -0.16236256069E+03  0.65888623906E+03  0.00000000000E+00 0.  1.
         22    1    1    2    0    0  0.80804549305E+03 -0.25846053573E+03 -0.25717077256E+04  0.27080288022E+04  0.00000000000E+00 0. -1.
<mgrwt>
<rscale>  0 0.22521115E+04</rscale>
<asrwt>0</asrwt>
<pdfrwt beam="1">  1        1 0.49124563E+00 0.22521115E+04</pdfrwt>
<pdfrwt beam="2">  1       -1 0.61093409E-01 0.22521115E+04</pdfrwt>
<totfact> 0.10622329E+00</totfact>
</mgrwt>
</event>
<event>
 6    1  0.1831439E-005  0.3369664E+04  0.7818608E-02  0.8145392E-01
         -2   -1    0    0    0  501 -0.00000000000E+00  0.00000000000E+00  0.25291552611E+04  0.25291552611E+04  0.00000000000E+00 0.  1.
          2   -1    0    0  501    0  0.00000000000E+00 -0.00000000000E+00 -0.11223745843E+04  0.11223745843E+04  0.00000000000E+00 0. -1.
         23    2    1    2    0    0 -0.13751970970E+04  0.61325989350E+01 -0.34853111443E+03  0.14216589637E+04  0.91845561105E+02 0.  0.
         11    1    3    3    0    0 -0.15034107492E+03  0.45371348321E+01 -0.68108461646E+02  0.16511143797E+03  0.00000000000E+00 0. -1.
        -11    1    3    3    0    0 -0.12248560220E+04  0.15954641028E+01 -0.28042265278E+03  0.12565475257E+04  0.00000000000E+00 0.  1.
         22    1    1    2    0    0  0.13751970970E+04 -0.61325989350E+01  0.17553117913E+04  0.22298708817E+04  0.00000000000E+00 0.  1.
<mgrwt>
<rscale>  0 0.33696644E+04</rscale>
<asrwt>0</asrwt>
<pdfrwt beam="1">  1        2 0.17267301E+00 0.33696644E+04</pdfrwt>
<pdfrwt beam="2">  1       -2 0.38910081E+00 0.33696644E+04</pdfrwt>
<totfact> 0.15310689E-01</totfact>
</mgrwt>
</event>
<event>
 6    1  0.1831439E-005  0.1988713E+04  0.7818608E-02  0.8611916E-01
          1   -1    0    0  501    0  0.00000000000E+00  0.00000000000E+00  0.31604057517E+04  0.31604057517E+04  0.00000000000E+00 0. -1.
         -1   -1    0    0    0  501 -0.00000000000E+00 -0.00000000000E+00 -0.31285364239E+03  0.31285364239E+03  0.00000000000E+00 0.  1.
         23    2    1    2    0    0 -0.71278412875E+03  0.39728592330E+03  0.44761596196E+03  0.93838447993E+03  0.11961631880E+03 0.  0.
         13    1    3    3    0    0 -0.18364753075E+03  0.81847327763E+02  0.57112633191E+02  0.20901495995E+03  0.00000000000E+00 0. -1.
        -13    1    3    3    0    0 -0.52913659799E+03  0.31543859554E+03  0.39050332877E+03  0.72936951998E+03  0.00000000000E+00 0.  1.
         22    1    1    2    0    0  0.71278412875E+03 -0.39728592330E+03  0.23999361474E+04  0.25348749142E+04  0.00000000000E+00 0. -1.
<mgrwt>
<rscale>  0 0.19887126E+04</rscale>
<asrwt>0</asrwt>
<pdfrwt beam="1">  1        1 0.48621625E+00 0.19887126E+04</pdfrwt>
<pdfrwt beam="2">  1       -1 0.48131332E-01 0.19887126E+04</pdfrwt>
<totfact> 0.18283433E+00</totfact>
</mgrwt>
</event>
<event>
 6    1  0.1831439E-005  0.1197353E+04  0.7818608E-02  0.9115176E-01
         -1   -1    0    0    0  501 -0.00000000000E+00  0.00000000000E+00  0.80882204918E+03  0.80882204918E+03  0.00000000000E+00 0.  1.
          1   -1    0    0  501    0  0.00000000000E+00 -0.00000000000E+00 -0.44313065793E+03  0.44313065793E+03  0.00000000000E+00 0. -1.
         23    2    1    2    0    0 -0.18443512226E+03 -0.49319594607E+03 -0.10525269066E+03  0.54552020231E+03  0.96206063658E+02 0.  0.
         11    1    3    3    0    0 -0.37918112131E+02 -0.64858580303E+02 -0.48138260597E+02  0.89228419238E+02  0.00000000000E+00 0. -1.
        -11    1    3    3    0    0 -0.14651701013E+03 -0.42833736577E+03 -0.57114430067E+02  0.45629178307E+03  0.00000000000E+00 0.  1.
         22    1    1    2    0    0  0.18443512226E+03  0.49319594607E+03  0.47094408191E+03  0.70643250480E+03  0.00000000000E+00 0.  1.
<mgrwt>
<rscale>  0 0.11973535E+04</rscale>
<asrwt>0</asrwt>
<pdfrwt beam="1">  1        1 0.68173948E-01 0.11973535E+04</pdfrwt>
<pdfrwt beam="2">  1       -1 0.12443416E+00 0.11973535E+04</pdfrwt>
<totfact> 0.29302796E+01</totfact>
</mgrwt>
</event>
<event>
 6    1  0.1831439E-005  0.2016272E+04  0.7818608E-02  0.8599050E-01
          2   -1    0    0  501    0  0.00000000000E+00  0.00000000000E+00  0.72890949477E+03  0.72890949477E+03  0.00000000000E+00 0.  1.
         -2   -1    0    0    0  501 -0.00000000000E+00 -0.00000000000E+00 -0.13943275191E+04  0.13943275191E+04  0.00000000000E+00 0. -1.
         23    2    1    2    0    0 -0.19493004612E+03  0.98721739836E+03 -0.30088578863E+03  0.10529661765E+04  0.74897239997E+02 0.  0.
         13    1    3    3    0    0 -0.13344655401E+03  0.63428913036E+03 -0.15708069929E+03  0.66693705082E+03  0.00000000000E+00 0.  1.
        -13    1    3    3    0    0 -0.61483492110E+02  0.35292826800E+03 -0.14380508934E+03  0.38602912568E+03  0.00000000000E+00 0. -1.
         22    1    1    2    0    0  0.19493004612E+03 -0.98721739836E+03 -0.36453223575E+03  0.10702708374E+04  0.00000000000E+00 0.  1.
<mgrwt>
<rscale>  0 0.20162724E+04</rscale>
<asrwt>0</asrwt>
<pdfrwt beam="1">  1        2 0.11213992E+00 0.20162724E+04</pdfrwt>
<pdfrwt beam="2">  1       -2 0.21451192E+00 0.20162724E+04</pdfrwt>
<totfact> 0.38649697E+00</totfact>
</mgrwt>
</event>
<event>
 6    1  0.1831439E-005  0.3278226E+04  0.7818608E-02  0.8168458E-01
         -2   -1    0    0    0  501 -0.00000000000E+00  0.00000000000E+00  0.11523462476E+04  0.11523462476E+04  0.00000000000E+00 0.  1.
          2   -1    0    0  501    0  0.00000000000E+00 -0.00000000000E+00 -0.23314973078E+04  0.23314973078E+04  0.00000000000E+00 0. -1.
         23    2    1    2    0    0  0.28956284096E+03  0.16107818929E+04 -0.53140390080E+03  0.17237181825E+04  0.10173161584E+03 0.  0.
         11    1    3    3    0    0  0.23071657559E+03  0.12188911697E+04 -0.44649302353E+03  0.13184391689E+04  0.00000000000E+00 0.  1.
        -11    1    3    3    0    0  0.58846265367E+02  0.39189072317E+03 -0.84910877264E+02  0.40527901369E+03  0.00000000000E+00 0. -1.
         22    1    1    2    0    0 -0.28956284096E+03 -0.16107818929E+04 -0.64774715941E+03  0.17601253728E+04  0.00000000000E+00 0.  1.
<mgrwt>
<rscale>  0 0.32782265E+04</rscale>
<asrwt>0</asrwt>
<pdfrwt beam="1">  1        2 0.35869189E+00 0.32782265E+04</pdfrwt>
<pdfrwt beam="2">  1       -2 0.17728404E+00 0.32782265E+04</pdfrwt>
<totfact> 0.68928754E-01</totfact>
</mgrwt>
</event>
<event>
 6    1  0.1831439E-005  0.1777043E+04  0.7818608E-02  0.8718604E-01
         -2   -1    0    0    0  501 -0.00000000000E+00  0.00000000000E+00  0.15080587289E+04  0.15080587289E+04  0.00000000000E+00 0.  1.
          2   -1    0    0  501    0  0.00000000000E+00 -0.00000000000E+00 -0.52350091739E+03  0.52350091739E+03  0.00000000000E+00 0. -1.
         23    2    1    2    0    0 -0.58753172163E+03 -0.87603906729E+02  0.12454124489E+04  0.13827814791E+04  0.90357526894E+02 0.  0.
         11    1    3    3    0    0 -0.67446032343E+02  0.11312221673E+02  0.10264449831E+03  0.12334028811E+03  0.00000000000E+00 0. -1.
        -11    1    3    3    0    0 -0.52008568929E+03 -0.98916128402E+02  0.11427679506E+04  0.12594411910E+04  0.00000000000E+00 0.  1.
         22    1    1    2    0    0  0.58753172163E+03  0.87603906729E+02 -0.26085463738E+03  0.64877816720E+03  0.00000000000E+00 0. -1.
<mgrwt>
<rscale>  0 0.17770426E+04</rscale>
<asrwt>0</asrwt>
<pdfrwt beam="1">  1        2 0.80538603E-01 0.17770426E+04</pdfrwt>
<pdfrwt beam="2">  1       -2 0.23200903E+00 0.17770426E+04</pdfrwt>
<totfact> 0.45822220E+00</totfact>
</mgrwt>
</event>
<event>
 6    1  0.1831439E-005  0.6171723E+04  0.7818608E-02  0.7669467E-01
          2   -1    0    0  501    0  0.00000000000E+00  0.00000000000E+00  0.55195104999E+04  0.55195104999E+04  0.00000000000E+00 0. -1.
         -2   -1    0    0    0  501 -0.00000000000E+00 -0.00000000000E+00 -0.17252512537E+04  0.17252512537E+04  0.00000000000E+00 0.  1.
         23    2    1    2    0    0  0.13463467722E+02 -0.20661534396E+04  0.45869824355E+04  0.50317137750E+04  0.92543765956E+02 0.  0.
         11    1    3    3    0    0 -0.37043954850E+02 -0.85706381611E+03  0.18635408786E+04  0.20515153535E+04  0.00000000000E+00 0.  1.
        -11    1    3    3    0    0  0.50507422572E+02 -0.12090896234E+04  0.27234415569E+04  0.29801984215E+04  0.00000000000E+00 0. -1.
         22    1    1    2    0    0 -0.13463467722E+02  0.20661534396E+04 -0.79272318938E+03  0.22130479786E+04  0.00000000000E+00 0.  1.
<mgrwt>
<rscale>  0 0.61717234E+04</rscale>
<asrwt>0</asrwt>
<pdfrwt beam="1">  1        2 0.84915546E+00 0.61717234E+04</pdfrwt>
<pdfrwt beam="2">  1       -2 0.26542327E+00 0.61717234E+04</pdfrwt>
<totfact> 0.18186027E-04</totfact>
</mgrwt>
</event>
<event>
 6    1  0.1831439E-005  0.1816156E+04  0.7818608E-02  0.8697755E-01
          2   -1    0    0  501    0  0.00000000000E+00  0.00000000000E+00  0.17696748835E+04  0.17696748835E+04  0.00000000000E+00 0. -1.
         -2   -1    0    0    0  501 -0.00000000000E+00 -0.00000000000E+00 -0.46596467867E+03  0.46596467867E+03  0.00000000000E+00 0.  1.
         23    2    1    2    0    0  0.42193497165E+03  0.40993085635E+03 -0.19427874741E+03  0.62627840683E+03  0.91695059168E+02 0.  0.
         11    1    3    3    0    0  0.13910645665E+03  0.14948668218E+03 -0.23388843348E+02  0.20553323922E+03  0.00000000000E+00 0. -1.
        -11    1    3    3    0    0  0.28282851500E+03  0.26044417417E+03 -0.17088990406E+03  0.42074516761E+03  0.00000000000E+00 0.  1.
         22    1    1    2    0    0 -0.42193497165E+03 -0.40993085635E+03  0.14979889522E+04  0.16093611553E+04  0.00000000000E+00 0. -1.
<mgrwt>
<rscale>  0 0.18161564E+04</rscale>
<asrwt>0</asrwt>
<pdfrwt beam="1">  1        2 0.27225767E+00 0.18161564E+04</pdfrwt>
<pdfrwt beam="2">  1       -2 0.71686875E-01 0.18161564E+04</pdfrwt>
<totfact> 0.14920325E+01</totfact>
</mgrwt>
</event>
<event>
 6    1  0.1831439E-005  0.2625028E+04  0.7818608E-02  0.8359749E-01
          2   -1    0    0  501    0  0.00000000000E+00  0.00000000000E+00  0.10748255003E+04  0.10748255003E+04  0.00000000000E+00 0. -1.
         -2   -1    0    0    0  501 -0.00000000000E+00 -0.00000000000E+00 -0.16027657280E+04  0.16027657280E+04  0.00000000000E+00 0.  1.
         23    2    1    2    0    0  0.87690505656E+03  0.72086541654E+03 -0.93309423836E+03  0.14722866198E+04  0.91398064380E+02 0.  0.
         13    1    3    3    0    0  0.74681498207E+03  0.63400483482E+03 -0.76745107307E+03  0.12444580739E+04  0.00000000000E+00 0. -1.
        -13    1    3    3    0    0  0.13009007448E+03  0.86860581721E+02 -0.16564316529E+03  0.22782854594E+03  0.00000000000E+00 0.  1.
         22    1    1    2    0    0 -0.87690505656E+03 -0.72086541654E+03  0.40515401062E+03  0.12053046085E+04  0.00000000000E+00 0. -1.
<mgrwt>
<rscale>  0 0.26250284E+04</rscale>
<asrwt>0</asrwt>
<pdfrwt beam="1">  1        2 0.16535777E+00 0.26250284E+04</pdfrwt>
<pdfrwt beam="2">  1       -2 0.24657934E+00 0.26250284E+04</pdfrwt>
<totfact> 0.13447379E+00</totfact>
</mgrwt>
</event>
<event>
 6    1  0.1831439E-005  0.2097733E+04  0.7818608E-02  0.8562243E-01
         -2   -1    0    0    0  501 -0.00000000000E+00  0.00000000000E+00  0.10285422545E+04  0.10285422545E+04  0.00000000000E+00 0.  1.
          2   -1    0    0  501    0  0.00000000000E+00 -0.00000000000E+00 -0.10695924344E+04  0.10695924344E+04  0.00000000000E+00 0. -1.
         23    2    1    2    0    0 -0.15951667317E+03  0.18892015342E+03  0.99687729208E+03  0.10311624163E+04  0.91625324230E+02 0.  0.
         13    1    3    3    0    0 -0.94012009300E+02  0.14870872447E+03  0.81388475312E+03  0.83268297328E+03  0.00000000000E+00 0. -1.
        -13    1    3    3    0    0 -0.65504663870E+02  0.40211428947E+02  0.18299253895E+03  0.19847944306E+03  0.00000000000E+00 0.  1.
         22    1    1    2    0    0  0.15951667317E+03 -0.18892015342E+03 -0.10379274719E+04  0.10669722726E+04  0.00000000000E+00 0. -1.
<mgrwt>
<rscale>  0 0.20977331E+04</rscale>
<asrwt>0</asrwt>
<pdfrwt beam="1">  1        2 0.16455268E+00 0.20977331E+04</pdfrwt>
<pdfrwt beam="2">  1       -2 0.15823727E+00 0.20977331E+04</pdfrwt>
<totfact> 0.54444288E+00</totfact>
</mgrwt>
</event>
<event>
 6    1  0.1831439E-005  0.5633751E+03  0.7818608E-02  0.9984447E-01
          2   -1    0    0  501    0  0.00000000000E+00  0.00000000000E+00  0.66572079297E+03  0.66572079297E+03  0.00000000000E+00 0. -1.
         -2   -1    0    0    0  501 -0.00000000000E+00 -0.00000000000E+00 -0.11919093174E+03  0.11919093174E+03  0.00000000000E+00 0.  1.
         23    2    1    2    0    0  0.10393713366E+03 -0.92756626171E+02 -0.48817318899E+02  0.17348308265E+03  0.91140166169E+02 0.  0.
         13    1    3    3    0    0 -0.36891125423E+01 -0.45925742724E+02  0.73200382467E+00  0.46079488123E+02  0.00000000000E+00 0.  1.
        -13    1    3    3    0    0  0.10762624620E+03 -0.46830883448E+02 -0.49549322724E+02  0.12740359453E+03  0.00000000000E+00 0. -1.
         22    1    1    2    0    0 -0.10393713366E+03  0.92756626171E+02  0.59534718012E+03  0.61142864206E+03  0.00000000000E+00 0. -1.
<mgrwt>
<rscale>  0 0.56337512E+03</rscale>
<asrwt>0</asrwt>
<pdfrwt beam="1">  1        2 0.10241858E+00 0.56337512E+03</pdfrwt>
<pdfrwt beam="2">  1       -2 0.18337067E-01 0.56337512E+03</pdfrwt>
<totfact> 0.10875803E+03</totfact>
</mgrwt>
</event>
<event>
 6    1  0.1831439E-005  0.1629721E+04  0.7818608E-02  0.8802494E-01
         -2   -1    0    0    0  501 -0.00000000000E+00  0.00000000000E+00  0.11432074559E+04  0.11432074559E+04  0.00000000000E+00 0.  1.
          2   -1    0    0  501    0  0.00000000000E+00 -0.00000000000E+00 -0.58082014102E+03  0.58082014102E+03  0.00000000000E+00 0. -1.
         23    2    1    2    0    0  0.18960447866E+03  0.77444871688E+03  0.44598287159E+03  0.91825426168E+03  0.92571561148E+02 0.  0.
         13    1    3    3    0    0  0.71138017139E+02  0.13785786785E+03  0.89153387177E+02  0.17892382641E+03  0.00000000000E+00 0. -1.
        -13    1    3    3    0    0  0.11846646153E+03  0.63659084903E+03  0.35682948441E+03  0.73933043527E+03  0.00000000000E+00 0.  1.
         22    1    1    2    0    0 -0.18960447866E+03 -0.77444871688E+03  0.11640444331E+03  0.80577333527E+03  0.00000000000E+00 0.  1.
<mgrwt>
<rscale>  0 0.16297213E+04</rscale>
<asrwt>0</asrwt>
<pdfrwt beam="1">  1        2 0.89356945E-01 0.16297213E+04</pdfrwt>
<pdfrwt beam="2">  1       -2 0.17587807E+00 0.16297213E+04</pdfrwt>
<totfact> 0.95504566E+00</totfact>
</mgrwt>
</event>
<event>
 6    1  0.1831439E-005  0.2621649E+04  0.7818608E-02  0.8360885E-01
         -2   -1    0    0    0  501 -0.00000000000E+00  0.00000000000E+00  0.52332831067E+03  0.52332831067E+03  0.00000000000E+00 0.  1.
          2   -1    0    0  501    0  0.00000000000E+00 -0.00000000000E+00 -0.32833325444E+04  0.32833325444E+04  0.00000000000E+00 0. -1.
         23    2    1    2    0    0 -0.96740202429E+03 -0.85459742448E+03 -0.10636425166E+04  0.16750308427E+04  0.90495779959E+02 0.  0.
         11    1    3    3    0    0 -0.65712526512E+03 -0.61096857962E+03 -0.78325379783E+03  0.11910427075E+04  0.00000000000E+00 0. -1.
        -11    1    3    3    0    0 -0.31027675916E+03 -0.24362884486E+03 -0.28038871879E+03  0.48398813513E+03  0.00000000000E+00 0.  1.
         22    1    1    2    0    0  0.96740202429E+03  0.85459742448E+03 -0.16963617171E+04  0.21316300124E+04  0.00000000000E+00 0. -1.
<mgrwt>
<rscale>  0 0.26216490E+04</rscale>
<asrwt>0</asrwt>
<pdfrwt beam="1">  1        2 0.50512808E+00 0.26216490E+04</pdfrwt>
<pdfrwt beam="2">  1       -2 0.80512048E-01 0.26216490E+04</pdfrwt>
<totfact> 0.13750844E+00</totfact>
</mgrwt>
</event>
<event>
 6    1  0.1831439E-005  0.8240214E+03  0.7818608E-02  0.9525884E-01
          2   -1    0    0  501    0  0.00000000000E+00  0.00000000000E+00  0.13811833432E+04  0.13811833432E+04  0.00000000000E+00 0. -1.
         -2   -1    0    0    0  501 -0.00000000000E+00 -0.00000000000E+00 -0.12290388755E+03  0.12290388755E+03  0.00000000000E+00 0.  1.
         23    2    1    2    0    0 -0.48252299070E+02 -0.27531748658E+03  0.11767266139E+04  0.12129191199E+04  0.91429014128E+02 0.  0.
         11    1    3    3    0    0 -0.56275129359E+02 -0.21465507078E+03  0.76036171421E+03  0.79208183039E+03  0.00000000000E+00 0. -1.
        -11    1    3    3    0    0  0.80228302892E+01 -0.60662415810E+02  0.41636489974E+03  0.42083728950E+03  0.00000000000E+00 0.  1.
         22    1    1    2    0    0  0.48252299070E+02  0.27531748658E+03  0.81552841681E+02  0.29116811084E+03  0.00000000000E+00 0.  1.
<mgrwt>
<rscale>  0 0.82402136E+03</rscale>
<asrwt>0</asrwt>
<pdfrwt beam="1">  1        2 0.21248973E+00 0.82402136E+03</pdfrwt>
<pdfrwt beam="2">  1       -2 0.18908291E-01 0.82402136E+03</pdfrwt>
<totfact> 0.35163143E+02</totfact>
</mgrwt>
</event>
<event>
 6    1  0.1831439E-005  0.9159350E+03  0.7818608E-02  0.9405878E-01
          1   -1    0    0  501    0  0.00000000000E+00  0.00000000000E+00  0.30540187328E+04  0.30540187328E+04  0.00000000000E+00 0. -1.
         -1   -1    0    0    0  501 -0.00000000000E+00 -0.00000000000E+00 -0.68674829450E+02  0.68674829450E+02  0.00000000000E+00 0.  1.
         23    2    1    2    0    0 -0.61723401873E+02  0.17672619027E+02  0.30377786170E+04  0.30397990571E+04  0.90317668828E+02 0.  0.
         11    1    3    3    0    0 -0.33522384474E+02  0.32099039872E+02  0.27300274710E+04  0.27304219621E+04  0.00000000000E+00 0.  1.
        -11    1    3    3    0    0 -0.28201017400E+02 -0.14426420845E+02  0.30775114601E+03  0.30937709494E+03  0.00000000000E+00 0. -1.
         22    1    1    2    0    0  0.61723401873E+02 -0.17672619027E+02 -0.52434713654E+02  0.82894505235E+02  0.00000000000E+00 0.  1.
<mgrwt>
<rscale>  0 0.91593497E+03</rscale>
<asrwt>0</asrwt>
<pdfrwt beam="1">  1        1 0.46984893E+00 0.91593497E+03</pdfrwt>
<pdfrwt beam="2">  1       -1 0.10565361E-01 0.91593497E+03</pdfrwt>
<totfact> 0.32744350E+01</totfact>
</mgrwt>
</event>
<event>
 6    1  0.1831439E-005  0.6567949E+03  0.7818608E-02  0.9794112E-01
          4   -1    0    0  501    0  0.00000000000E+00  0.00000000000E+00  0.16201272912E+04  0.16201272912E+04  0.00000000000E+00 0. -1.
         -4   -1    0    0    0  501 -0.00000000000E+00 -0.00000000000E+00 -0.66565693303E+02  0.66565693303E+02  0.00000000000E+00 0.  1.
         23    2    1    2    0    0  0.16311979247E+03  0.25392618233E+03  0.50746131565E+03  0.59792653880E+03  0.94406494223E+02 0.  0.
         11    1    3    3    0    0  0.14038362154E+03  0.16469140270E+03  0.41147288107E+03  0.46490940104E+03  0.00000000000E+00 0. -1.
        -11    1    3    3    0    0  0.22736170927E+02  0.89234779634E+02  0.95988434583E+02  0.13301713776E+03  0.00000000000E+00 0.  1.
         22    1    1    2    0    0 -0.16311979247E+03 -0.25392618233E+03  0.10461002823E+04  0.10887664457E+04  0.00000000000E+00 0. -1.
<mgrwt>
<rscale>  0 0.65679493E+03</rscale>
<asrwt>0</asrwt>
<pdfrwt beam="1">  1        4 0.24925032E+00 0.65679493E+03</pdfrwt>
<pdfrwt beam="2">  1       -4 0.10240877E-01 0.65679493E+03</pdfrwt>
<totfact> 0.98821942E+00</totfact>
</mgrwt>
</event>
<event>
 6    1  0.1831439E-005  0.1890862E+04  0.7818608E-02  0.8659419E-01
         -2   -1    0    0    0  501 -0.00000000000E+00  0.00000000000E+00  0.27184390664E+04  0.27184390664E+04  0.00000000000E+00 0.  1.
          2   -1    0    0  501    0  0.00000000000E+00 -0.00000000000E+00 -0.32880613337E+03  0.32880613337E+03  0.00000000000E+00 0. -1.
         23    2    1    2    0    0  0.23499139905E+03  0.60312584816E+03  0.91876471425E+02  0.66005720902E+03  0.90843199127E+02 0.  0.
         11    1    3    3    0    0  0.17182644639E+03  0.32780875094E+03  0.33561871499E+02  0.37163060166E+03  0.00000000000E+00 0.  1.
        -11    1    3    3    0    0  0.63164952655E+02  0.27531709723E+03  0.58314599926E+02  0.28842660736E+03  0.00000000000E+00 0. -1.
         22    1    1    2    0    0 -0.23499139905E+03 -0.60312584816E+03  0.22977564616E+04  0.23871879907E+04  0.00000000000E+00 0.  1.
<mgrwt>
<rscale>  0 0.18908616E+04</rscale>
<asrwt>0</asrwt>
<pdfrwt beam="1">  1        2 0.50585561E-01 0.18908616E+04</pdfrwt>
<pdfrwt beam="2">  1       -2 0.41822138E+00 0.18908616E+04</pdfrwt>
<totfact> 0.52517674E-01</totfact>
</mgrwt>
</event>
<event>
 6    1  0.1831439E-005  0.2525935E+04  0.7818608E-02  0.8393804E-01
          2   -1    0    0  501    0  0.00000000000E+00  0.00000000000E+00  0.18240912015E+04  0.18240912015E+04  0.00000000000E+00 0. -1.
         -2   -1    0    0    0  501 -0.00000000000E+00 -0.00000000000E+00 -0.87445545352E+03  0.87445545352E+03  0.00000000000E+00 0.  1.
         23    2    1    2    0    0 -0.11862206934E+03  0.59195661630E+03  0.16585327591E+04  0.17674082102E+04  0.92287797165E+02 0.  0.
         11    1    3    3    0    0 -0.12091426781E+03  0.43524776841E+03  0.12951496111E+04  0.13716681068E+04  0.00000000000E+00 0.  1.
        -11    1    3    3    0    0  0.22921984669E+01  0.15670884788E+03  0.36338314797E+03  0.39574010336E+03  0.00000000000E+00 0. -1.
         22    1    1    2    0    0  0.11862206934E+03 -0.59195661630E+03 -0.70889701117E+03  0.93113844479E+03  0.00000000000E+00 0.  1.
<mgrwt>
<rscale>  0 0.25259347E+04</rscale>
<asrwt>0</asrwt>
<pdfrwt beam="1">  1        2 0.28062941E+00 0.25259347E+04</pdfrwt>
<pdfrwt beam="2">  1       -2 0.13453161E+00 0.25259347E+04</pdfrwt>
<totfact> 0.29643127E+00</totfact>
</mgrwt>
</event>
<event>
 6    1  0.1831439E-005  0.4193407E+04  0.7818608E-02  0.7966628E-01
          1   -1    0    0  501    0  0.00000000000E+00  0.00000000000E+00  0.49756035991E+04  0.49756035991E+04  0.00000000000E+00 0. -1.
         -1   -1    0    0    0  501 -0.00000000000E+00 -0.00000000000E+00 -0.88354414106E+03  0.88354414106E+03  0.00000000000E+00 0.  1.
         23    2    1    2    0    0 -0.15469034897E+04  0.14135795874E+04  0.20910822094E+04  0.29617303374E+04  0.90022934178E+02 0.  0.
         11    1    3    3    0    0 -0.57558782784E+03  0.48918685417E+03  0.80131784467E+03  0.11012335874E+04  0.00000000000E+00 0.  1.
        -11    1    3    3    0    0 -0.97131566183E+03  0.92439273321E+03  0.12897643647E+04  0.18604967500E+04  0.00000000000E+00 0. -1.
         22    1    1    2    0    0  0.15469034897E+04 -0.14135795874E+04  0.20009772486E+04  0.28974174027E+04  0.00000000000E+00 0.  1.
<mgrwt>
<rscale>  0 0.41934069E+04</rscale>
<asrwt>0</asrwt>
<pdfrwt beam="1">  1        1 0.76547746E+00 0.41934069E+04</pdfrwt>
<pdfrwt beam="2">  1       -1 0.13592987E+00 0.41934069E+04</pdfrwt>
<totfact> 0.32032765E-03</totfact>
</mgrwt>
</event>
<event>
 6    1  0.1831439E-005  0.2574876E+04  0.7818608E-02  0.8376786E-01
          1   -1    0    0  501    0  0.00000000000E+00  0.00000000000E+00  0.75723878995E+03  0.75723878995E+03  0.00000000000E+00 0. -1.
         -1   -1    0    0    0  501 -0.00000000000E+00 -0.00000000000E+00 -0.21888686767E+04  0.21888686767E+04  0.00000000000E+00 0.  1.
         23    2    1    2    0    0  0.10771517238E+04  0.60595043075E+03 -0.31101857679E+03  0.12778144862E+04  0.92981426123E+02 0.  0.
         13    1    3    3    0    0  0.58949033436E+03  0.36371985332E+03 -0.13621864955E+03  0.70593661648E+03  0.00000000000E+00 0.  1.
        -13    1    3    3    0    0  0.48766138940E+03  0.24223057743E+03 -0.17479992724E+03  0.57187786976E+03  0.00000000000E+00 0. -1.
         22    1    1    2    0    0 -0.10771517238E+04 -0.60595043075E+03 -0.11206113100E+04  0.16682929805E+04  0.00000000000E+00 0.  1.
<mgrwt>
<rscale>  0 0.25748757E+04</rscale>
<asrwt>0</asrwt>
<pdfrwt beam="1">  1        1 0.11649828E+00 0.25748757E+04</pdfrwt>
<pdfrwt beam="2">  1       -1 0.33674903E+00 0.25748757E+04</pdfrwt>
<totfact> 0.40485745E-01</totfact>
</mgrwt>
</event>
<event>
 6    1  0.1831439E-005  0.1219819E+04  0.7818608E-02  0.9095684E-01
         -3   -1    0    0    0  501 -0.00000000000E+00  0.00000000000E+00  0.69370259889E+03  0.69370259889E+03  0.00000000000E+00 0.  1.
          3   -1    0    0  501    0  0.00000000000E+00 -0.00000000000E+00 -0.53623801766E+03  0.53623801766E+03  0.00000000000E+00 0. -1.
         23    2    1    2    0    0  0.90942336337E+02 -0.49061525096E+03  0.42657991580E+03  0.66302184255E+03  0.93025298346E+02 0.  0.
         11    1    3    3    0    0 -0.13626947250E+02 -0.10656718992E+03  0.66951504376E+02  0.12658895527E+03  0.00000000000E+00 0. -1.
        -11    1    3    3    0    0  0.10456928359E+03 -0.38404806104E+03  0.35962841142E+03  0.53643288728E+03  0.00000000000E+00 0.  1.
         22    1    1    2    0    0 -0.90942336337E+02  0.49061525096E+03 -0.26911533457E+03  0.56691877400E+03  0.00000000000E+00 0. -1.
<mgrwt>
<rscale>  0 0.12198192E+04</rscale>
<asrwt>0</asrwt>
<pdfrwt beam="1">  1        3 0.82498156E-01 0.12198192E+04</pdfrwt>
<pdfrwt beam="2">  1       -3 0.10672348E+00 0.12198192E+04</pdfrwt>
<totfact> 0.26294281E+00</totfact>
</mgrwt>
</event>
<event>
 6    1  0.1831439E-005  0.2196209E+04  0.7818608E-02  0.8520008E-01
         -1   -1    0    0    0  501 -0.00000000000E+00  0.00000000000E+00  0.16700233430E+04  0.16700233430E+04  0.00000000000E+00 0.  1.
          1   -1    0    0  501    0  0.00000000000E+00 -0.00000000000E+00 -0.72204595339E+03  0.72204595339E+03  0.00000000000E+00 0. -1.
         23    2    1    2    0    0 -0.24507863061E+03 -0.42114597643E+03  0.15443853013E+04  0.16219200474E+04  0.89839928439E+02 0.  0.
         13    1    3    3    0    0 -0.79149040137E+02 -0.86170751797E+02  0.28087327171E+03  0.30426922910E+03  0.00000000000E+00 0. -1.
        -13    1    3    3    0    0 -0.16592959047E+03 -0.33497522463E+03  0.12635120296E+04  0.13176508183E+04  0.00000000000E+00 0.  1.
         22    1    1    2    0    0  0.24507863061E+03  0.42114597643E+03 -0.59640791165E+03  0.77014924899E+03  0.00000000000E+00 0. -1.
<mgrwt>
<rscale>  0 0.21962091E+04</rscale>
<asrwt>0</asrwt>
<pdfrwt beam="1">  1        1 0.11108399E+00 0.21962091E+04</pdfrwt>
<pdfrwt beam="2">  1       -1 0.25692667E+00 0.21962091E+04</pdfrwt>
<totfact> 0.14886781E+00</totfact>
</mgrwt>
</event>
<event>
 6    1  0.1831439E-005  0.1125439E+04  0.7818608E-02  0.9180746E-01
         -1   -1    0    0    0  501 -0.00000000000E+00  0.00000000000E+00  0.17589404354E+03  0.17589404354E+03  0.00000000000E+00 0.  1.
          1   -1    0    0  501    0  0.00000000000E+00 -0.00000000000E+00 -0.18002505805E+04  0.18002505805E+04  0.00000000000E+00 0. -1.
         23    2    1    2    0    0 -0.53218893908E+03  0.16175154417E+01 -0.51697771366E+03  0.74752119046E+03  0.91072995616E+02 0.  0.
         13    1    3    3    0    0 -0.19935825220E+03 -0.40598410204E+02 -0.17355726106E+03  0.26742114071E+03  0.00000000000E+00 0. -1.
        -13    1    3    3    0    0 -0.33283068688E+03  0.42215925646E+02 -0.34342045260E+03  0.48010004975E+03  0.00000000000E+00 0.  1.
         22    1    1    2    0    0  0.53218893908E+03 -0.16175154417E+01 -0.11073788233E+04  0.12286234336E+04  0.00000000000E+00 0. -1.
<mgrwt>
<rscale>  0 0.11254392E+04</rscale>
<asrwt>0</asrwt>
<pdfrwt beam="1">  1        1 0.27696162E+00 0.11254392E+04</pdfrwt>
<pdfrwt beam="2">  1       -1 0.27060623E-01 0.11254392E+04</pdfrwt>
<totfact> 0.49552352E+01</totfact>
</mgrwt>
</event>
<event>
 6    1  0.1831439E-005  0.8981578E+03  0.7818608E-02  0.9427887E-01
          1   -1    0    0  501    0  0.00000000000E+00  0.00000000000E+00  0.66742568325E+03  0.66742568325E+03  0.00000000000E+00 0. -1.
         -1   -1    0    0    0  501 -0.00000000000E+00 -0.00000000000E+00 -0.30216374059E+03  0.30216374059E+03  0.00000000000E+00 0.  1.
         23    2    1    2    0    0  0.39378280013E+03  0.85654838870E+02 -0.18104346060E+02  0.41337781265E+03  0.90287338753E+02 0.  0.
         11    1    3    3    0    0  0.35980458155E+03  0.55149677108E+02  0.66716069832E+00  0.36400723742E+03  0.00000000000E+00 0. -1.
        -11    1    3    3    0    0  0.33978218579E+02  0.30505161762E+02 -0.18771506759E+02  0.49370575224E+02  0.00000000000E+00 0.  1.
         22    1    1    2    0    0 -0.39378280013E+03 -0.85654838870E+02  0.38336628872E+03  0.55621161120E+03  0.00000000000E+00 0. -1.
<mgrwt>
<rscale>  0 0.89815776E+03</rscale>
<asrwt>0</asrwt>
<pdfrwt beam="1">  1        1 0.10268087E+00 0.89815776E+03</pdfrwt>
<pdfrwt beam="2">  1       -1 0.46486729E-01 0.89815776E+03</pdfrwt>
<totfact> 0.13589878E+02</totfact>
</mgrwt>
</event>
<event>
 6    1  0.1831439E-005  0.3568706E+04  0.7818608E-02  0.8097698E-01
          2   -1    0    0  501    0  0.00000000000E+00  0.00000000000E+00  0.37153913068E+04  0.37153913068E+04  0.00000000000E+00 0.  1.
         -2   -1    0    0    0  501 -0.00000000000E+00 -0.00000000000E+00 -0.85695319650E+03  0.85695319650E+03  0.00000000000E+00 0. -1.
         23    2    1    2    0    0 -0.12655457404E+04 -0.74524183398E+03  0.27258549469E+04  0.30977022730E+04  0.92101946294E+02 0.  0.
         11    1    3    3    0    0 -0.82304023031E+03 -0.50958482089E+03  0.17144680215E+04  0.19688759501E+04  0.00000000000E+00 0.  1.
        -11    1    3    3    0    0 -0.44250551013E+03 -0.23565701310E+03  0.10113869254E+04  0.11288263229E+04  0.00000000000E+00 0. -1.
         22    1    1    2    0    0  0.12655457404E+04  0.74524183398E+03  0.13258316347E+03  0.14746422303E+04  0.00000000000E+00 0. -1.
<mgrwt>
<rscale>  0 0.35687065E+04</rscale>
<asrwt>0</asrwt>
<pdfrwt beam="1">  1        2 0.57159865E+00 0.35687065E+04</pdfrwt>
<pdfrwt beam="2">  1       -2 0.13183896E+00 0.35687065E+04</pdfrwt>
<totfact> 0.19428817E-01</totfact>
</mgrwt>
</event>
<event>
 6    1  0.1831439E-005  0.2540979E+04  0.7818608E-02  0.8388530E-01
          1   -1    0    0  501    0  0.00000000000E+00  0.00000000000E+00  0.13067525765E+04  0.13067525765E+04  0.00000000000E+00 0. -1.
         -1   -1    0    0    0  501 -0.00000000000E+00 -0.00000000000E+00 -0.12352331124E+04  0.12352331124E+04  0.00000000000E+00 0.  1.
         23    2    1    2    0    0 -0.11580789606E+04  0.48122102134E+03  0.23177113887E+03  0.12777067839E+04  0.78078258845E+02 0.  0.
         13    1    3    3    0    0 -0.11218192716E+03  0.68741441947E+02  0.36934632249E+02  0.13665408037E+03  0.00000000000E+00 0.  1.
        -13    1    3    3    0    0 -0.10458970334E+04  0.41247957939E+03  0.19483650662E+03  0.11410527035E+04  0.00000000000E+00 0. -1.
         22    1    1    2    0    0  0.11580789606E+04 -0.48122102134E+03 -0.16025167482E+03  0.12642789050E+04  0.00000000000E+00 0.  1.
<mgrwt>
<rscale>  0 0.25409794E+04</rscale>
<asrwt>0</asrwt>
<pdfrwt beam="1">  1        1 0.20103886E+00 0.25409794E+04</pdfrwt>
<pdfrwt beam="2">  1       -1 0.19003586E+00 0.25409794E+04</pdfrwt>
<totfact> 0.13985632E+00</totfact>
</mgrwt>
</event>
<event>
 6    1  0.1831439E-005  0.2329231E+04  0.7818608E-02  0.8466484E-01
         -1   -1    0    0    0  501 -0.00000000000E+00  0.00000000000E+00  0.40176706295E+03  0.40176706295E+03  0.00000000000E+00 0.  1.
          1   -1    0    0  501    0  0.00000000000E+00 -0.00000000000E+00 -0.33759088123E+04  0.33759088123E+04  0.00000000000E+00 0. -1.
         23    2    1    2    0    0  0.10236256239E+04 -0.27169593203E+03 -0.22683071144E+04  0.25049502060E+04  0.89052073033E+02 0.  0.
         11    1    3    3    0    0  0.59900491072E+03 -0.16934534620E+03 -0.12310590948E+04  0.13794894795E+04  0.00000000000E+00 0. -1.
        -11    1    3    3    0    0  0.42462071315E+03 -0.10235058583E+03 -0.10372480197E+04  0.11254607265E+04  0.00000000000E+00 0.  1.
         22    1    1    2    0    0 -0.10236256239E+04  0.27169593203E+03 -0.70583463487E+03  0.12727256692E+04  0.00000000000E+00 0. -1.
<mgrwt>
<rscale>  0 0.23292307E+04</rscale>
<asrwt>0</asrwt>
<pdfrwt beam="1">  1        1 0.51937056E+00 0.23292307E+04</pdfrwt>
<pdfrwt beam="2">  1       -1 0.61810320E-01 0.23292307E+04</pdfrwt>
<totfact> 0.74863428E-01</totfact>
</mgrwt>
</event>
<event>
 6    1  0.1831439E-005  0.3549781E+04  0.7818608E-02  0.8102093E-01
          1   -1    0    0  501    0  0.00000000000E+00  0.00000000000E+00  0.10464351169E+04  0.10464351169E+04  0.00000000000E+00 0. -1.
         -1   -1    0    0    0  501 -0.00000000000E+00 -0.00000000000E+00 -0.30104463972E+04  0.30104463972E+04  0.00000000000E+00 0.  1.
         23    2    1    2    0    0 -0.10150246235E+04  0.71993379240E+03  0.46217755011E+03  0.13301670272E+04  0.84596576077E+02 0.  0.
         11    1    3    3    0    0 -0.70144515143E+03  0.54286732463E+03  0.31800216078E+03  0.94226090170E+03  0.00000000000E+00 0.  1.
        -11    1    3    3    0    0 -0.31357947210E+03  0.17706646777E+03  0.14417538933E+03  0.38790612552E+03  0.00000000000E+00 0. -1.
         22    1    1    2    0    0  0.10150246235E+04 -0.71993379240E+03 -0.24261888304E+04  0.27267144868E+04  0.00000000000E+00 0.  1.
<mgrwt>
<rscale>  0 0.35497813E+04</rscale>
<asrwt>0</asrwt>
<pdfrwt beam="1">  1        1 0.16099002E+00 0.35497813E+04</pdfrwt>
<pdfrwt beam="2">  1       -1 0.46314560E+00 0.35497813E+04</pdfrwt>
<totfact> 0.29715165E-02</totfact>
</mgrwt>
</event>
<event>
 6    1  0.1831439E-005  0.2701984E+04  0.7818608E-02  0.8334361E-01
         -1   -1    0    0    0  501 -0.00000000000E+00  0.00000000000E+00  0.12176716335E+04  0.12176716335E+04  0.00000000000E+00 0.  1.
          1   -1    0    0  501    0  0.00000000000E+00 -0.00000000000E+00 -0.14989095639E+04  0.14989095639E+04  0.00000000000E+00 0. -1.
         23    2    1    2    0    0  0.45671759371E+03  0.81314668185E+03  0.83973763453E+03  0.12583683516E+04  0.92374925162E+02 0.  0.
         13    1    3    3    0    0  0.13473866471E+03  0.33150429385E+03  0.32115812932E+03  0.48082444680E+03  0.00000000000E+00 0.  1.
        -13    1    3    3    0    0  0.32197892901E+03  0.48164238801E+03  0.51857950520E+03  0.77754390478E+03  0.00000000000E+00 0. -1.
         22    1    1    2    0    0 -0.45671759371E+03 -0.81314668185E+03 -0.11209755649E+04  0.14582128458E+04  0.00000000000E+00 0. -1.
<mgrwt>
<rscale>  0 0.27019842E+04</rscale>
<asrwt>0</asrwt>
<pdfrwt beam="1">  1        1 0.23060147E+00 0.27019842E+04</pdfrwt>
<pdfrwt beam="2">  1       -1 0.18733410E+00 0.27019842E+04</pdfrwt>
<totfact> 0.10556164E+00</totfact>
</mgrwt>
</event>
<event>
 6    1  0.1831439E-005  0.5346354E+04  0.7818608E-02  0.7777192E-01
          1   -1    0    0  501    0  0.00000000000E+00  0.00000000000E+00  0.25003619467E+04  0.25003619467E+04  0.00000000000E+00 0. -1.
         -1   -1    0    0    0  501 -0.00000000000E+00 -0.00000000000E+00 -0.28579364020E+04  0.28579364020E+04  0.00000000000E+00 0.  1.
         23    2    1    2    0    0 -0.16908445758E+04 -0.99295590160E+03  0.16408630279E+04  0.25585360058E+04  0.93585334555E+02 0.  0.
         13    1    3    3    0    0 -0.72291051514E+03 -0.37178997438E+03  0.68929880476E+03  0.10658143554E+04  0.00000000000E+00 0. -1.
        -13    1    3    3    0    0 -0.96793406064E+03 -0.62116592722E+03  0.95156422317E+03  0.14927216504E+04  0.00000000000E+00 0.  1.
         22    1    1    2    0    0  0.16908445758E+04  0.99295590160E+03 -0.19984374832E+04  0.27997623428E+04  0.00000000000E+00 0.  1.
<mgrwt>
<rscale>  0 0.53463541E+04</rscale>
<asrwt>0</asrwt>
<pdfrwt beam="1">  1        1 0.38467107E+00 0.53463541E+04</pdfrwt>
<pdfrwt beam="2">  1       -1 0.43968252E+00 0.53463541E+04</pdfrwt>
<totfact> 0.36351428E-03</totfact>
</mgrwt>
</event>
<event>
 6    1  0.1831439E-005  0.3536232E+04  0.7818608E-02  0.8105257E-01
         -2   -1    0    0    0  501 -0.00000000000E+00  0.00000000000E+00  0.13757385635E+04  0.13757385635E+04  0.00000000000E+00 0.  1.
          2   -1    0    0  501    0  0.00000000000E+00 -0.00000000000E+00 -0.22724044037E+04  0.22724044037E+04  0.00000000000E+00 0. -1.
         23    2    1    2    0    0 -0.23003664443E+03  0.12693206520E+04  0.79711199078E+03  0.15190645008E+04  0.89875782546E+02 0.  0.
         11    1    3    3    0    0 -0.15279640188E+03  0.86006540228E+03  0.48983157654E+03  0.10014959860E+04  0.00000000000E+00 0. -1.
        -11    1    3    3    0    0 -0.77240242548E+02  0.40925524970E+03  0.30728041424E+03  0.51756851474E+03  0.00000000000E+00 0.  1.
         22    1    1    2    0    0  0.23003664443E+03 -0.12693206520E+04 -0.16937778310E+04  0.21290784664E+04  0.00000000000E+00 0. -1.
<mgrwt>
<rscale>  0 0.35362321E+04</rscale>
<asrwt>0</asrwt>
<pdfrwt beam="1">  1        2 0.34960067E+00 0.35362321E+04</pdfrwt>
<pdfrwt beam="2">  1       -2 0.21165209E+00 0.35362321E+04</pdfrwt>
<totfact> 0.43026795E-01</totfact>
</mgrwt>
</event>
<event>
 6    1  0.1831439E-005  0.5140243E+04  0.7818608E-02  0.7807230E-01
         -2   -1    0    0    0  501 -0.00000000000E+00  0.00000000000E+00  0.16575090131E+04  0.16575090131E+04  0.00000000000E+00 0.  1.
          2   -1    0    0  501    0  0.00000000000E+00 -0.00000000000E+00 -0.39852118548E+04  0.39852118548E+04  0.00000000000E+00 0. -1.
         23    2    1    2    0    0  0.21508079681E+04  0.47567183453E+03 -0.26160399044E+04  0.34211500561E+04  0.91456629199E+02 0.  0.
         11    1    3    3    0    0  0.20020098587E+04  0.42046718173E+03 -0.24132680633E+04  0.31636527734E+04  0.00000000000E+00 0.  1.
        -11    1    3    3    0    0  0.14879810942E+03  0.55204652796E+02 -0.20277184110E+03  0.25749728271E+03  0.00000000000E+00 0. -1.
         22    1    1    2    0    0 -0.21508079681E+04 -0.47567183453E+03  0.28833706268E+03  0.22215708118E+04  0.00000000000E+00 0. -1.
<mgrwt>
<rscale>  0 0.51402430E+04</rscale>
<asrwt>0</asrwt>
<pdfrwt beam="1">  1        2 0.61310951E+00 0.51402430E+04</pdfrwt>
<pdfrwt beam="2">  1       -2 0.25500139E+00 0.51402430E+04</pdfrwt>
<totfact> 0.15088429E-02</totfact>
</mgrwt>
</event>
<event>
 6    1  0.1831439E-005  0.1569426E+04  0.7818608E-02  0.8839554E-01
         -1   -1    0    0    0  501 -0.00000000000E+00  0.00000000000E+00  0.24864463716E+04  0.24864463716E+04  0.00000000000E+00 0.  1.
          1   -1    0    0  501    0  0.00000000000E+00 -0.00000000000E+00 -0.24765232985E+03  0.24765232985E+03  0.00000000000E+00 0. -1.
         23    2    1    2    0    0 -0.38362506884E+03  0.51200441741E+03  0.33951782125E+03  0.72996126139E+03  0.90853592693E+02 0.  0.
         11    1    3    3    0    0 -0.30179022096E+03  0.38947868539E+03  0.30204543515E+03  0.57792943232E+03  0.00000000000E+00 0.  1.
        -11    1    3    3    0    0 -0.81834847874E+02  0.12252573202E+03  0.37472386101E+02  0.15203182908E+03  0.00000000000E+00 0. -1.
         22    1    1    2    0    0  0.38362506884E+03 -0.51200441741E+03  0.18992762204E+04  0.20041374400E+04  0.00000000000E+00 0.  1.
<mgrwt>
<rscale>  0 0.15694257E+04</rscale>
<asrwt>0</asrwt>
<pdfrwt beam="1">  1        1 0.38100360E-01 0.15694257E+04</pdfrwt>
<pdfrwt beam="2">  1       -1 0.38253019E+00 0.15694257E+04</pdfrwt>
<totfact> 0.10241683E+00</totfact>
</mgrwt>
</event>
<event>
 6    1  0.1831439E-005  0.4388835E+04  0.7818608E-02  0.7930393E-01
         -2   -1    0    0    0  501 -0.00000000000E+00  0.00000000000E+00  0.13718036422E+04  0.13718036422E+04  0.00000000000E+00 0.  1.
          2   -1    0    0  501    0  0.00000000000E+00 -0.00000000000E+00 -0.35103194927E+04  0.35103194927E+04  0.00000000000E+00 0. -1.
         23    2    1    2    0    0  0.10229184310E+03  0.81894821759E+03 -0.33304382251E+04  0.34323580672E+04  0.90129495905E+02 0.  0.
         13    1    3    3    0    0  0.10383482423E+03  0.57459435181E+03 -0.22371299913E+04  0.23120750286E+04  0.00000000000E+00 0.  1.
        -13    1    3    3    0    0 -0.15429811246E+01  0.24435386578E+03 -0.10933082338E+04  0.11202830386E+04  0.00000000000E+00 0. -1.
         22    1    1    2    0    0 -0.10229184310E+03 -0.81894821759E+03  0.11919223746E+04  0.14497650677E+04  0.00000000000E+00 0.  1.
<mgrwt>
<rscale>  0 0.43888354E+04</rscale>
<asrwt>0</asrwt>
<pdfrwt beam="1">  1        2 0.54004915E+00 0.43888354E+04</pdfrwt>
<pdfrwt beam="2">  1       -2 0.21104672E+00 0.43888354E+04</pdfrwt>
<totfact> 0.68786206E-02</totfact>
</mgrwt>
</event>
<event>
 6    1  0.1831439E-005  0.5849397E+04  0.7818608E-02  0.7709360E-01
         -2   -1    0    0    0  501 -0.00000000000E+00  0.00000000000E+00  0.37125225171E+04  0.37125225171E+04  0.00000000000E+00 0.  1.
          2   -1    0    0  501    0  0.00000000000E+00 -0.00000000000E+00 -0.23040560629E+04  0.23040560629E+04  0.00000000000E+00 0. -1.
         23    2    1    2    0    0  0.10991051301E+04  0.78716209916E+03  0.33712240510E+04  0.36332880729E+04  0.89299276463E+02 0.  0.
         13    1    3    3    0    0  0.80681620814E+03  0.62488301695E+03  0.25283787331E+04  0.27265601399E+04  0.00000000000E+00 0. -1.
        -13    1    3    3    0    0  0.29228892193E+03  0.16227908220E+03  0.84284531793E+03  0.90672793293E+03  0.00000000000E+00 0.  1.
         22    1    1    2    0    0 -0.10991051301E+04 -0.78716209916E+03 -0.19627575969E+04  0.23832905071E+04  0.00000000000E+00 0. -1.
<mgrwt>
<rscale>  0 0.58493966E+04</rscale>
<asrwt>0</asrwt>
<pdfrwt beam="1">  1        2 0.35447016E+00 0.58493966E+04</pdfrwt>
<pdfrwt beam="2">  1       -2 0.57115731E+00 0.58493966E+04</pdfrwt>
<totfact> 0.21066603E-03</totfact>
</mgrwt>
</event>
<event>
 6    1  0.1831439E-005  0.1258829E+04  0.7818608E-02  0.9062867E-01
          2   -1    0    0  501    0  0.00000000000E+00  0.00000000000E+00  0.82162576989E+03  0.82162576989E+03  0.00000000000E+00 0. -1.
         -2   -1    0    0    0  501 -0.00000000000E+00 -0.00000000000E+00 -0.48216926922E+03  0.48216926922E+03  0.00000000000E+00 0.  1.
         23    2    1    2    0    0 -0.19553695963E+01  0.58323365713E+03 -0.65701754317E+02  0.59364115870E+03  0.89038095766E+02 0.  0.
         11    1    3    3    0    0  0.31730798208E+02  0.38400260556E+03 -0.16429202072E+02  0.38566146205E+03  0.00000000000E+00 0. -1.
        -11    1    3    3    0    0 -0.33686167805E+02  0.19923105157E+03 -0.49272552244E+02  0.20797969664E+03  0.00000000000E+00 0.  1.
         22    1    1    2    0    0  0.19553695963E+01 -0.58323365713E+03  0.40515825498E+03  0.71015388041E+03  0.00000000000E+00 0. -1.
<mgrwt>
<rscale>  0 0.12588291E+04</rscale>
<asrwt>0</asrwt>
<pdfrwt beam="1">  1        2 0.12640396E+00 0.12588291E+04</pdfrwt>
<pdfrwt beam="2">  1       -2 0.74179887E-01 0.12588291E+04</pdfrwt>
<totfact> 0.53475017E+01</totfact>
</mgrwt>
</event>
<event>
 6    1  0.1831439E-005  0.2936669E+04  0.7818608E-02  0.8262050E-01
          2   -1    0    0  501    0  0.00000000000E+00  0.00000000000E+00  0.38993396618E+04  0.38993396618E+04  0.00000000000E+00 0. -1.
         -2   -1    0    0    0  501 -0.00000000000E+00 -0.00000000000E+00 -0.55291590155E+03  0.55291590155E+03  0.00000000000E+00 0.  1.
         23    2    1    2    0    0 -0.50239477159E+03  0.12828255764E+04  0.91431052554E+03  0.16570423779E+04  0.10855293152E+03 0.  0.
         13    1    3    3    0    0 -0.67778121477E+02  0.27641542801E+03  0.21581923620E+03  0.35717965411E+03  0.00000000000E+00 0. -1.
        -13    1    3    3    0    0 -0.43461665012E+03  0.10064101484E+04  0.69849128935E+03  0.12998627237E+04  0.00000000000E+00 0.  1.
         22    1    1    2    0    0  0.50239477159E+03 -0.12828255764E+04  0.24321132347E+04  0.27952131855E+04  0.00000000000E+00 0. -1.
<mgrwt>
<rscale>  0 0.29366695E+04</rscale>
<asrwt>0</asrwt>
<pdfrwt beam="1">  1        2 0.59989839E+00 0.29366695E+04</pdfrwt>
<pdfrwt beam="2">  1       -2 0.85063987E-01 0.29366695E+04</pdfrwt>
<totfact> 0.42583783E-01</totfact>
</mgrwt>
</event>
<event>
 6    1  0.1831439E-005  0.2539396E+04  0.7818608E-02  0.8389084E-01
          2   -1    0    0  501    0  0.00000000000E+00  0.00000000000E+00  0.41674410875E+04  0.41674410875E+04  0.00000000000E+00 0.  1.
         -2   -1    0    0    0  501 -0.00000000000E+00 -0.00000000000E+00 -0.38683993375E+03  0.38683993375E+03  0.00000000000E+00 0. -1.
         23    2    1    2    0    0  0.48997305831E+03 -0.77302622084E+03  0.31872513204E+03  0.97346704596E+03  0.91701929089E+02 0.  0.
         13    1    3    3    0    0  0.93284121606E+02 -0.10037322624E+03  0.25876745445E+02  0.13945005502E+03  0.00000000000E+00 0. -1.
        -13    1    3    3    0    0  0.39668893671E+03 -0.67265299460E+03  0.29284838659E+03  0.83401699094E+03  0.00000000000E+00 0.  1.
         22    1    1    2    0    0 -0.48997305831E+03  0.77302622084E+03  0.34618760218E+04  0.35808139753E+04  0.00000000000E+00 0.  1.
<mgrwt>
<rscale>  0 0.25393957E+04</rscale>
<asrwt>0</asrwt>
<pdfrwt beam="1">  1        2 0.64114475E+00 0.25393957E+04</pdfrwt>
<pdfrwt beam="2">  1       -2 0.59513839E-01 0.25393957E+04</pdfrwt>
<totfact> 0.58329359E-01</totfact>
</mgrwt>
</event>
<event>
 6    1  0.1831439E-005  0.1599282E+04  0.7818608E-02  0.8820989E-01
         -2   -1    0    0    0  501 -0.00000000000E+00  0.00000000000E+00  0.56602624903E+03  0.56602624903E+03  0.00000000000E+00 0.  1.
          2   -1    0    0  501    0  0.00000000000E+00 -0.00000000000E+00 -0.11296744587E+04  0.11296744587E+04  0.00000000000E+00 0. -1.
         23    2    1    2    0    0  0.29082301125E+03  0.60254234006E+03  0.17610474151E+03  0.69826914404E+03  0.94507259548E+02 0.  0.
         11    1    3    3    0    0  0.42240658917E+02  0.34511156491E+02  0.25424119395E+02  0.60180387462E+02  0.00000000000E+00 0.  1.
        -11    1    3    3    0    0  0.24858235233E+03  0.56803118357E+03  0.15068062212E+03  0.63808875658E+03  0.00000000000E+00 0. -1.
         22    1    1    2    0    0 -0.29082301125E+03 -0.60254234006E+03 -0.73975295114E+03  0.99743156364E+03  0.00000000000E+00 0. -1.
<mgrwt>
<rscale>  0 0.15992816E+04</rscale>
<asrwt>0</asrwt>
<pdfrwt beam="1">  1        2 0.17379607E+00 0.15992816E+04</pdfrwt>
<pdfrwt beam="2">  1       -2 0.87080962E-01 0.15992816E+04</pdfrwt>
<totfact> 0.22843978E+01</totfact>
</mgrwt>
</event>
<event>
 6    1  0.1831439E-005  0.2076539E+04  0.7818608E-02  0.8571649E-01
         -2   -1    0    0    0  501 -0.00000000000E+00  0.00000000000E+00  0.48488850965E+03  0.48488850965E+03  0.00000000000E+00 0.  1.
          2   -1    0    0  501    0  0.00000000000E+00 -0.00000000000E+00 -0.22231992976E+04  0.22231992976E+04  0.00000000000E+00 0. -1.
         23    2    1    2    0    0 -0.32265340735E+03 -0.25300858580E+03  0.37002088168E+03  0.56025611112E+03  0.94089804985E+02 0.  0.
         13    1    3    3    0    0 -0.28735595015E+03 -0.21084251324E+03  0.27382919365E+03  0.44945570947E+03  0.00000000000E+00 0. -1.
        -13    1    3    3    0    0 -0.35297457194E+02 -0.42166072565E+02  0.96191688031E+02  0.11080040165E+03  0.00000000000E+00 0.  1.
         22    1    1    2    0    0  0.32265340735E+03  0.25300858580E+03 -0.21083316696E+04  0.21478316961E+04  0.00000000000E+00 0. -1.
<mgrwt>
<rscale>  0 0.20765392E+04</rscale>
<asrwt>0</asrwt>
<pdfrwt beam="1">  1        2 0.34203066E+00 0.20765392E+04</pdfrwt>
<pdfrwt beam="2">  1       -2 0.74598232E-01 0.20765392E+04</pdfrwt>
<totfact> 0.74759138E+00</totfact>
</mgrwt>
</event>
<event>
 6    1  0.2763930E-005  0.2935013E+04  0.7818608E-02  0.8262536E-01
          2   -1    0    0  501    0  0.00000000000E+00  0.00000000000E+00  0.20413748643E+04  0.20413748643E+04  0.00000000000E+00 0. -1.
         -2   -1    0    0    0  501 -0.00000000000E+00 -0.00000000000E+00 -0.10549635007E+04  0.10549635007E+04  0.00000000000E+00 0.  1.
         23    2    1    2    0    0 -0.13382299901E+04  0.15645391614E+03  0.11034231520E+04  0.17439223444E+04  0.91570502226E+02 0.  0.
         13    1    3    3    0    0 -0.56018402786E+03  0.80004317316E+02  0.40836409729E+03  0.69783097654E+03  0.00000000000E+00 0. -1.
        -13    1    3    3    0    0 -0.77804596219E+03  0.76449598823E+02  0.69505905470E+03  0.10460913679E+04  0.00000000000E+00 0.  1.
         22    1    1    2    0    0  0.13382299901E+04 -0.15645391614E+03 -0.11701178839E+03  0.13524160206E+04  0.00000000000E+00 0. -1.
<mgrwt>
<rscale>  0 0.29350134E+04</rscale>
<asrwt>0</asrwt>
<pdfrwt beam="1">  1        2 0.31405767E+00 0.29350134E+04</pdfrwt>
<pdfrwt beam="2">  1       -2 0.16230208E+00 0.29350134E+04</pdfrwt>
<totfact> 0.13209619E+00</totfact>
</mgrwt>
</event>
<event>
 6    1  0.1831439E-005  0.2350149E+04  0.7818608E-02  0.8458406E-01
          2   -1    0    0  501    0  0.00000000000E+00  0.00000000000E+00  0.80406445089E+03  0.80406445089E+03  0.00000000000E+00 0.  1.
         -2   -1    0    0    0  501 -0.00000000000E+00 -0.00000000000E+00 -0.17172760250E+04  0.17172760250E+04  0.00000000000E+00 0. -1.
         23    2    1    2    0    0 -0.32550077022E+01 -0.19609321238E+03 -0.16990640146E+04  0.17113854146E+04  0.59652063634E+02 0.  0.
         11    1    3    3    0    0  0.28038269271E+02 -0.81907972122E+02 -0.72999449587E+03  0.73511021244E+03  0.00000000000E+00 0. -1.
        -11    1    3    3    0    0 -0.31293276973E+02 -0.11418524026E+03 -0.96906951872E+03  0.97627520218E+03  0.00000000000E+00 0.  1.
         22    1    1    2    0    0  0.32550077022E+01  0.19609321238E+03  0.78585244050E+03  0.80995506125E+03  0.00000000000E+00 0.  1.
<mgrwt>
<rscale>  0 0.23501494E+04</rscale>
<asrwt>0</asrwt>
<pdfrwt beam="1">  1        2 0.12370223E+00 0.23501494E+04</pdfrwt>
<pdfrwt beam="2">  1       -2 0.26419631E+00 0.23501494E+04</pdfrwt>
<totfact> 0.16245557E+00</totfact>
</mgrwt>
</event>
<event>
 6    1  0.1831439E-005  0.3339374E+04  0.7818608E-02  0.8152948E-01
          2   -1    0    0  501    0  0.00000000000E+00  0.00000000000E+00  0.28969967433E+04  0.28969967433E+04  0.00000000000E+00 0. -1.
         -2   -1    0    0    0  501 -0.00000000000E+00 -0.00000000000E+00 -0.96232591928E+03  0.96232591928E+03  0.00000000000E+00 0.  1.
         23    2    1    2    0    0 -0.87470488172E+03 -0.41915017838E+03 -0.60083482617E+03  0.11446248149E+04  0.91476643824E+02 0.  0.
         13    1    3    3    0    0 -0.56723096554E+03 -0.31844658078E+03 -0.41209360244E+03  0.77005216073E+03  0.00000000000E+00 0. -1.
        -13    1    3    3    0    0 -0.30747391619E+03 -0.10070359760E+03 -0.18874122372E+03  0.37457265415E+03  0.00000000000E+00 0.  1.
         22    1    1    2    0    0  0.87470488172E+03  0.41915017838E+03  0.25355056502E+04  0.27146978477E+04  0.00000000000E+00 0. -1.
<mgrwt>
<rscale>  0 0.33393742E+04</rscale>
<asrwt>0</asrwt>
<pdfrwt beam="1">  1        2 0.44569180E+00 0.33393742E+04</pdfrwt>
<pdfrwt beam="2">  1       -2 0.14805014E+00 0.33393742E+04</pdfrwt>
<totfact> 0.52072559E-01</totfact>
</mgrwt>
</event>
<event>
 6    1  0.1831439E-005  0.2572200E+04  0.7818608E-02  0.8377706E-01
          1   -1    0    0  501    0  0.00000000000E+00  0.00000000000E+00  0.11907257598E+04  0.11907257598E+04  0.00000000000E+00 0. -1.
         -1   -1    0    0    0  501 -0.00000000000E+00 -0.00000000000E+00 -0.13891138915E+04  0.13891138915E+04  0.00000000000E+00 0.  1.
         23    2    1    2    0    0 -0.94198689718E+01  0.97015595644E+03 -0.94362633086E+03  0.13564544760E+04  0.90811780386E+02 0.  0.
         11    1    3    3    0    0  0.15937290871E+02  0.59027412699E+03 -0.62689088356E+03  0.86120248614E+03  0.00000000000E+00 0.  1.
        -11    1    3    3    0    0 -0.25357159843E+02  0.37988182945E+03 -0.31673544729E+03  0.49525198987E+03  0.00000000000E+00 0. -1.
         22    1    1    2    0    0  0.94198689718E+01 -0.97015595644E+03  0.74523819909E+03  0.12233851753E+04  0.00000000000E+00 0. -1.
<mgrwt>
<rscale>  0 0.25722004E+04</rscale>
<asrwt>0</asrwt>
<pdfrwt beam="1">  1        1 0.18318858E+00 0.25722004E+04</pdfrwt>
<pdfrwt beam="2">  1       -1 0.21370983E+00 0.25722004E+04</pdfrwt>
<totfact> 0.11626460E+00</totfact>
</mgrwt>
</event>
<event>
 6    1  0.1831439E-005  0.1669559E+04  0.7818608E-02  0.8778919E-01
          2   -1    0    0  501    0  0.00000000000E+00  0.00000000000E+00  0.25863946064E+04  0.25863946064E+04  0.00000000000E+00 0. -1.
         -2   -1    0    0    0  501 -0.00000000000E+00 -0.00000000000E+00 -0.26943189151E+03  0.26943189151E+03  0.00000000000E+00 0.  1.
         23    2    1    2    0    0 -0.19641060623E+03  0.50308227172E+03  0.78494399884E+02  0.55313040514E+03  0.90127553594E+02 0.  0.
         13    1    3    3    0    0 -0.11676722783E+03  0.29764648803E+03  0.91039795747E+02  0.33243986185E+03  0.00000000000E+00 0. -1.
        -13    1    3    3    0    0 -0.79643378394E+02  0.20543578369E+03 -0.12545395863E+02  0.22069054329E+03  0.00000000000E+00 0.  1.
         22    1    1    2    0    0  0.19641060623E+03 -0.50308227172E+03  0.22384683150E+04  0.23026960928E+04  0.00000000000E+00 0. -1.
<mgrwt>
<rscale>  0 0.16695595E+04</rscale>
<asrwt>0</asrwt>
<pdfrwt beam="1">  1        2 0.39790685E+00 0.16695595E+04</pdfrwt>
<pdfrwt beam="2">  1       -2 0.41451062E-01 0.16695595E+04</pdfrwt>
<totfact> 0.16338857E+01</totfact>
</mgrwt>
</event>
<event>
 6    1  0.1831439E-005  0.5419708E+04  0.7818608E-02  0.7766835E-01
         -1   -1    0    0    0  501 -0.00000000000E+00  0.00000000000E+00  0.21645069382E+04  0.21645069382E+04  0.00000000000E+00 0.  1.
          1   -1    0    0  501    0  0.00000000000E+00 -0.00000000000E+00 -0.33926007607E+04  0.33926007607E+04  0.00000000000E+00 0. -1.
         23    2    1    2    0    0 -0.19759941271E+04  0.45812892613E+03 -0.24554921418E+04  0.31862552071E+04  0.91354707531E+02 0.  0.
         13    1    3    3    0    0 -0.62851350260E+03  0.13934077887E+03 -0.84621298021E+03  0.10632598382E+04  0.00000000000E+00 0. -1.
        -13    1    3    3    0    0 -0.13474806245E+04  0.31878814726E+03 -0.16092791616E+04  0.21229953689E+04  0.00000000000E+00 0.  1.
         22    1    1    2    0    0  0.19759941271E+04 -0.45812892613E+03  0.12273983194E+04  0.23708524918E+04  0.00000000000E+00 0.  1.
<mgrwt>
<rscale>  0 0.54197077E+04</rscale>
<asrwt>0</asrwt>
<pdfrwt beam="1">  1        1 0.52193857E+00 0.54197077E+04</pdfrwt>
<pdfrwt beam="2">  1       -1 0.33300107E+00 0.54197077E+04</pdfrwt>
<totfact> 0.42572913E-03</totfact>
</mgrwt>
</event>
<event>
 6    1  0.1831439E-005  0.3151440E+04  0.7818608E-02  0.8201761E-01
          1   -1    0    0  501    0  0.00000000000E+00  0.00000000000E+00  0.15561480494E+04  0.15561480494E+04  0.00000000000E+00 0. -1.
         -1   -1    0    0    0  501 -0.00000000000E+00 -0.00000000000E+00 -0.15955377549E+04  0.15955377549E+04  0.00000000000E+00 0.  1.
         23    2    1    2    0    0  0.13679920606E+03  0.52996341137E+03 -0.14959340965E+04  0.15956983997E+04  0.94123969347E+02 0.  0.
         13    1    3    3    0    0  0.12916394441E+03  0.32004934579E+03 -0.90981659339E+03  0.97307817871E+03  0.00000000000E+00 0. -1.
        -13    1    3    3    0    0  0.76352616528E+01  0.20991406558E+03 -0.58611750311E+03  0.62262022100E+03  0.00000000000E+00 0.  1.
         22    1    1    2    0    0 -0.13679920606E+03 -0.52996341137E+03  0.14565443910E+04  0.15559874046E+04  0.00000000000E+00 0. -1.
<mgrwt>
<rscale>  0 0.31514396E+04</rscale>
<asrwt>0</asrwt>
<pdfrwt beam="1">  1        1 0.23940739E+00 0.31514396E+04</pdfrwt>
<pdfrwt beam="2">  1       -1 0.24546735E+00 0.31514396E+04</pdfrwt>
<totfact> 0.37514764E-01</totfact>
</mgrwt>
</event>
<event>
 6    1  0.1831439E-005  0.2744117E+04  0.7818608E-02  0.8320831E-01
         -2   -1    0    0    0  501 -0.00000000000E+00  0.00000000000E+00  0.96297092734E+03  0.96297092734E+03  0.00000000000E+00 0.  1.
          2   -1    0    0  501    0  0.00000000000E+00 -0.00000000000E+00 -0.19549339657E+04  0.19549339657E+04  0.00000000000E+00 0. -1.
         23    2    1    2    0    0 -0.10518680057E+04  0.67677558916E+03 -0.10922779849E+04  0.16631082609E+04  0.91686376326E+02 0.  0.
         13    1    3    3    0    0 -0.58406389566E+03  0.38213044459E+03 -0.66912868278E+03  0.96689580876E+03  0.00000000000E+00 0. -1.
        -13    1    3    3    0    0 -0.46780411003E+03  0.29464514457E+03 -0.42314930215E+03  0.69621245212E+03  0.00000000000E+00 0.  1.
         22    1    1    2    0    0  0.10518680057E+04 -0.67677558916E+03  0.10031494660E+03  0.12547966321E+04  0.00000000000E+00 0.  1.
<mgrwt>
<rscale>  0 0.27441170E+04</rscale>
<asrwt>0</asrwt>
<pdfrwt beam="1">  1        2 0.30075907E+00 0.27441170E+04</pdfrwt>
<pdfrwt beam="2">  1       -2 0.14814937E+00 0.27441170E+04</pdfrwt>
<totfact> 0.19159777E+00</totfact>
</mgrwt>
</event>
<event>
 6    1  0.1831439E-005  0.1943994E+04  0.7818608E-02  0.8633262E-01
          1   -1    0    0  501    0  0.00000000000E+00  0.00000000000E+00  0.89272427886E+03  0.89272427886E+03  0.00000000000E+00 0.  1.
         -1   -1    0    0    0  501 -0.00000000000E+00 -0.00000000000E+00 -0.10583090884E+04  0.10583090884E+04  0.00000000000E+00 0. -1.
         23    2    1    2    0    0 -0.16208844054E+02  0.69987458081E+03  0.59083483372E+03  0.92037443620E+03  0.88972729370E+02 0.  0.
         11    1    3    3    0    0 -0.65880404366E+01  0.72378409889E+02  0.29666772940E+02  0.78499387970E+02  0.00000000000E+00 0.  1.
        -11    1    3    3    0    0 -0.96208036171E+01  0.62749617092E+03  0.56116806078E+03  0.84187504823E+03  0.00000000000E+00 0. -1.
         22    1    1    2    0    0  0.16208844054E+02 -0.69987458081E+03 -0.75641964331E+03  0.10306589311E+04  0.00000000000E+00 0. -1.
<mgrwt>
<rscale>  0 0.19439941E+04</rscale>
<asrwt>0</asrwt>
<pdfrwt beam="1">  1        1 0.13734220E+00 0.19439941E+04</pdfrwt>
<pdfrwt beam="2">  1       -1 0.16281678E+00 0.19439941E+04</pdfrwt>
<totfact> 0.47855422E+00</totfact>
</mgrwt>
</event>
<event>
 6    1  0.1831439E-005  0.8012426E+03  0.7818608E-02  0.9558220E-01
          1   -1    0    0  501    0  0.00000000000E+00  0.00000000000E+00  0.11515135412E+04  0.11515135412E+04  0.00000000000E+00 0. -1.
         -1   -1    0    0    0  501 -0.00000000000E+00 -0.00000000000E+00 -0.13937952266E+03  0.13937952266E+03  0.00000000000E+00 0.  1.
         23    2    1    2    0    0 -0.12319845455E+02 -0.19874860024E+03  0.10629019906E+04  0.10853932545E+04  0.93086468310E+02 0.  0.
         11    1    3    3    0    0  0.34987187825E+02 -0.44007845578E+02  0.33871408799E+03  0.34334825933E+03  0.00000000000E+00 0. -1.
        -11    1    3    3    0    0 -0.47307033280E+02 -0.15474075466E+03  0.72418790261E+03  0.74204499516E+03  0.00000000000E+00 0.  1.
         22    1    1    2    0    0  0.12319845455E+02  0.19874860024E+03 -0.50767972013E+02  0.20549980942E+03  0.00000000000E+00 0.  1.
<mgrwt>
<rscale>  0 0.80124255E+03</rscale>
<asrwt>0</asrwt>
<pdfrwt beam="1">  1        1 0.17715592E+00 0.80124255E+03</pdfrwt>
<pdfrwt beam="2">  1       -1 0.21443004E-01 0.80124255E+03</pdfrwt>
<totfact> 0.21330932E+02</totfact>
</mgrwt>
</event>
<event>
 6    1  0.1831439E-005  0.1323118E+04  0.7818608E-02  0.9011431E-01
         -1   -1    0    0    0  501 -0.00000000000E+00  0.00000000000E+00  0.38109714242E+03  0.38109714242E+03  0.00000000000E+00 0.  1.
          1   -1    0    0  501    0  0.00000000000E+00 -0.00000000000E+00 -0.11484213394E+04  0.11484213394E+04  0.00000000000E+00 0. -1.
         23    2    1    2    0    0  0.64923264317E+03  0.64991320903E+02 -0.48176412125E+03  0.81728856557E+03  0.10068283936E+03 0.  0.
         13    1    3    3    0    0  0.28715453832E+03  0.48788274023E+02 -0.15834611988E+03  0.33152906093E+03  0.00000000000E+00 0. -1.
        -13    1    3    3    0    0  0.36207810484E+03  0.16203046880E+02 -0.32341800137E+03  0.48575950464E+03  0.00000000000E+00 0.  1.
         22    1    1    2    0    0 -0.64923264317E+03 -0.64991320903E+02 -0.28556007573E+03  0.71222991625E+03  0.00000000000E+00 0. -1.
<mgrwt>
<rscale>  0 0.13231177E+04</rscale>
<asrwt>0</asrwt>
<pdfrwt beam="1">  1        1 0.17668020E+00 0.13231177E+04</pdfrwt>
<pdfrwt beam="2">  1       -1 0.58630331E-01 0.13231177E+04</pdfrwt>
<totfact> 0.33724972E+01</totfact>
</mgrwt>
</event>
<event>
 6    1  0.1831439E-005  0.1705086E+04  0.7818608E-02  0.8758469E-01
          1   -1    0    0  501    0  0.00000000000E+00  0.00000000000E+00  0.11009077177E+04  0.11009077177E+04  0.00000000000E+00 0. -1.
         -1   -1    0    0    0  501 -0.00000000000E+00 -0.00000000000E+00 -0.66020967668E+03  0.66020967668E+03  0.00000000000E+00 0.  1.
         23    2    1    2    0    0 -0.54174675900E+03 -0.70679360973E+02  0.89367444542E+03  0.10514183414E+04  0.91331217595E+02 0.  0.
         11    1    3    3    0    0 -0.11319528033E+03  0.22001255062E+02  0.17639810045E+03  0.21074514598E+03  0.00000000000E+00 0. -1.
        -11    1    3    3    0    0 -0.42855147867E+03 -0.92680616036E+02  0.71727634497E+03  0.84067319543E+03  0.00000000000E+00 0.  1.
         22    1    1    2    0    0  0.54174675900E+03  0.70679360973E+02 -0.45297640435E+03  0.70969905302E+03  0.00000000000E+00 0.  1.
<mgrwt>
<rscale>  0 0.17050864E+04</rscale>
<asrwt>0</asrwt>
<pdfrwt beam="1">  1        1 0.16937042E+00 0.17050864E+04</pdfrwt>
<pdfrwt beam="2">  1       -1 0.10157072E+00 0.17050864E+04</pdfrwt>
<totfact> 0.11074184E+01</totfact>
</mgrwt>
</event>
<event>
 6    1  0.1831439E-005  0.1323579E+04  0.7818608E-02  0.9011073E-01
         -1   -1    0    0    0  501 -0.00000000000E+00  0.00000000000E+00  0.38909000639E+03  0.38909000639E+03  0.00000000000E+00 0.  1.
          1   -1    0    0  501    0  0.00000000000E+00 -0.00000000000E+00 -0.11256149740E+04  0.11256149740E+04  0.00000000000E+00 0. -1.
         23    2    1    2    0    0  0.40818664654E+01 -0.65216834750E+03 -0.47538115156E+03  0.81218358726E+03  0.91185114167E+02 0.  0.
         13    1    3    3    0    0  0.45802207817E+02 -0.36059206318E+03 -0.27812656444E+03  0.45768861043E+03  0.00000000000E+00 0. -1.
        -13    1    3    3    0    0 -0.41720341352E+02 -0.29157628432E+03 -0.19725458712E+03  0.35449497683E+03  0.00000000000E+00 0.  1.
         22    1    1    2    0    0 -0.40818664654E+01  0.65216834750E+03 -0.26114381601E+03  0.70252139309E+03  0.00000000000E+00 0.  1.
<mgrwt>
<rscale>  0 0.13235793E+04</rscale>
<asrwt>0</asrwt>
<pdfrwt beam="1">  1        1 0.17317153E+00 0.13235793E+04</pdfrwt>
<pdfrwt beam="2">  1       -1 0.59860002E-01 0.13235793E+04</pdfrwt>
<totfact> 0.33660991E+01</totfact>
</mgrwt>
</event>
<event>
 6    1  0.1831439E-005  0.1142143E+04  0.7818608E-02  0.9165063E-01
         -1   -1    0    0    0  501 -0.00000000000E+00  0.00000000000E+00  0.21107978956E+03  0.21107978956E+03  0.00000000000E+00 0.  1.
          1   -1    0    0  501    0  0.00000000000E+00 -0.00000000000E+00 -0.15450205049E+04  0.15450205049E+04  0.00000000000E+00 0. -1.
         23    2    1    2    0    0  0.47245508748E+03 -0.63711812127E+02 -0.11454652241E+04  0.12434639561E+04  0.82698401510E+02 0.  0.
         11    1    3    3    0    0  0.25361471484E+03 -0.74146799853E+01 -0.68654975495E+03  0.73193303456E+03  0.00000000000E+00 0.  1.
        -11    1    3    3    0    0  0.21884037264E+03 -0.56297132142E+02 -0.45891546920E+03  0.51153092150E+03  0.00000000000E+00 0. -1.
         22    1    1    2    0    0 -0.47245508748E+03  0.63711812127E+02 -0.18847549125E+03  0.51263633844E+03  0.00000000000E+00 0.  1.
<mgrwt>
<rscale>  0 0.11421429E+04</rscale>
<asrwt>0</asrwt>
<pdfrwt beam="1">  1        1 0.23769545E+00 0.11421429E+04</pdfrwt>
<pdfrwt beam="2">  1       -1 0.32473815E-01 0.11421429E+04</pdfrwt>
<totfact> 0.53663300E+01</totfact>
</mgrwt>
</event>
<event>
 6    1  0.1831439E-005  0.4137364E+04  0.7818608E-02  0.7977395E-01
         -1   -1    0    0    0  501 -0.00000000000E+00  0.00000000000E+00  0.14609649806E+04  0.14609649806E+04  0.00000000000E+00 0.  1.
          1   -1    0    0  501    0  0.00000000000E+00 -0.00000000000E+00 -0.29291905754E+04  0.29291905754E+04  0.00000000000E+00 0. -1.
         23    2    1    2    0    0 -0.81664884862E+03  0.56813312883E+03  0.11888838428E+04  0.15529172584E+04  0.91742170572E+02 0.  0.
         11    1    3    3    0    0 -0.21060776653E+03  0.11055820072E+03  0.32452862101E+03  0.40236497477E+03  0.00000000000E+00 0.  1.
        -11    1    3    3    0    0 -0.60604108209E+03  0.45757492811E+03  0.86435522180E+03  0.11505522837E+04  0.00000000000E+00 0. -1.
         22    1    1    2    0    0  0.81664884862E+03 -0.56813312883E+03 -0.26571094376E+04  0.28372382976E+04  0.00000000000E+00 0. -1.
<mgrwt>
<rscale>  0 0.41373638E+04</rscale>
<asrwt>0</asrwt>
<pdfrwt beam="1">  1        1 0.45064470E+00 0.41373638E+04</pdfrwt>
<pdfrwt beam="2">  1       -1 0.22476385E+00 0.41373638E+04</pdfrwt>
<totfact> 0.53248290E-02</totfact>
</mgrwt>
</event>
<event>
 6    1  0.1831439E-005  0.4103292E+04  0.7818608E-02  0.7984027E-01
          2   -1    0    0  501    0  0.00000000000E+00  0.00000000000E+00  0.29575920314E+04  0.29575920314E+04  0.00000000000E+00 0. -1.
         -2   -1    0    0    0  501 -0.00000000000E+00 -0.00000000000E+00 -0.14232023162E+04  0.14232023162E+04  0.00000000000E+00 0.  1.
         23    2    1    2    0    0  0.92780872059E+03 -0.17760519615E+04  0.30266672181E+03  0.20287035491E+04  0.94028473974E+02 0.  0.
         11    1    3    3    0    0  0.48605747992E+03 -0.86035132064E+03  0.18358101340E+03  0.10050662949E+04  0.00000000000E+00 0.  1.
        -11    1    3    3    0    0  0.44175124067E+03 -0.91570064081E+03  0.11908570841E+03  0.10236372542E+04  0.00000000000E+00 0. -1.
         22    1    1    2    0    0 -0.92780872059E+03  0.17760519615E+04  0.12317229934E+04  0.23520907985E+04  0.00000000000E+00 0. -1.
<mgrwt>
<rscale>  0 0.41032923E+04</rscale>
<asrwt>0</asrwt>
<pdfrwt beam="1">  1        2 0.45501416E+00 0.41032923E+04</pdfrwt>
<pdfrwt beam="2">  1       -2 0.21895420E+00 0.41032923E+04</pdfrwt>
<totfact> 0.14523100E-01</totfact>
</mgrwt>
</event>
<event>
 6    1  0.1831439E-005  0.3080094E+04  0.7818608E-02  0.8221222E-01
         -2   -1    0    0    0  501 -0.00000000000E+00  0.00000000000E+00  0.14060658191E+04  0.14060658191E+04  0.00000000000E+00 0. -1.
          2   -1    0    0  501    0  0.00000000000E+00 -0.00000000000E+00 -0.16867952030E+04  0.16867952030E+04  0.00000000000E+00 0.  1.
         23    2    1    2    0    0 -0.14493247268E+04  0.16516281966E+03 -0.63231555598E+03  0.15923831792E+04  0.89667756161E+02 0.  0.
         11    1    3    3    0    0 -0.81576373502E+03  0.12978011000E+03 -0.38506232316E+03  0.91136509756E+03  0.00000000000E+00 0. -1.
        -11    1    3    3    0    0 -0.63356099176E+03  0.35382709659E+02 -0.24725323282E+03  0.68101808167E+03  0.00000000000E+00 0.  1.
         22    1    1    2    0    0  0.14493247268E+04 -0.16516281966E+03  0.35158617211E+03  0.15004778429E+04  0.00000000000E+00 0. -1.
<mgrwt>
<rscale>  0 0.30800942E+04</rscale>
<asrwt>0</asrwt>
<pdfrwt beam="1">  1        2 0.25950695E+00 0.30800942E+04</pdfrwt>
<pdfrwt beam="2">  1       -2 0.21631782E+00 0.30800942E+04</pdfrwt>
<totfact> 0.88486625E-01</totfact>
</mgrwt>
</event>
<event>
 6    1  0.1831439E-005  0.2007741E+04  0.7818608E-02  0.8603010E-01
         -2   -1    0    0    0  501 -0.00000000000E+00  0.00000000000E+00  0.15115246609E+04  0.15115246609E+04  0.00000000000E+00 0.  1.
          2   -1    0    0  501    0  0.00000000000E+00 -0.00000000000E+00 -0.66671497500E+03  0.66671497500E+03  0.00000000000E+00 0. -1.
         23    2    1    2    0    0 -0.50095990096E+03 -0.83031253004E+03  0.69661498008E+03  0.11972496305E+04  0.88059793642E+02 0.  0.
         13    1    3    3    0    0 -0.34443113160E+03 -0.63663213650E+03  0.49597821600E+03  0.87745522529E+03  0.00000000000E+00 0.  1.
        -13    1    3    3    0    0 -0.15652876936E+03 -0.19368039354E+03  0.20063676408E+03  0.31979440517E+03  0.00000000000E+00 0. -1.
         22    1    1    2    0    0  0.50095990096E+03  0.83031253004E+03  0.14819470582E+03  0.98099000543E+03  0.00000000000E+00 0. -1.
<mgrwt>
<rscale>  0 0.20077411E+04</rscale>
<asrwt>0</asrwt>
<pdfrwt beam="1">  1        2 0.10257154E+00 0.20077411E+04</pdfrwt>
<pdfrwt beam="2">  1       -2 0.23254225E+00 0.20077411E+04</pdfrwt>
<totfact> 0.33325334E+00</totfact>
</mgrwt>
</event>
<event>
 6    1  0.1831439E-005  0.2002084E+04  0.7818608E-02  0.8605647E-01
          2   -1    0    0  501    0  0.00000000000E+00  0.00000000000E+00  0.76510695673E+03  0.76510695673E+03  0.00000000000E+00 0.  1.
         -2   -1    0    0    0  501 -0.00000000000E+00 -0.00000000000E+00 -0.13097321043E+04  0.13097321043E+04  0.00000000000E+00 0. -1.
         23    2    1    2    0    0 -0.33995219544E+03  0.82527710892E+03  0.19198658657E+03  0.91758081477E+03  0.91901580599E+02 0.  0.
         13    1    3    3    0    0 -0.22717440947E+03  0.47308095599E+03  0.77752416866E+02  0.53052732405E+03  0.00000000000E+00 0. -1.
        -13    1    3    3    0    0 -0.11277778597E+03  0.35219615293E+03  0.11423416971E+03  0.38705349072E+03  0.00000000000E+00 0.  1.
         22    1    1    2    0    0  0.33995219544E+03 -0.82527710892E+03 -0.73661173418E+03  0.11572582463E+04  0.00000000000E+00 0. -1.
<mgrwt>
<rscale>  0 0.20020841E+04</rscale>
<asrwt>0</asrwt>
<pdfrwt beam="1">  1        2 0.11770876E+00 0.20020841E+04</pdfrwt>
<pdfrwt beam="2">  1       -2 0.20149725E+00 0.20020841E+04</pdfrwt>
<totfact> 0.44105092E+00</totfact>
</mgrwt>
</event>
<event>
 6    1  0.1831439E-005  0.2400684E+04  0.7818608E-02  0.8439247E-01
          1   -1    0    0  501    0  0.00000000000E+00  0.00000000000E+00  0.28586803020E+04  0.28586803020E+04  0.00000000000E+00 0. -1.
         -1   -1    0    0    0  501 -0.00000000000E+00 -0.00000000000E+00 -0.50401626872E+03  0.50401626872E+03  0.00000000000E+00 0.  1.
         23    2    1    2    0    0 -0.44067612384E+02  0.59874447626E+03  0.26321976503E+04  0.27012876118E+04  0.89740678044E+02 0.  0.
         13    1    3    3    0    0  0.53729015096E+01  0.20111074430E+03  0.72130892399E+03  0.74883974478E+03  0.00000000000E+00 0.  1.
        -13    1    3    3    0    0 -0.49440513894E+02  0.39763373196E+03  0.19108887263E+04  0.19524478670E+04  0.00000000000E+00 0. -1.
         22    1    1    2    0    0  0.44067612384E+02 -0.59874447626E+03 -0.27753361702E+03  0.66140895888E+03  0.00000000000E+00 0.  1.
<mgrwt>
<rscale>  0 0.24006844E+04</rscale>
<asrwt>0</asrwt>
<pdfrwt beam="1">  1        1 0.43979696E+00 0.24006844E+04</pdfrwt>
<pdfrwt beam="2">  1       -1 0.77540966E-01 0.24006844E+04</pdfrwt>
<totfact> 0.11300510E+00</totfact>
</mgrwt>
</event>
<event>
 6    1  0.1831439E-005  0.4813876E+04  0.7818608E-02  0.7857878E-01
          2   -1    0    0  501    0  0.00000000000E+00  0.00000000000E+00  0.35573272329E+04  0.35573272329E+04  0.00000000000E+00 0.  1.
         -2   -1    0    0    0  501 -0.00000000000E+00 -0.00000000000E+00 -0.16285683970E+04  0.16285683970E+04  0.00000000000E+00 0. -1.
         23    2    1    2    0    0 -0.13877856842E+04  0.12658527996E+04  0.25845298885E+04  0.31963308310E+04  0.91671267387E+02 0.  0.
         11    1    3    3    0    0 -0.69709324012E+03  0.68816136846E+03  0.13048620426E+04  0.16316157650E+04  0.00000000000E+00 0. -1.
        -11    1    3    3    0    0 -0.69069244407E+03  0.57769143112E+03  0.12796678459E+04  0.15647150660E+04  0.00000000000E+00 0.  1.
         22    1    1    2    0    0  0.13877856842E+04 -0.12658527996E+04 -0.65577105262E+03  0.19895647989E+04  0.00000000000E+00 0. -1.
<mgrwt>
<rscale>  0 0.48138761E+04</rscale>
<asrwt>0</asrwt>
<pdfrwt beam="1">  1        2 0.54728111E+00 0.48138761E+04</pdfrwt>
<pdfrwt beam="2">  1       -2 0.25054899E+00 0.48138761E+04</pdfrwt>
<totfact> 0.34817155E-02</totfact>
</mgrwt>
</event>
<event>
 6    1  0.1831439E-005  0.5416303E+04  0.7818608E-02  0.7767312E-01
         -2   -1    0    0    0  501 -0.00000000000E+00  0.00000000000E+00  0.26403551867E+04  0.26403551867E+04  0.00000000000E+00 0.  1.
          2   -1    0    0  501    0  0.00000000000E+00 -0.00000000000E+00 -0.27776885388E+04  0.27776885388E+04  0.00000000000E+00 0. -1.
         23    2    1    2    0    0 -0.70686266730E+03 -0.26134451112E+04 -0.47446304551E+02  0.27092008248E+04  0.88134996579E+02 0.  0.
         11    1    3    3    0    0 -0.21073106495E+03 -0.68217269795E+03  0.16939218431E+02  0.71418072551E+03  0.00000000000E+00 0.  1.
        -11    1    3    3    0    0 -0.49613160235E+03 -0.19312724132E+04 -0.64385522982E+02  0.19950200993E+04  0.00000000000E+00 0. -1.
         22    1    1    2    0    0  0.70686266730E+03  0.26134451112E+04 -0.89887047619E+02  0.27088429007E+04  0.00000000000E+00 0. -1.
<mgrwt>
<rscale>  0 0.54163029E+04</rscale>
<asrwt>0</asrwt>
<pdfrwt beam="1">  1        2 0.42733670E+00 0.54163029E+04</pdfrwt>
<pdfrwt beam="2">  1       -2 0.40620849E+00 0.54163029E+04</pdfrwt>
<totfact> 0.11368949E-02</totfact>
</mgrwt>
</event>
<event>
 6    1  0.1831439E-005  0.3516526E+04  0.7818608E-02  0.8109885E-01
         -1   -1    0    0    0  501 -0.00000000000E+00  0.00000000000E+00  0.12156142542E+04  0.12156142542E+04  0.00000000000E+00 0.  1.
          1   -1    0    0  501    0  0.00000000000E+00 -0.00000000000E+00 -0.25431500809E+04  0.25431500809E+04  0.00000000000E+00 0. -1.
         23    2    1    2    0    0 -0.16242724826E+03 -0.15949402684E+04  0.10440781672E+03  0.16091877097E+04  0.91471428117E+02 0.  0.
         11    1    3    3    0    0 -0.16826319334E+01 -0.39502401343E+03  0.34648671113E+02  0.39654423820E+03  0.00000000000E+00 0. -1.
        -11    1    3    3    0    0 -0.16074461633E+03 -0.11999162549E+04  0.69759145603E+02  0.12126434715E+04  0.00000000000E+00 0.  1.
         22    1    1    2    0    0  0.16242724826E+03  0.15949402684E+04 -0.14319436435E+04  0.21495766254E+04  0.00000000000E+00 0. -1.
<mgrwt>
<rscale>  0 0.35165264E+04</rscale>
<asrwt>0</asrwt>
<pdfrwt beam="1">  1        1 0.39125385E+00 0.35165264E+04</pdfrwt>
<pdfrwt beam="2">  1       -1 0.18701758E+00 0.35165264E+04</pdfrwt>
<totfact> 0.19099545E-01</totfact>
</mgrwt>
</event>
<event>
 6    1  0.1831439E-005  0.1565737E+04  0.7818608E-02  0.8841878E-01
          1   -1    0    0  501    0  0.00000000000E+00  0.00000000000E+00  0.23819820875E+04  0.23819820875E+04  0.00000000000E+00 0. -1.
         -1   -1    0    0    0  501 -0.00000000000E+00 -0.00000000000E+00 -0.25729969857E+03  0.25729969857E+03  0.00000000000E+00 0.  1.
         23    2    1    2    0    0 -0.92210604108E+02  0.72833011718E+03  0.62049744427E+03  0.96550166228E+03  0.90602574018E+02 0.  0.
         13    1    3    3    0    0 -0.39133990257E+02  0.23679331468E+03  0.25855965427E+03  0.35278270633E+03  0.00000000000E+00 0. -1.
        -13    1    3    3    0    0 -0.53076613850E+02  0.49153680249E+03  0.36193779001E+03  0.61271895595E+03  0.00000000000E+00 0.  1.
         22    1    1    2    0    0  0.92210604108E+02 -0.72833011718E+03  0.15041849447E+04  0.16737801238E+04  0.00000000000E+00 0. -1.
<mgrwt>
<rscale>  0 0.15657372E+04</rscale>
<asrwt>0</asrwt>
<pdfrwt beam="1">  1        1 0.36645877E+00 0.15657372E+04</pdfrwt>
<pdfrwt beam="2">  1       -1 0.39584571E-01 0.15657372E+04</pdfrwt>
<totfact> 0.97825878E+00</totfact>
</mgrwt>
</event>
<event>
 6    1  0.1831439E-005  0.2768252E+04  0.7818608E-02  0.8313193E-01
          1   -1    0    0  501    0  0.00000000000E+00  0.00000000000E+00  0.26678412930E+04  0.26678412930E+04  0.00000000000E+00 0. -1.
         -1   -1    0    0    0  501 -0.00000000000E+00 -0.00000000000E+00 -0.71811067482E+03  0.71811067482E+03  0.00000000000E+00 0.  1.
         23    2    1    2    0    0 -0.68796433553E+03 -0.88134764710E+03  0.19708318968E+04  0.22676881948E+04  0.90348112049E+02 0.  0.
         11    1    3    3    0    0 -0.48473282893E+03 -0.55314048717E+03  0.12722832261E+04  0.14695696382E+04  0.00000000000E+00 0. -1.
        -11    1    3    3    0    0 -0.20323150660E+03 -0.32820715993E+03  0.69854867070E+03  0.79811855663E+03  0.00000000000E+00 0.  1.
         22    1    1    2    0    0  0.68796433553E+03  0.88134764710E+03 -0.21101278662E+02  0.11182637730E+04  0.00000000000E+00 0.  1.
<mgrwt>
<rscale>  0 0.27682524E+04</rscale>
<asrwt>0</asrwt>
<pdfrwt beam="1">  1        1 0.41043712E+00 0.27682524E+04</pdfrwt>
<pdfrwt beam="2">  1       -1 0.11047857E+00 0.27682524E+04</pdfrwt>
<totfact> 0.67766004E-01</totfact>
</mgrwt>
</event>
<event>
 6    1  0.1831439E-005  0.2963014E+04  0.7818608E-02  0.8254372E-01
          2   -1    0    0  501    0  0.00000000000E+00  0.00000000000E+00  0.22298804625E+04  0.22298804625E+04  0.00000000000E+00 0. -1.
         -2   -1    0    0    0  501 -0.00000000000E+00 -0.00000000000E+00 -0.98429618913E+03  0.98429618913E+03  0.00000000000E+00 0.  1.
         23    2    1    2    0    0  0.52238640792E+03 -0.41597059541E+03 -0.80943621978E+03  0.10533832041E+04  0.92250124470E+02 0.  0.
         11    1    3    3    0    0  0.18152339271E+03 -0.94081999063E+02 -0.22216170754E+03  0.30192381315E+03  0.00000000000E+00 0.  1.
        -11    1    3    3    0    0  0.34086301521E+03 -0.32188859635E+03 -0.58727451224E+03  0.75145939100E+03  0.00000000000E+00 0. -1.
         22    1    1    2    0    0 -0.52238640792E+03  0.41597059541E+03  0.20550204931E+04  0.21607934474E+04  0.00000000000E+00 0. -1.
<mgrwt>
<rscale>  0 0.29630139E+04</rscale>
<asrwt>0</asrwt>
<pdfrwt beam="1">  1        2 0.34305853E+00 0.29630139E+04</pdfrwt>
<pdfrwt beam="2">  1       -2 0.15143018E+00 0.29630139E+04</pdfrwt>
<totfact> 0.12460257E+00</totfact>
</mgrwt>
</event>
<event>
 6    1  0.1831439E-005  0.3831558E+04  0.7818608E-02  0.8039416E-01
          2   -1    0    0  501    0  0.00000000000E+00  0.00000000000E+00  0.15734888220E+04  0.15734888220E+04  0.00000000000E+00 0. -1.
         -2   -1    0    0    0  501 -0.00000000000E+00 -0.00000000000E+00 -0.23325291405E+04  0.23325291405E+04  0.00000000000E+00 0.  1.
         23    2    1    2    0    0  0.34219711147E+03  0.64934342425E+03 -0.21826020083E+04  0.23043708008E+04  0.87335646805E+02 0.  0.
         13    1    3    3    0    0  0.24817741806E+03  0.48724114868E+03 -0.15017981681E+04  0.15982470727E+04  0.00000000000E+00 0. -1.
        -13    1    3    3    0    0  0.94019693410E+02  0.16210227557E+03 -0.68080384023E+03  0.70612372809E+03  0.00000000000E+00 0.  1.
         22    1    1    2    0    0 -0.34219711147E+03 -0.64934342425E+03  0.14235616898E+04  0.16016471617E+04  0.00000000000E+00 0. -1.
<mgrwt>
<rscale>  0 0.38315577E+04</rscale>
<asrwt>0</asrwt>
<pdfrwt beam="1">  1        2 0.24207520E+00 0.38315577E+04</pdfrwt>
<pdfrwt beam="2">  1       -2 0.35885064E+00 0.38315577E+04</pdfrwt>
<totfact> 0.12616376E-01</totfact>
</mgrwt>
</event>
<event>
 6    1  0.1831439E-005  0.1371935E+04  0.7818608E-02  0.8974388E-01
          4   -1    0    0  501    0  0.00000000000E+00  0.00000000000E+00  0.68177117080E+03  0.68177117080E+03  0.00000000000E+00 0. -1.
         -4   -1    0    0    0  501 -0.00000000000E+00 -0.00000000000E+00 -0.69018933511E+03  0.69018933511E+03  0.00000000000E+00 0.  1.
         23    2    1    2    0    0  0.27770265234E+03  0.32630103453E+03  0.52730420517E+03  0.68596518129E+03  0.94378900800E+02 0.  0.
         11    1    3    3    0    0  0.94767059826E+02  0.12336680891E+03  0.12453513090E+03  0.19927158351E+03  0.00000000000E+00 0. -1.
        -11    1    3    3    0    0  0.18293559251E+03  0.20293422562E+03  0.40276907427E+03  0.48669359778E+03  0.00000000000E+00 0.  1.
         22    1    1    2    0    0 -0.27770265234E+03 -0.32630103453E+03 -0.53572236947E+03  0.68599532462E+03  0.00000000000E+00 0.  1.
<mgrwt>
<rscale>  0 0.13719347E+04</rscale>
<asrwt>0</asrwt>
<pdfrwt beam="1">  1        4 0.10488787E+00 0.13719347E+04</pdfrwt>
<pdfrwt beam="2">  1       -4 0.10618298E+00 0.13719347E+04</pdfrwt>
<totfact> 0.10248649E+00</totfact>
</mgrwt>
</event>
<event>
 6    1  0.2830910E-005  0.3997639E+04  0.7818608E-02  0.8005023E-01
         -1   -1    0    0    0  501 -0.00000000000E+00  0.00000000000E+00  0.20015408632E+04  0.20015408632E+04  0.00000000000E+00 0.  1.
          1   -1    0    0  501    0  0.00000000000E+00 -0.00000000000E+00 -0.19961016134E+04  0.19961016134E+04  0.00000000000E+00 0. -1.
         23    2    1    2    0    0  0.19472938188E+04 -0.41410798768E+03 -0.16353708348E+03  0.19996455689E+04  0.91648138063E+02 0.  0.
         13    1    3    3    0    0  0.87872429572E+03 -0.20083647059E+03 -0.30380512667E+02  0.90189503345E+03  0.00000000000E+00 0. -1.
        -13    1    3    3    0    0  0.10685695231E+04 -0.21327151709E+03 -0.13315657082E+03  0.10977505354E+04  0.00000000000E+00 0.  1.
         22    1    1    2    0    0 -0.19472938188E+04  0.41410798768E+03  0.16897633324E+03  0.19979969077E+04  0.00000000000E+00 0. -1.
<mgrwt>
<rscale>  0 0.39976388E+04</rscale>
<asrwt>0</asrwt>
<pdfrwt beam="1">  1        1 0.30709256E+00 0.39976388E+04</pdfrwt>
<pdfrwt beam="2">  1       -1 0.30792936E+00 0.39976388E+04</pdfrwt>
<totfact> 0.68838781E-02</totfact>
</mgrwt>
</event>
<event>
 6    1  0.1831439E-005  0.3353759E+04  0.7818608E-02  0.8149350E-01
          2   -1    0    0  501    0  0.00000000000E+00  0.00000000000E+00  0.36198237003E+04  0.36198237003E+04  0.00000000000E+00 0. -1.
         -2   -1    0    0    0  501 -0.00000000000E+00 -0.00000000000E+00 -0.77681266211E+03  0.77681266211E+03  0.00000000000E+00 0.  1.
         23    2    1    2    0    0 -0.15126440480E+04  0.25037858511E+03  0.23086275044E+04  0.27729531381E+04  0.93416807707E+02 0.  0.
         11    1    3    3    0    0 -0.12381843907E+04  0.22276640060E+03  0.19478946189E+04  0.23188399904E+04  0.00000000000E+00 0.  1.
        -11    1    3    3    0    0 -0.27445965734E+03  0.27612184515E+02  0.36073288553E+03  0.45411314773E+03  0.00000000000E+00 0. -1.
         22    1    1    2    0    0  0.15126440480E+04 -0.25037858511E+03  0.53438353376E+03  0.16236832243E+04  0.00000000000E+00 0. -1.
<mgrwt>
<rscale>  0 0.33537590E+04</rscale>
<asrwt>0</asrwt>
<pdfrwt beam="1">  1        2 0.55689594E+00 0.33537590E+04</pdfrwt>
<pdfrwt beam="2">  1       -2 0.11950964E+00 0.33537590E+04</pdfrwt>
<totfact> 0.29750659E-01</totfact>
</mgrwt>
</event>
<event>
 6    1  0.2006456E-005  0.2303155E+04  0.7818608E-02  0.8476678E-01
          1   -1    0    0  501    0  0.00000000000E+00  0.00000000000E+00  0.22429575401E+04  0.22429575401E+04  0.00000000000E+00 0. -1.
         -1   -1    0    0    0  501 -0.00000000000E+00 -0.00000000000E+00 -0.59124219915E+03  0.59124219915E+03  0.00000000000E+00 0.  1.
         23    2    1    2    0    0 -0.10072983901E+03 -0.58342503007E+03  0.20399982224E+04  0.21261779442E+04  0.92242270992E+02 0.  0.
         13    1    3    3    0    0 -0.81426286946E+02 -0.32844955916E+03  0.10224477670E+04  0.10769906171E+04  0.00000000000E+00 0. -1.
        -13    1    3    3    0    0 -0.19303552061E+02 -0.25497547091E+03  0.10175504555E+04  0.10491873271E+04  0.00000000000E+00 0.  1.
         22    1    1    2    0    0  0.10072983901E+03  0.58342503007E+03 -0.38828288152E+03  0.70802179505E+03  0.00000000000E+00 0.  1.
<mgrwt>
<rscale>  0 0.23031554E+04</rscale>
<asrwt>0</asrwt>
<pdfrwt beam="1">  1        1 0.34507039E+00 0.23031554E+04</pdfrwt>
<pdfrwt beam="2">  1       -1 0.90960339E-01 0.23031554E+04</pdfrwt>
<totfact> 0.21705704E+00</totfact>
</mgrwt>
</event>
<event>
 6    1  0.1831439E-005  0.3198346E+04  0.7818608E-02  0.8189254E-01
          2   -1    0    0  501    0  0.00000000000E+00  0.00000000000E+00  0.20207257287E+04  0.20207257287E+04  0.00000000000E+00 0. -1.
         -2   -1    0    0    0  501 -0.00000000000E+00 -0.00000000000E+00 -0.12655623319E+04  0.12655623319E+04  0.00000000000E+00 0.  1.
         23    2    1    2    0    0  0.13275596670E+04 -0.84657157080E+03  0.98126628086E+02  0.15801827270E+04  0.90832380813E+02 0.  0.
         13    1    3    3    0    0  0.79722694310E+02 -0.68667576480E+02  0.23657380448E+02  0.10784533229E+03  0.00000000000E+00 0. -1.
        -13    1    3    3    0    0  0.12478369727E+04 -0.77790399432E+03  0.74469247638E+02  0.14723373947E+04  0.00000000000E+00 0.  1.
         22    1    1    2    0    0 -0.13275596670E+04  0.84657157080E+03  0.65703676872E+03  0.17061053336E+04  0.00000000000E+00 0. -1.
<mgrwt>
<rscale>  0 0.31983461E+04</rscale>
<asrwt>0</asrwt>
<pdfrwt beam="1">  1        2 0.31088088E+00 0.31983461E+04</pdfrwt>
<pdfrwt beam="2">  1       -2 0.19470190E+00 0.31983461E+04</pdfrwt>
<totfact> 0.79002256E-01</totfact>
</mgrwt>
</event>
<event>
 6    1  0.1831439E-005  0.2362359E+04  0.7818608E-02  0.8453732E-01
          2   -1    0    0  501    0  0.00000000000E+00  0.00000000000E+00  0.32919409331E+04  0.32919409331E+04  0.00000000000E+00 0. -1.
         -2   -1    0    0    0  501 -0.00000000000E+00 -0.00000000000E+00 -0.42381831308E+03  0.42381831308E+03  0.00000000000E+00 0.  1.
         23    2    1    2    0    0 -0.56546692776E+03 -0.15112215846E+03 -0.17448172915E+03  0.61736740868E+03  0.90043824450E+02 0.  0.
         11    1    3    3    0    0 -0.41835426038E+03 -0.14623703274E+03 -0.15169913910E+03  0.46842094929E+03  0.00000000000E+00 0. -1.
        -11    1    3    3    0    0 -0.14711266738E+03 -0.48851257200E+01 -0.22782590051E+02  0.14894645939E+03  0.00000000000E+00 0.  1.
         22    1    1    2    0    0  0.56546692776E+03  0.15112215846E+03  0.30426043492E+04  0.30983918375E+04  0.00000000000E+00 0. -1.
<mgrwt>
<rscale>  0 0.23623589E+04</rscale>
<asrwt>0</asrwt>
<pdfrwt beam="1">  1        2 0.50645243E+00 0.23623589E+04</pdfrwt>
<pdfrwt beam="2">  1       -2 0.65202820E-01 0.23623589E+04</pdfrwt>
<totfact> 0.22090151E+00</totfact>
</mgrwt>
</event>
<event>
 6    1  0.1831439E-005  0.2335906E+04  0.7818608E-02  0.8463897E-01
          2   -1    0    0  501    0  0.00000000000E+00  0.00000000000E+00  0.14026829129E+04  0.14026829129E+04  0.00000000000E+00 0. -1.
         -2   -1    0    0    0  501 -0.00000000000E+00 -0.00000000000E+00 -0.97250389822E+03  0.97250389822E+03  0.00000000000E+00 0.  1.
         23    2    1    2    0    0 -0.87076675498E+03  0.23500756956E+03 -0.53651874050E+03  0.10530794595E+04  0.87525366568E+02 0.  0.
         13    1    3    3    0    0 -0.52464917738E+03  0.97041342766E+02 -0.31361077143E+03  0.61889053757E+03  0.00000000000E+00 0. -1.
        -13    1    3    3    0    0 -0.34611757760E+03  0.13796622679E+03 -0.22290796907E+03  0.43418892194E+03  0.00000000000E+00 0.  1.
         22    1    1    2    0    0  0.87076675498E+03 -0.23500756956E+03  0.96669775518E+03  0.13221073516E+04  0.00000000000E+00 0. -1.
<mgrwt>
<rscale>  0 0.23359063E+04</rscale>
<asrwt>0</asrwt>
<pdfrwt beam="1">  1        2 0.21579737E+00 0.23359063E+04</pdfrwt>
<pdfrwt beam="2">  1       -2 0.14961598E+00 0.23359063E+04</pdfrwt>
<totfact> 0.39326941E+00</totfact>
</mgrwt>
</event>
<event>
 6    1  0.1831439E-005  0.2789171E+04  0.7818608E-02  0.8306638E-01
          2   -1    0    0  501    0  0.00000000000E+00  0.00000000000E+00  0.34819643173E+04  0.34819643173E+04  0.00000000000E+00 0. -1.
         -2   -1    0    0    0  501 -0.00000000000E+00 -0.00000000000E+00 -0.55855506207E+03  0.55855506207E+03  0.00000000000E+00 0.  1.
         23    2    1    2    0    0 -0.35279064793E+03 -0.41923801488E+03  0.33186456985E+04  0.33649206816E+04  0.95184911028E+02 0.  0.
         11    1    3    3    0    0 -0.65957345522E+02 -0.99870531459E+02  0.52368012963E+03  0.53718281120E+03  0.00000000000E+00 0. -1.
        -11    1    3    3    0    0 -0.28683330241E+03 -0.31936748342E+03  0.27949655689E+04  0.28277378704E+04  0.00000000000E+00 0.  1.
         22    1    1    2    0    0  0.35279064793E+03  0.41923801488E+03 -0.39523644321E+03  0.67559869777E+03  0.00000000000E+00 0.  1.
<mgrwt>
<rscale>  0 0.27891711E+04</rscale>
<asrwt>0</asrwt>
<pdfrwt beam="1">  1        2 0.53568681E+00 0.27891711E+04</pdfrwt>
<pdfrwt beam="2">  1       -2 0.85931550E-01 0.27891711E+04</pdfrwt>
<totfact> 0.85655333E-01</totfact>
</mgrwt>
</event>
<event>
 6    1  0.1831439E-005  0.1705071E+04  0.7818608E-02  0.8758477E-01
          1   -1    0    0  501    0  0.00000000000E+00  0.00000000000E+00  0.20481231157E+04  0.20481231157E+04  0.00000000000E+00 0. -1.
         -1   -1    0    0    0  501 -0.00000000000E+00 -0.00000000000E+00 -0.35486975624E+03  0.35486975624E+03  0.00000000000E+00 0.  1.
         23    2    1    2    0    0 -0.82788802778E+02  0.59280400932E+03 -0.89650859365E+00  0.60621398884E+03  0.96041747208E+02 0.  0.
         13    1    3    3    0    0  0.65914374518E+00  0.13764945008E+03 -0.35579897083E+02  0.14217501417E+03  0.00000000000E+00 0.  1.
        -13    1    3    3    0    0 -0.83447946523E+02  0.45515455924E+03  0.34683388489E+02  0.46403897467E+03  0.00000000000E+00 0. -1.
         22    1    1    2    0    0  0.82788802778E+02 -0.59280400932E+03  0.16941498681E+04  0.17967788831E+04  0.00000000000E+00 0. -1.
<mgrwt>
<rscale>  0 0.17050712E+04</rscale>
<asrwt>0</asrwt>
<pdfrwt beam="1">  1        1 0.31509586E+00 0.17050712E+04</pdfrwt>
<pdfrwt beam="2">  1       -1 0.54595348E-01 0.17050712E+04</pdfrwt>
<totfact> 0.89140018E+00</totfact>
</mgrwt>
</event>
<event>
 6    1  0.1831439E-005  0.4887687E+04  0.7818608E-02  0.7846070E-01
          1   -1    0    0  501    0  0.00000000000E+00  0.00000000000E+00  0.20445825664E+04  0.20445825664E+04  0.00000000000E+00 0. -1.
         -1   -1    0    0    0  501 -0.00000000000E+00 -0.00000000000E+00 -0.29210715771E+04  0.29210715771E+04  0.00000000000E+00 0.  1.
         23    2    1    2    0    0 -0.19349048939E+04  0.12447344174E+04 -0.12732165420E+04  0.26309992542E+04  0.88634047954E+02 0.  0.
         13    1    3    3    0    0 -0.10920550422E+04  0.65581930413E+03 -0.68169720641E+03  0.14447817330E+04  0.00000000000E+00 0. -1.
        -13    1    3    3    0    0 -0.84284985170E+03  0.58891511323E+03 -0.59151933564E+03  0.11862175212E+04  0.00000000000E+00 0.  1.
         22    1    1    2    0    0  0.19349048939E+04 -0.12447344174E+04  0.39672753132E+03  0.23346548893E+04  0.00000000000E+00 0. -1.
<mgrwt>
<rscale>  0 0.48876874E+04</rscale>
<asrwt>0</asrwt>
<pdfrwt beam="1">  1        1 0.31455117E+00 0.48876874E+04</pdfrwt>
<pdfrwt beam="2">  1       -1 0.44939563E+00 0.48876874E+04</pdfrwt>
<totfact> 0.66269249E-03</totfact>
</mgrwt>
</event>
<event>
 6    1  0.1831439E-005  0.1871892E+04  0.7818608E-02  0.8668975E-01
         -2   -1    0    0    0  501 -0.00000000000E+00  0.00000000000E+00  0.50488113311E+03  0.50488113311E+03  0.00000000000E+00 0.  1.
          2   -1    0    0  501    0  0.00000000000E+00 -0.00000000000E+00 -0.17350526175E+04  0.17350526175E+04  0.00000000000E+00 0. -1.
         23    2    1    2    0    0 -0.19608988499E+03  0.69620880878E+03  0.90052476752E+02  0.73456028998E+03  0.91167004103E+02 0.  0.
         11    1    3    3    0    0 -0.16189734239E+03  0.65618657020E+03  0.90662428604E+02  0.68191732661E+03  0.00000000000E+00 0. -1.
        -11    1    3    3    0    0 -0.34192542609E+02  0.40022238581E+02 -0.60995185156E+00  0.52642963369E+02  0.00000000000E+00 0.  1.
         22    1    1    2    0    0  0.19608988499E+03 -0.69620880878E+03 -0.13202239612E+04  0.15053734607E+04  0.00000000000E+00 0. -1.
<mgrwt>
<rscale>  0 0.18718924E+04</rscale>
<asrwt>0</asrwt>
<pdfrwt beam="1">  1        2 0.26693118E+00 0.18718924E+04</pdfrwt>
<pdfrwt beam="2">  1       -2 0.77674019E-01 0.18718924E+04</pdfrwt>
<totfact> 0.12997544E+01</totfact>
</mgrwt>
</event>
<event>
 6    1  0.1831439E-005  0.1400426E+04  0.7818608E-02  0.8953510E-01
         -2   -1    0    0    0  501 -0.00000000000E+00  0.00000000000E+00  0.34672429868E+03  0.34672429868E+03  0.00000000000E+00 0. -1.
          2   -1    0    0  501    0  0.00000000000E+00 -0.00000000000E+00 -0.14140867477E+04  0.14140867477E+04  0.00000000000E+00 0.  1.
         23    2    1    2    0    0  0.54595101720E+03  0.97894180321E+02 -0.45869976853E+01  0.56200437152E+03  0.90454902239E+02 0.  0.
         11    1    3    3    0    0  0.17633040770E+03  0.41547337910E+02  0.39825690816E+02  0.18548498488E+03  0.00000000000E+00 0.  1.
        -11    1    3    3    0    0  0.36962060949E+03  0.56346842411E+02 -0.44412688502E+02  0.37651938663E+03  0.00000000000E+00 0. -1.
         22    1    1    2    0    0 -0.54595101720E+03 -0.97894180321E+02 -0.10627754513E+04  0.11988066749E+04  0.00000000000E+00 0.  1.
<mgrwt>
<rscale>  0 0.14004260E+04</rscale>
<asrwt>0</asrwt>
<pdfrwt beam="1">  1        2 0.21755180E+00 0.14004260E+04</pdfrwt>
<pdfrwt beam="2">  1       -2 0.53342201E-01 0.14004260E+04</pdfrwt>
<totfact> 0.45790992E+01</totfact>
</mgrwt>
</event>
<event>
 6    1  0.1831439E-005  0.1595288E+04  0.7818608E-02  0.8823448E-01
         -2   -1    0    0    0  501 -0.00000000000E+00  0.00000000000E+00  0.58721346653E+03  0.58721346653E+03  0.00000000000E+00 0.  1.
          2   -1    0    0  501    0  0.00000000000E+00 -0.00000000000E+00 -0.10834836110E+04  0.10834836110E+04  0.00000000000E+00 0. -1.
         23    2    1    2    0    0 -0.36171107052E+03 -0.67380941489E+03 -0.47655110489E+03  0.90568540004E+03  0.91165026982E+02 0.  0.
         13    1    3    3    0    0 -0.28708374698E+03 -0.44639695667E+03 -0.32216703089E+03  0.62086948426E+03  0.00000000000E+00 0.  1.
        -13    1    3    3    0    0 -0.74627323544E+02 -0.22741245823E+03 -0.15438407400E+03  0.28481591578E+03  0.00000000000E+00 0. -1.
         22    1    1    2    0    0  0.36171107052E+03  0.67380941489E+03 -0.19719039557E+02  0.76501167746E+03  0.00000000000E+00 0.  1.
<mgrwt>
<rscale>  0 0.15952883E+04</rscale>
<asrwt>0</asrwt>
<pdfrwt beam="1">  1        2 0.16668979E+00 0.15952883E+04</pdfrwt>
<pdfrwt beam="2">  1       -2 0.90340534E-01 0.15952883E+04</pdfrwt>
<totfact> 0.22421099E+01</totfact>
</mgrwt>
</event>
<event>
 6    1  0.1831439E-005  0.3161053E+04  0.7818608E-02  0.8199179E-01
          1   -1    0    0  501    0  0.00000000000E+00  0.00000000000E+00  0.19951920471E+04  0.19951920471E+04  0.00000000000E+00 0. -1.
         -1   -1    0    0    0  501 -0.00000000000E+00 -0.00000000000E+00 -0.12520422345E+04  0.12520422345E+04  0.00000000000E+00 0.  1.
         23    2    1    2    0    0 -0.37828166088E+03  0.83347158071E+03  0.16939664480E+04  0.19274524190E+04  0.88196427151E+02 0.  0.
         11    1    3    3    0    0 -0.31304486384E+03  0.75556294765E+03  0.15144692491E+04  0.17211884154E+04  0.00000000000E+00 0.  1.
        -11    1    3    3    0    0 -0.65236797038E+02  0.77908633060E+02  0.17949719884E+03  0.20626400361E+03  0.00000000000E+00 0. -1.
         22    1    1    2    0    0  0.37828166088E+03 -0.83347158071E+03 -0.95081663531E+03  0.13197818626E+04  0.00000000000E+00 0.  1.
<mgrwt>
<rscale>  0 0.31610534E+04</rscale>
<asrwt>0</asrwt>
<pdfrwt beam="1">  1        1 0.30695262E+00 0.31610534E+04</pdfrwt>
<pdfrwt beam="2">  1       -1 0.19262188E+00 0.31610534E+04</pdfrwt>
<totfact> 0.42690619E-01</totfact>
</mgrwt>
</event>
<event>
 6    1  0.1831439E-005  0.2356723E+04  0.7818608E-02  0.8455886E-01
          1   -1    0    0  501    0  0.00000000000E+00  0.00000000000E+00  0.47696372223E+03  0.47696372223E+03  0.00000000000E+00 0. -1.
         -1   -1    0    0    0  501 -0.00000000000E+00 -0.00000000000E+00 -0.29111975569E+04  0.29111975569E+04  0.00000000000E+00 0.  1.
         23    2    1    2    0    0 -0.50468731087E+02 -0.47950257793E+03 -0.27620212339E+04  0.28051395007E+04  0.87043130429E+02 0.  0.
         11    1    3    3    0    0 -0.35652738757E+01 -0.13906918983E+03 -0.59552829842E+03  0.61156103944E+03  0.00000000000E+00 0. -1.
        -11    1    3    3    0    0 -0.46903457211E+02 -0.34043338810E+03 -0.21664929355E+04  0.21935784612E+04  0.00000000000E+00 0.  1.
         22    1    1    2    0    0  0.50468731087E+02  0.47950257793E+03  0.32778739925E+03  0.58302177846E+03  0.00000000000E+00 0. -1.
<mgrwt>
<rscale>  0 0.23567228E+04</rscale>
<asrwt>0</asrwt>
<pdfrwt beam="1">  1        1 0.73379032E-01 0.23567228E+04</pdfrwt>
<pdfrwt beam="2">  1       -1 0.44787656E+00 0.23567228E+04</pdfrwt>
<totfact> 0.14230932E-01</totfact>
</mgrwt>
</event>
<event>
 6    1  0.1831439E-005  0.1461365E+04  0.7818608E-02  0.8910559E-01
         -2   -1    0    0    0  501 -0.00000000000E+00  0.00000000000E+00  0.32416813613E+03  0.32416813613E+03  0.00000000000E+00 0.  1.
          2   -1    0    0  501    0  0.00000000000E+00 -0.00000000000E+00 -0.16469749946E+04  0.16469749946E+04  0.00000000000E+00 0. -1.
         23    2    1    2    0    0 -0.66161044850E+03 -0.22027094040E+03 -0.37768643624E+03  0.79662183025E+03  0.75575284005E+02 0.  0.
         11    1    3    3    0    0 -0.47682459414E+03 -0.17791108206E+03 -0.30660356061E+03  0.59415468531E+03  0.00000000000E+00 0.  1.
        -11    1    3    3    0    0 -0.18478585436E+03 -0.42359858344E+02 -0.71082875628E+02  0.20246714493E+03  0.00000000000E+00 0. -1.
         22    1    1    2    0    0  0.66161044850E+03  0.22027094040E+03 -0.94512042225E+03  0.11745213005E+04  0.00000000000E+00 0. -1.
<mgrwt>
<rscale>  0 0.14613649E+04</rscale>
<asrwt>0</asrwt>
<pdfrwt beam="1">  1        2 0.25338077E+00 0.14613649E+04</pdfrwt>
<pdfrwt beam="2">  1       -2 0.49872021E-01 0.14613649E+04</pdfrwt>
<totfact> 0.38688550E+01</totfact>
</mgrwt>
</event>
<event>
 6    1  0.1831439E-005  0.4790397E+03  0.7818608E-02  0.1019399E+00
          3   -1    0    0  501    0  0.00000000000E+00  0.00000000000E+00  0.14838368579E+03  0.14838368579E+03  0.00000000000E+00 0. -1.
         -3   -1    0    0    0  501 -0.00000000000E+00 -0.00000000000E+00 -0.38663116017E+03  0.38663116017E+03  0.00000000000E+00 0.  1.
         23    2    1    2    0    0 -0.15709149545E+03  0.44886109756E+02 -0.30525531870E+03  0.35842902548E+03  0.92725702611E+02 0.  0.
         13    1    3    3    0    0 -0.15418689786E+03  0.29031735517E+02 -0.21173660420E+03  0.26353146055E+03  0.00000000000E+00 0. -1.
        -13    1    3    3    0    0 -0.29045975850E+01  0.15854374239E+02 -0.93518714497E+02  0.94897564936E+02  0.00000000000E+00 0.  1.
         22    1    1    2    0    0  0.15709149545E+03 -0.44886109756E+02  0.67007844315E+02  0.17658582047E+03  0.00000000000E+00 0. -1.
<mgrwt>
<rscale>  0 0.47903969E+03</rscale>
<asrwt>0</asrwt>
<pdfrwt beam="1">  1        3 0.22828260E-01 0.47903969E+03</pdfrwt>
<pdfrwt beam="2">  1       -3 0.59481716E-01 0.47903969E+03</pdfrwt>
<totfact> 0.12965902E+02</totfact>
</mgrwt>
</event>
<event>
 6    1  0.1831439E-005  0.3026447E+04  0.7818608E-02  0.8236219E-01
         -2   -1    0    0    0  501 -0.00000000000E+00  0.00000000000E+00  0.95806301911E+03  0.95806301911E+03  0.00000000000E+00 0.  1.
          2   -1    0    0  501    0  0.00000000000E+00 -0.00000000000E+00 -0.23900780838E+04  0.23900780838E+04  0.00000000000E+00 0. -1.
         23    2    1    2    0    0  0.12131880820E+03 -0.14989709747E+04 -0.54508251711E+03  0.16022082347E+04  0.91236180117E+02 0.  0.
         13    1    3    3    0    0  0.84321211731E+02 -0.12339786527E+04 -0.41435164281E+03  0.13044158332E+04  0.00000000000E+00 0. -1.
        -13    1    3    3    0    0  0.36997596466E+02 -0.26499232204E+03 -0.13073087430E+03  0.29779240148E+03  0.00000000000E+00 0.  1.
         22    1    1    2    0    0 -0.12131880820E+03  0.14989709747E+04 -0.88693254758E+03  0.17459328682E+04  0.00000000000E+00 0. -1.
<mgrwt>
<rscale>  0 0.30264470E+04</rscale>
<asrwt>0</asrwt>
<pdfrwt beam="1">  1        2 0.36770432E+00 0.30264470E+04</pdfrwt>
<pdfrwt beam="2">  1       -2 0.14739431E+00 0.30264470E+04</pdfrwt>
<totfact> 0.10796234E+00</totfact>
</mgrwt>
</event>
<event>
 6    1  0.1831439E-005  0.2372328E+04  0.7818608E-02  0.8449937E-01
          1   -1    0    0  501    0  0.00000000000E+00  0.00000000000E+00  0.13969633656E+04  0.13969633656E+04  0.00000000000E+00 0. -1.
         -1   -1    0    0    0  501 -0.00000000000E+00 -0.00000000000E+00 -0.10071738681E+04  0.10071738681E+04  0.00000000000E+00 0.  1.
         23    2    1    2    0    0  0.81453570128E+03 -0.17678219384E+03 -0.65929269790E+03  0.10642514903E+04  0.56956302932E+02 0.  0.
         11    1    3    3    0    0  0.19494078119E+03 -0.56600529113E+02 -0.13541153562E+03  0.24401190964E+03  0.00000000000E+00 0.  1.
        -11    1    3    3    0    0  0.61959492009E+03 -0.12018166472E+03 -0.52388116227E+03  0.82023958068E+03  0.00000000000E+00 0. -1.
         22    1    1    2    0    0 -0.81453570128E+03  0.17678219384E+03  0.10490821953E+04  0.13398857434E+04  0.00000000000E+00 0. -1.
<mgrwt>
<rscale>  0 0.23723280E+04</rscale>
<asrwt>0</asrwt>
<pdfrwt beam="1">  1        1 0.21491744E+00 0.23723280E+04</pdfrwt>
<pdfrwt beam="2">  1       -1 0.15494983E+00 0.23723280E+04</pdfrwt>
<totfact> 0.22153263E+00</totfact>
</mgrwt>
</event>
<event>
 6    1  0.1831439E-005  0.2110809E+04  0.7818608E-02  0.8556497E-01
          1   -1    0    0  501    0  0.00000000000E+00  0.00000000000E+00  0.10270484449E+04  0.10270484449E+04  0.00000000000E+00 0. -1.
         -1   -1    0    0    0  501 -0.00000000000E+00 -0.00000000000E+00 -0.10845432362E+04  0.10845432362E+04  0.00000000000E+00 0.  1.
         23    2    1    2    0    0  0.92194525352E+03  0.21851464725E+03  0.43169090331E+03  0.10452735553E+04  0.92239188773E+02 0.  0.
         11    1    3    3    0    0  0.63346705594E+03  0.13290536335E+03  0.33748261531E+03  0.72995812360E+03  0.00000000000E+00 0. -1.
        -11    1    3    3    0    0  0.28847819758E+03  0.85609283898E+02  0.94208288001E+02  0.31531543174E+03  0.00000000000E+00 0.  1.
         22    1    1    2    0    0 -0.92194525352E+03 -0.21851464725E+03 -0.48918569462E+03  0.10663181258E+04  0.00000000000E+00 0.  1.
<mgrwt>
<rscale>  0 0.21108088E+04</rscale>
<asrwt>0</asrwt>
<pdfrwt beam="1">  1        1 0.15800745E+00 0.21108088E+04</pdfrwt>
<pdfrwt beam="2">  1       -1 0.16685280E+00 0.21108088E+04</pdfrwt>
<totfact> 0.34385034E+00</totfact>
</mgrwt>
</event>
<event>
 6    1  0.1831439E-005  0.2965697E+04  0.7818608E-02  0.8253595E-01
          2   -1    0    0  501    0  0.00000000000E+00  0.00000000000E+00  0.18423064208E+04  0.18423064208E+04  0.00000000000E+00 0.  1.
         -2   -1    0    0    0  501 -0.00000000000E+00 -0.00000000000E+00 -0.11935255008E+04  0.11935255008E+04  0.00000000000E+00 0. -1.
         23    2    1    2    0    0 -0.82698564426E+03  0.11138325558E+04  0.85711319144E+03  0.16330024404E+04  0.86750960482E+02 0.  0.
         13    1    3    3    0    0 -0.50918391372E+03  0.75484583519E+03  0.56423789081E+03  0.10711792055E+04  0.00000000000E+00 0. -1.
        -13    1    3    3    0    0 -0.31780173054E+03  0.35898672061E+03  0.29287530064E+03  0.56182323486E+03  0.00000000000E+00 0.  1.
         22    1    1    2    0    0  0.82698564426E+03 -0.11138325558E+04 -0.20833227148E+03  0.14028294813E+04  0.00000000000E+00 0.  1.
<mgrwt>
<rscale>  0 0.29656970E+04</rscale>
<asrwt>0</asrwt>
<pdfrwt beam="1">  1        2 0.28343176E+00 0.29656970E+04</pdfrwt>
<pdfrwt beam="2">  1       -2 0.18361931E+00 0.29656970E+04</pdfrwt>
<totfact> 0.12016981E+00</totfact>
</mgrwt>
</event>
<event>
 6    1  0.1831439E-005  0.8226151E+03  0.7818608E-02  0.9527847E-01
          1   -1    0    0  501    0  0.00000000000E+00  0.00000000000E+00  0.95756038443E+02  0.95756038443E+02  0.00000000000E+00 0. -1.
         -1   -1    0    0    0  501 -0.00000000000E+00 -0.00000000000E+00 -0.17667179946E+04  0.17667179946E+04  0.00000000000E+00 0.  1.
         23    2    1    2    0    0  0.17994792679E+03  0.28426525196E+03 -0.13614244338E+04  0.14053072499E+04  0.90686206131E+02 0.  0.
         11    1    3    3    0    0  0.15074767729E+03  0.15664073928E+03 -0.86770469851E+03  0.89452368735E+03  0.00000000000E+00 0. -1.
        -11    1    3    3    0    0  0.29200249494E+02  0.12762451268E+03 -0.49371973529E+03  0.51078356259E+03  0.00000000000E+00 0.  1.
         22    1    1    2    0    0 -0.17994792679E+03 -0.28426525196E+03 -0.30953752238E+03  0.45716678312E+03  0.00000000000E+00 0. -1.
<mgrwt>
<rscale>  0 0.82261514E+03</rscale>
<asrwt>0</asrwt>
<pdfrwt beam="1">  1        1 0.14731698E-01 0.82261514E+03</pdfrwt>
<pdfrwt beam="2">  1       -1 0.27180278E+00 0.82261514E+03</pdfrwt>
<totfact> 0.20447262E+01</totfact>
</mgrwt>
</event>
<event>
 6    1  0.1831439E-005  0.1069120E+04  0.7818608E-02  0.9235823E-01
         -2   -1    0    0    0  501 -0.00000000000E+00  0.00000000000E+00  0.46931031036E+03  0.46931031036E+03  0.00000000000E+00 0. -1.
          2   -1    0    0  501    0  0.00000000000E+00 -0.00000000000E+00 -0.60888162582E+03  0.60888162582E+03  0.00000000000E+00 0.  1.
         23    2    1    2    0    0 -0.11561405454E+03 -0.11323775159E+03  0.43953697967E+03  0.47689682104E+03  0.89713005907E+02 0.  0.
         11    1    3    3    0    0 -0.78525131359E+01 -0.41319582913E+02  0.20193844428E+03  0.20627192046E+03  0.00000000000E+00 0.  1.
        -11    1    3    3    0    0 -0.10776154140E+03 -0.71918168681E+02  0.23759853540E+03  0.27062490058E+03  0.00000000000E+00 0. -1.
         22    1    1    2    0    0  0.11561405454E+03  0.11323775159E+03 -0.57910829513E+03  0.60129511513E+03  0.00000000000E+00 0.  1.
<mgrwt>
<rscale>  0 0.10691201E+04</rscale>
<asrwt>0</asrwt>
<pdfrwt beam="1">  1        2 0.93674096E-01 0.10691201E+04</pdfrwt>
<pdfrwt beam="2">  1       -2 0.72201586E-01 0.10691201E+04</pdfrwt>
<totfact> 0.84220771E+01</totfact>
</mgrwt>
</event>
<event>
 6    1  0.1831439E-005  0.2947913E+04  0.7818608E-02  0.8258763E-01
          1   -1    0    0  501    0  0.00000000000E+00  0.00000000000E+00  0.14166603492E+04  0.14166603492E+04  0.00000000000E+00 0. -1.
         -1   -1    0    0    0  501 -0.00000000000E+00 -0.00000000000E+00 -0.15335703057E+04  0.15335703057E+04  0.00000000000E+00 0.  1.
         23    2    1    2    0    0  0.59893470774E+03  0.42193874347E+03  0.12198767186E+04  0.14258443186E+04  0.90430774443E+02 0.  0.
         13    1    3    3    0    0  0.24406983550E+03  0.21988434865E+03  0.58658545741E+03  0.67231072446E+03  0.00000000000E+00 0. -1.
        -13    1    3    3    0    0  0.35486487224E+03  0.20205439482E+03  0.63329126117E+03  0.75353359413E+03  0.00000000000E+00 0.  1.
         22    1    1    2    0    0 -0.59893470774E+03 -0.42193874347E+03 -0.13367866751E+04  0.15243863362E+04  0.00000000000E+00 0.  1.
<mgrwt>
<rscale>  0 0.29479133E+04</rscale>
<asrwt>0</asrwt>
<pdfrwt beam="1">  1        1 0.21794775E+00 0.29479133E+04</pdfrwt>
<pdfrwt beam="2">  1       -1 0.23593389E+00 0.29479133E+04</pdfrwt>
<totfact> 0.55129322E-01</totfact>
</mgrwt>
</event>
<event>
 6    1  0.1831439E-005  0.8690177E+03  0.7818608E-02  0.9465162E-01
         -1   -1    0    0    0  501 -0.00000000000E+00  0.00000000000E+00  0.20037397505E+03  0.20037397505E+03  0.00000000000E+00 0.  1.
          1   -1    0    0  501    0  0.00000000000E+00 -0.00000000000E+00 -0.94222779520E+03  0.94222779520E+03  0.00000000000E+00 0. -1.
         23    2    1    2    0    0  0.27052678137E+03 -0.38982813799E+02  0.62914859987E+02  0.29268587574E+03  0.83680003820E+02 0.  0.
         11    1    3    3    0    0  0.17033316185E+03 -0.21907569160E+02 -0.26114162536E+01  0.17175606862E+03  0.00000000000E+00 0. -1.
        -11    1    3    3    0    0  0.10019361952E+03 -0.17075244639E+02  0.65526276241E+02  0.12092980712E+03  0.00000000000E+00 0.  1.
         22    1    1    2    0    0 -0.27052678137E+03  0.38982813799E+02 -0.80476868013E+03  0.84991589450E+03  0.00000000000E+00 0.  1.
<mgrwt>
<rscale>  0 0.86901767E+03</rscale>
<asrwt>0</asrwt>
<pdfrwt beam="1">  1        1 0.14495812E+00 0.86901767E+03</pdfrwt>
<pdfrwt beam="2">  1       -1 0.30826766E-01 0.86901767E+03</pdfrwt>
<totfact> 0.16477001E+02</totfact>
</mgrwt>
</event>
<event>
 6    1  0.1831439E-005  0.1551744E+04  0.7818608E-02  0.8850755E-01
          2   -1    0    0  501    0  0.00000000000E+00  0.00000000000E+00  0.77873479964E+03  0.77873479964E+03  0.00000000000E+00 0. -1.
         -2   -1    0    0    0  501 -0.00000000000E+00 -0.00000000000E+00 -0.77301941112E+03  0.77301941112E+03  0.00000000000E+00 0.  1.
         23    2    1    2    0    0  0.73753120787E+01  0.53632724350E+03 -0.55398851121E+03  0.77653181511E+03  0.91635593382E+02 0.  0.
         11    1    3    3    0    0  0.33316763021E+02  0.23396514086E+03 -0.19446003098E+03  0.30604639760E+03  0.00000000000E+00 0. -1.
        -11    1    3    3    0    0 -0.25941450942E+02  0.30236210264E+03 -0.35952848024E+03  0.47048541751E+03  0.00000000000E+00 0.  1.
         22    1    1    2    0    0 -0.73753120787E+01 -0.53632724350E+03  0.55970389973E+03  0.77522239565E+03  0.00000000000E+00 0. -1.
<mgrwt>
<rscale>  0 0.15517437E+04</rscale>
<asrwt>0</asrwt>
<pdfrwt beam="1">  1        2 0.11980535E+00 0.15517437E+04</pdfrwt>
<pdfrwt beam="2">  1       -2 0.11892606E+00 0.15517437E+04</pdfrwt>
<totfact> 0.18655481E+01</totfact>
</mgrwt>
</event>
<event>
 6    1  0.1831439E-005  0.5784268E+03  0.7818608E-02  0.9951203E-01
          4   -1    0    0  501    0  0.00000000000E+00  0.00000000000E+00  0.16742433271E+03  0.16742433271E+03  0.00000000000E+00 0.  1.
         -4   -1    0    0    0  501 -0.00000000000E+00 -0.00000000000E+00 -0.49959519439E+03  0.49959519439E+03  0.00000000000E+00 0. -1.
         23    2    1    2    0    0 -0.80185359953E+02  0.23877143445E+03 -0.23993226427E+02  0.26900577768E+03  0.91361609294E+02 0.  0.
         13    1    3    3    0    0 -0.39017509146E+02  0.14151365593E+03  0.30853573400E+02  0.15000141274E+03  0.00000000000E+00 0.  1.
        -13    1    3    3    0    0 -0.41167850806E+02  0.97257778518E+02 -0.54846799827E+02  0.11900436494E+03  0.00000000000E+00 0. -1.
         22    1    1    2    0    0  0.80185359953E+02 -0.23877143445E+03 -0.30817763526E+03  0.39801374942E+03  0.00000000000E+00 0. -1.
<mgrwt>
<rscale>  0 0.57842680E+03</rscale>
<asrwt>0</asrwt>
<pdfrwt beam="1">  1        4 0.25757590E-01 0.57842680E+03</pdfrwt>
<pdfrwt beam="2">  1       -4 0.76860799E-01 0.57842680E+03</pdfrwt>
<totfact> 0.43069134E+01</totfact>
</mgrwt>
</event>
<event>
 6    1  0.1831439E-005  0.4437510E+04  0.7818608E-02  0.7921669E-01
          2   -1    0    0  501    0  0.00000000000E+00  0.00000000000E+00  0.29531014648E+04  0.29531014648E+04  0.00000000000E+00 0. -1.
         -2   -1    0    0    0  501 -0.00000000000E+00 -0.00000000000E+00 -0.16670179594E+04  0.16670179594E+04  0.00000000000E+00 0.  1.
         23    2    1    2    0    0  0.16039574595E+04  0.12551361274E+04  0.15575152976E+04  0.25654366146E+04  0.86976382380E+02 0.  0.
         11    1    3    3    0    0  0.72227618415E+03  0.61698303760E+03  0.74450125113E+03  0.12069105467E+04  0.00000000000E+00 0. -1.
        -11    1    3    3    0    0  0.88168127539E+03  0.63815308981E+03  0.81301404643E+03  0.13585260679E+04  0.00000000000E+00 0.  1.
         22    1    1    2    0    0 -0.16039574595E+04 -0.12551361274E+04 -0.27143179221E+03  0.20546828096E+04  0.00000000000E+00 0.  1.
<mgrwt>
<rscale>  0 0.44375097E+04</rscale>
<asrwt>0</asrwt>
<pdfrwt beam="1">  1        2 0.45432330E+00 0.44375097E+04</pdfrwt>
<pdfrwt beam="2">  1       -2 0.25646430E+00 0.44375097E+04</pdfrwt>
<totfact> 0.83149927E-02</totfact>
</mgrwt>
</event>
<event>
 6    1  0.1831439E-005  0.1884090E+04  0.7818608E-02  0.8662817E-01
         -1   -1    0    0    0  501 -0.00000000000E+00  0.00000000000E+00  0.84636161008E+03  0.84636161008E+03  0.00000000000E+00 0.  1.
          1   -1    0    0  501    0  0.00000000000E+00 -0.00000000000E+00 -0.10485451751E+04  0.10485451751E+04  0.00000000000E+00 0. -1.
         23    2    1    2    0    0 -0.17769244166E+03 -0.12749444763E+03 -0.10207010677E+04  0.10476758012E+04  0.89243918517E+02 0.  0.
         13    1    3    3    0    0 -0.11012583369E+03 -0.11065817159E+03 -0.54551009522E+03  0.56741007585E+03  0.00000000000E+00 0.  1.
        -13    1    3    3    0    0 -0.67566607970E+02 -0.16836276038E+02 -0.47519097243E+03  0.48026572539E+03  0.00000000000E+00 0. -1.
         22    1    1    2    0    0  0.17769244166E+03  0.12749444763E+03  0.81851750264E+03  0.84723098393E+03  0.00000000000E+00 0.  1.
<mgrwt>
<rscale>  0 0.18840896E+04</rscale>
<asrwt>0</asrwt>
<pdfrwt beam="1">  1        1 0.16131464E+00 0.18840896E+04</pdfrwt>
<pdfrwt beam="2">  1       -1 0.13020948E+00 0.18840896E+04</pdfrwt>
<totfact> 0.65664938E+00</totfact>
</mgrwt>
</event>
<event>
 6    1  0.1831439E-005  0.5636843E+04  0.7818608E-02  0.7737135E-01
          2   -1    0    0  501    0  0.00000000000E+00  0.00000000000E+00  0.44390007454E+04  0.44390007454E+04  0.00000000000E+00 0. -1.
         -2   -1    0    0    0  501 -0.00000000000E+00 -0.00000000000E+00 -0.17894790443E+04  0.17894790443E+04  0.00000000000E+00 0.  1.
         23    2    1    2    0    0 -0.28078545272E+04 -0.53378113655E+01  0.15847614984E+04  0.32255162822E+04  0.91710097027E+02 0.  0.
         11    1    3    3    0    0 -0.65259061616E+03  0.33170397609E+02  0.38917755925E+03  0.76054846012E+03  0.00000000000E+00 0.  1.
        -11    1    3    3    0    0 -0.21552639111E+04 -0.38508208975E+02  0.11955839391E+04  0.24649678221E+04  0.00000000000E+00 0. -1.
         22    1    1    2    0    0  0.28078545272E+04  0.53378113655E+01  0.10647602028E+04  0.30029635075E+04  0.00000000000E+00 0.  1.
<mgrwt>
<rscale>  0 0.56368427E+04</rscale>
<asrwt>0</asrwt>
<pdfrwt beam="1">  1        2 0.68292319E+00 0.56368427E+04</pdfrwt>
<pdfrwt beam="2">  1       -2 0.27530447E+00 0.56368427E+04</pdfrwt>
<totfact> 0.43455351E-03</totfact>
</mgrwt>
</event>
<event>
 6    1  0.1831439E-005  0.2093159E+04  0.7818608E-02  0.8564263E-01
          2   -1    0    0  501    0  0.00000000000E+00  0.00000000000E+00  0.24865018377E+04  0.24865018377E+04  0.00000000000E+00 0. -1.
         -2   -1    0    0    0  501 -0.00000000000E+00 -0.00000000000E+00 -0.44050981994E+03  0.44050981994E+03  0.00000000000E+00 0.  1.
         23    2    1    2    0    0 -0.53471872986E+01 -0.51559414728E+03  0.22953327354E+04  0.23542667662E+04  0.90297969721E+02 0.  0.
         13    1    3    3    0    0 -0.16988243210E+02 -0.17401066813E+03  0.96632868227E+03  0.98201804220E+03  0.00000000000E+00 0.  1.
        -13    1    3    3    0    0  0.11641055911E+02 -0.34158347915E+03  0.13290040531E+04  0.13722487240E+04  0.00000000000E+00 0. -1.
         22    1    1    2    0    0  0.53471872986E+01  0.51559414728E+03 -0.24934071766E+03  0.57274489138E+03  0.00000000000E+00 0.  1.
<mgrwt>
<rscale>  0 0.20931588E+04</rscale>
<asrwt>0</asrwt>
<pdfrwt beam="1">  1        2 0.38253873E+00 0.20931588E+04</pdfrwt>
<pdfrwt beam="2">  1       -2 0.67770743E-01 0.20931588E+04</pdfrwt>
<totfact> 0.65211098E+00</totfact>
</mgrwt>
</event>
<event>
 6    1  0.1831439E-005  0.2238333E+04  0.7818608E-02  0.8502640E-01
         -1   -1    0    0    0  501 -0.00000000000E+00  0.00000000000E+00  0.73181844769E+03  0.73181844769E+03  0.00000000000E+00 0.  1.
          1   -1    0    0  501    0  0.00000000000E+00 -0.00000000000E+00 -0.17115367155E+04  0.17115367155E+04  0.00000000000E+00 0. -1.
         23    2    1    2    0    0  0.21836803756E+03  0.52924248555E+03 -0.15380765038E+04  0.16436388834E+04  0.89929078869E+02 0.  0.
         11    1    3    3    0    0  0.11603888804E+03  0.32191733552E+03 -0.79759222496E+03  0.86789927512E+03  0.00000000000E+00 0. -1.
        -11    1    3    3    0    0  0.10232914953E+03  0.20732515003E+03 -0.74048427885E+03  0.77573960831E+03  0.00000000000E+00 0.  1.
         22    1    1    2    0    0 -0.21836803756E+03 -0.52924248555E+03  0.55835823602E+03  0.79971627973E+03  0.00000000000E+00 0.  1.
<mgrwt>
<rscale>  0 0.22383334E+04</rscale>
<asrwt>0</asrwt>
<pdfrwt beam="1">  1        1 0.26331334E+00 0.22383334E+04</pdfrwt>
<pdfrwt beam="2">  1       -1 0.11258746E+00 0.22383334E+04</pdfrwt>
<totfact> 0.30710230E+00</totfact>
</mgrwt>
</event>
<event>
 6    1  0.1831439E-005  0.1954874E+04  0.7818608E-02  0.8628014E-01
          1   -1    0    0  501    0  0.00000000000E+00  0.00000000000E+00  0.12378550302E+04  0.12378550302E+04  0.00000000000E+00 0. -1.
         -1   -1    0    0    0  501 -0.00000000000E+00 -0.00000000000E+00 -0.77180526929E+03  0.77180526929E+03  0.00000000000E+00 0.  1.
         23    2    1    2    0    0 -0.88211000984E+03  0.34235428569E+03  0.47625471204E+03  0.10633893724E+04  0.93026234077E+02 0.  0.
         11    1    3    3    0    0 -0.30473100277E+03  0.15669535149E+03  0.14230613695E+03  0.37103295520E+03  0.00000000000E+00 0.  1.
        -11    1    3    3    0    0 -0.57737900707E+03  0.18565893420E+03  0.33394857509E+03  0.69235641722E+03  0.00000000000E+00 0. -1.
         22    1    1    2    0    0  0.88211000984E+03 -0.34235428569E+03 -0.10204951135E+02  0.94627092707E+03  0.00000000000E+00 0.  1.
<mgrwt>
<rscale>  0 0.19548739E+04</rscale>
<asrwt>0</asrwt>
<pdfrwt beam="1">  1        1 0.19043923E+00 0.19548739E+04</pdfrwt>
<pdfrwt beam="2">  1       -1 0.11873927E+00 0.19548739E+04</pdfrwt>
<totfact> 0.59332956E+00</totfact>
</mgrwt>
</event>
<event>
 6    1  0.1831439E-005  0.4581313E+04  0.7818608E-02  0.7896554E-01
         -1   -1    0    0    0  501 -0.00000000000E+00  0.00000000000E+00  0.18906433029E+04  0.18906433029E+04  0.00000000000E+00 0.  1.
          1   -1    0    0  501    0  0.00000000000E+00 -0.00000000000E+00 -0.27753031606E+04  0.27753031606E+04  0.00000000000E+00 0. -1.
         23    2    1    2    0    0 -0.12790160971E+04  0.26770368503E+03 -0.23575461532E+04  0.26969514206E+04  0.89306558318E+02 0.  0.
         13    1    3    3    0    0 -0.27784804271E+03  0.22831999003E+02 -0.52650125626E+03  0.59575532550E+03  0.00000000000E+00 0. -1.
        -13    1    3    3    0    0 -0.10011680544E+04  0.24487168603E+03 -0.18310448969E+04  0.21011960951E+04  0.00000000000E+00 0.  1.
         22    1    1    2    0    0  0.12790160971E+04 -0.26770368503E+03  0.14728862955E+04  0.19689950429E+04  0.00000000000E+00 0.  1.
<mgrwt>
<rscale>  0 0.45813135E+04</rscale>
<asrwt>0</asrwt>
<pdfrwt beam="1">  1        1 0.42696971E+00 0.45813135E+04</pdfrwt>
<pdfrwt beam="2">  1       -1 0.29086820E+00 0.45813135E+04</pdfrwt>
<totfact> 0.24519098E-02</totfact>
</mgrwt>
</event>
<event>
 6    1  0.1831439E-005  0.2675238E+04  0.7818608E-02  0.8343084E-01
          1   -1    0    0  501    0  0.00000000000E+00  0.00000000000E+00  0.15101724326E+04  0.15101724326E+04  0.00000000000E+00 0. -1.
         -1   -1    0    0    0  501 -0.00000000000E+00 -0.00000000000E+00 -0.11847816366E+04  0.11847816366E+04  0.00000000000E+00 0.  1.
         23    2    1    2    0    0  0.57590137776E+03  0.66374680236E+03  0.11768936652E+04  0.14713204022E+04  0.86503249845E+02 0.  0.
         13    1    3    3    0    0  0.45876401445E+03  0.57690441299E+03  0.99120098819E+03  0.12352176009E+04  0.00000000000E+00 0.  1.
        -13    1    3    3    0    0  0.11713736331E+03  0.86842389369E+02  0.18569267702E+03  0.23610280128E+03  0.00000000000E+00 0. -1.
         22    1    1    2    0    0 -0.57590137776E+03 -0.66374680236E+03 -0.85150286930E+03  0.12236336670E+04  0.00000000000E+00 0.  1.
<mgrwt>
<rscale>  0 0.26752380E+04</rscale>
<asrwt>0</asrwt>
<pdfrwt beam="1">  1        1 0.23233422E+00 0.26752380E+04</pdfrwt>
<pdfrwt beam="2">  1       -1 0.18227410E+00 0.26752380E+04</pdfrwt>
<totfact> 0.11289102E+00</totfact>
</mgrwt>
</event>
<event>
 6    1  0.1831439E-005  0.2153257E+04  0.7818608E-02  0.8538140E-01
          2   -1    0    0  501    0  0.00000000000E+00  0.00000000000E+00  0.20551110355E+04  0.20551110355E+04  0.00000000000E+00 0.  1.
         -2   -1    0    0    0  501 -0.00000000000E+00 -0.00000000000E+00 -0.56402231838E+03  0.56402231838E+03  0.00000000000E+00 0. -1.
         23    2    1    2    0    0 -0.10564163876E+04  0.45888929819E+02  0.97923303151E+03  0.14443492797E+04  0.95530801482E+02 0.  0.
         11    1    3    3    0    0 -0.40643519677E+03  0.54331141231E+02  0.41811364137E+03  0.58562826023E+03  0.00000000000E+00 0.  1.
        -11    1    3    3    0    0 -0.64998119083E+03 -0.84422114126E+01  0.56111939014E+03  0.85872101952E+03  0.00000000000E+00 0. -1.
         22    1    1    2    0    0  0.10564163876E+04 -0.45888929819E+02  0.51185568557E+03  0.11747840741E+04  0.00000000000E+00 0. -1.
<mgrwt>
<rscale>  0 0.21532566E+04</rscale>
<asrwt>0</asrwt>
<pdfrwt beam="1">  1        2 0.31617092E+00 0.21532566E+04</pdfrwt>
<pdfrwt beam="2">  1       -2 0.86772666E-01 0.21532566E+04</pdfrwt>
<totfact> 0.65645187E+00</totfact>
</mgrwt>
</event>
<event>
 6    1  0.1831439E-005  0.1571038E+04  0.7818608E-02  0.8838540E-01
          2   -1    0    0  501    0  0.00000000000E+00  0.00000000000E+00  0.62753430240E+03  0.62753430240E+03  0.00000000000E+00 0. -1.
         -2   -1    0    0    0  501 -0.00000000000E+00 -0.00000000000E+00 -0.98327751609E+03  0.98327751609E+03  0.00000000000E+00 0.  1.
         23    2    1    2    0    0  0.63746226584E+03  0.12199484195E+03 -0.62765896153E+03  0.90712221663E+03  0.87601724123E+02 0.  0.
         11    1    3    3    0    0  0.33909875828E+02 -0.94219034459E+01 -0.51865705710E+02  0.62679369588E+02  0.00000000000E+00 0.  1.
        -11    1    3    3    0    0  0.60355239002E+03  0.13141674539E+03 -0.57579325582E+03  0.84444284704E+03  0.00000000000E+00 0. -1.
         22    1    1    2    0    0 -0.63746226584E+03 -0.12199484195E+03  0.27191574784E+03  0.70368960186E+03  0.00000000000E+00 0. -1.
<mgrwt>
<rscale>  0 0.15710383E+04</rscale>
<asrwt>0</asrwt>
<pdfrwt beam="1">  1        2 0.96543740E-01 0.15710383E+04</pdfrwt>
<pdfrwt beam="2">  1       -2 0.15127346E+00 0.15710383E+04</pdfrwt>
<totfact> 0.13211155E+01</totfact>
</mgrwt>
</event>
<event>
 6    1  0.1831439E-005  0.6537314E+03  0.7818608E-02  0.9799803E-01
          1   -1    0    0  501    0  0.00000000000E+00  0.00000000000E+00  0.76400490622E+03  0.76400490622E+03  0.00000000000E+00 0. -1.
         -1   -1    0    0    0  501 -0.00000000000E+00 -0.00000000000E+00 -0.13984358290E+03  0.13984358290E+03  0.00000000000E+00 0.  1.
         23    2    1    2    0    0  0.20728765050E+01 -0.29837361218E+03  0.48126949415E+03  0.57301743843E+03  0.87735679660E+02 0.  0.
         13    1    3    3    0    0  0.31169528413E+02 -0.10425283386E+03  0.22758496869E+03  0.25226000642E+03  0.00000000000E+00 0.  1.
        -13    1    3    3    0    0 -0.29096651908E+02 -0.19412077832E+03  0.25368452546E+03  0.32075743201E+03  0.00000000000E+00 0. -1.
         22    1    1    2    0    0 -0.20728765050E+01  0.29837361218E+03  0.14289182917E+03  0.33083105070E+03  0.00000000000E+00 0.  1.
<mgrwt>
<rscale>  0 0.65373139E+03</rscale>
<asrwt>0</asrwt>
<pdfrwt beam="1">  1        1 0.11753921E+00 0.65373139E+03</pdfrwt>
<pdfrwt beam="2">  1       -1 0.21514398E-01 0.65373139E+03</pdfrwt>
<totfact> 0.43512853E+02</totfact>
</mgrwt>
</event>
<event>
 6    1  0.1831439E-005  0.4324079E+03  0.7818608E-02  0.1033102E+00
         -1   -1    0    0    0  501 -0.00000000000E+00  0.00000000000E+00  0.10222531410E+03  0.10222531410E+03  0.00000000000E+00 0.  1.
          1   -1    0    0  501    0  0.00000000000E+00 -0.00000000000E+00 -0.45726582648E+03  0.45726582648E+03  0.00000000000E+00 0. -1.
         23    2    1    2    0    0 -0.59626029908E+02  0.16617702732E+03 -0.32477640987E+03  0.38036553171E+03  0.89599963485E+02 0.  0.
         13    1    3    3    0    0 -0.29953700730E+02  0.51601506577E+02 -0.39617775579E+02  0.71620582309E+02  0.00000000000E+00 0. -1.
        -13    1    3    3    0    0 -0.29672329178E+02  0.11457552074E+03 -0.28515863429E+03  0.30874494940E+03  0.00000000000E+00 0.  1.
         22    1    1    2    0    0  0.59626029908E+02 -0.16617702732E+03 -0.30264102510E+02  0.17912560886E+03  0.00000000000E+00 0.  1.
<mgrwt>
<rscale>  0 0.43240788E+03</rscale>
<asrwt>0</asrwt>
<pdfrwt beam="1">  1        1 0.70348588E-01 0.43240788E+03</pdfrwt>
<pdfrwt beam="2">  1       -1 0.15726972E-01 0.43240788E+03</pdfrwt>
<totfact> 0.15212214E+03</totfact>
</mgrwt>
</event>
<event>
 6    1  0.1868975E-005  0.3221825E+04  0.7818608E-02  0.8183077E-01
         -2   -1    0    0    0  501 -0.00000000000E+00  0.00000000000E+00  0.24565713929E+04  0.24565713929E+04  0.00000000000E+00 0.  1.
          2   -1    0    0  501    0  0.00000000000E+00 -0.00000000000E+00 -0.10563665588E+04  0.10563665588E+04  0.00000000000E+00 0. -1.
         23    2    1    2    0    0  0.92219322401E+03  0.99419461796E+03  0.16457792804E+04  0.21348341496E+04  0.10032011571E+03 0.  0.
         13    1    3    3    0    0  0.61811897506E+03  0.67972165887E+03  0.11856611600E+04  0.14999616619E+04  0.00000000000E+00 0.  1.
        -13    1    3    3    0    0  0.30407424895E+03  0.31447295909E+03  0.46011812037E+03  0.63487248765E+03  0.00000000000E+00 0. -1.
         22    1    1    2    0    0 -0.92219322401E+03 -0.99419461796E+03 -0.24557444631E+03  0.13781038021E+04  0.00000000000E+00 0. -1.
<mgrwt>
<rscale>  0 0.32218255E+04</rscale>
<asrwt>0</asrwt>
<pdfrwt beam="1">  1        2 0.16251793E+00 0.32218255E+04</pdfrwt>
<pdfrwt beam="2">  1       -2 0.37793406E+00 0.32218255E+04</pdfrwt>
<totfact> 0.20113925E-01</totfact>
</mgrwt>
</event>
<event>
 6    1  0.1831439E-005  0.7151240E+03  0.7818608E-02  0.9691712E-01
         -2   -1    0    0    0  501 -0.00000000000E+00  0.00000000000E+00  0.27058665392E+03  0.27058665392E+03  0.00000000000E+00 0.  1.
          2   -1    0    0  501    0  0.00000000000E+00 -0.00000000000E+00 -0.47249402603E+03  0.47249402603E+03  0.00000000000E+00 0. -1.
         23    2    1    2    0    0  0.73029836559E+02  0.28416971142E+03 -0.30413223948E+03  0.43237872402E+03  0.91483113086E+02 0.  0.
         13    1    3    3    0    0  0.83327816204E+02  0.26832247378E+03 -0.30333280096E+03  0.41346252918E+03  0.00000000000E+00 0. -1.
        -13    1    3    3    0    0 -0.10297979645E+02  0.15847237635E+02 -0.79943851140E+00  0.18916194844E+02  0.00000000000E+00 0.  1.
         22    1    1    2    0    0 -0.73029836559E+02 -0.28416971142E+03  0.10222486736E+03  0.31070195594E+03  0.00000000000E+00 0. -1.
<mgrwt>
<rscale>  0 0.71512398E+03</rscale>
<asrwt>0</asrwt>
<pdfrwt beam="1">  1        2 0.72691389E-01 0.71512398E+03</pdfrwt>
<pdfrwt beam="2">  1       -2 0.41628716E-01 0.71512398E+03</pdfrwt>
<totfact> 0.36241769E+02</totfact>
</mgrwt>
</event>
<event>
 6    1  0.1831439E-005  0.9526144E+03  0.7818608E-02  0.9362100E-01
         -1   -1    0    0    0  501 -0.00000000000E+00  0.00000000000E+00  0.45482096301E+03  0.45482096301E+03  0.00000000000E+00 0.  1.
          1   -1    0    0  501    0  0.00000000000E+00 -0.00000000000E+00 -0.49880843681E+03  0.49880843681E+03  0.00000000000E+00 0. -1.
         23    2    1    2    0    0  0.38703562731E+03 -0.16169407002E+03 -0.23893844226E+03  0.49108488393E+03  0.90173360534E+02 0.  0.
         11    1    3    3    0    0  0.14341872417E+03 -0.15782808395E+02 -0.94653545833E+02  0.17256106520E+03  0.00000000000E+00 0.  1.
        -11    1    3    3    0    0  0.24361690314E+03 -0.14591126162E+03 -0.14428489642E+03  0.31852381873E+03  0.00000000000E+00 0. -1.
         22    1    1    2    0    0 -0.38703562731E+03  0.16169407002E+03  0.19495096846E+03  0.46254451590E+03  0.00000000000E+00 0.  1.
<mgrwt>
<rscale>  0 0.95261437E+03</rscale>
<asrwt>0</asrwt>
<pdfrwt beam="1">  1        1 0.76739759E-01 0.95261437E+03</pdfrwt>
<pdfrwt beam="2">  1       -1 0.69972456E-01 0.95261437E+03</pdfrwt>
<totfact> 0.92349475E+01</totfact>
</mgrwt>
</event>
<event>
 6    1  0.1831439E-005  0.1525091E+04  0.7818608E-02  0.8867937E-01
         -2   -1    0    0    0  501 -0.00000000000E+00  0.00000000000E+00  0.25968163671E+03  0.25968163671E+03  0.00000000000E+00 0.  1.
          2   -1    0    0  501    0  0.00000000000E+00 -0.00000000000E+00 -0.22391856139E+04  0.22391856139E+04  0.00000000000E+00 0. -1.
         23    2    1    2    0    0 -0.16197107607E+03  0.67785702095E+03 -0.49746438259E+03  0.86113524253E+03  0.91423868057E+02 0.  0.
         13    1    3    3    0    0 -0.88756961129E+02  0.41676220338E+03 -0.35619832944E+03  0.55537895370E+03  0.00000000000E+00 0.  1.
        -13    1    3    3    0    0 -0.73214114943E+02  0.26109481757E+03 -0.14126605315E+03  0.30575628883E+03  0.00000000000E+00 0. -1.
         22    1    1    2    0    0  0.16197107607E+03 -0.67785702095E+03 -0.14820395946E+04  0.16377320081E+04  0.00000000000E+00 0. -1.
<mgrwt>
<rscale>  0 0.15250907E+04</rscale>
<asrwt>0</asrwt>
<pdfrwt beam="1">  1        2 0.34449010E+00 0.15250907E+04</pdfrwt>
<pdfrwt beam="2">  1       -2 0.39951021E-01 0.15250907E+04</pdfrwt>
<totfact> 0.28091070E+01</totfact>
</mgrwt>
</event>
<event>
 6    1  0.1831439E-005  0.7587051E+03  0.7818608E-02  0.9621792E-01
         -1   -1    0    0    0  501 -0.00000000000E+00  0.00000000000E+00  0.42132336813E+03  0.42132336813E+03  0.00000000000E+00 0.  1.
          1   -1    0    0  501    0  0.00000000000E+00 -0.00000000000E+00 -0.34156273249E+03  0.34156273249E+03  0.00000000000E+00 0. -1.
         23    2    1    2    0    0  0.96989303020E+02 -0.24773755461E+02 -0.32190418595E+03  0.34893526687E+03  0.90071369862E+02 0.  0.
         13    1    3    3    0    0  0.69584151822E+01 -0.26335190998E+02 -0.17140352973E+03  0.17355440597E+03  0.00000000000E+00 0. -1.
        -13    1    3    3    0    0  0.90030887837E+02  0.15614355367E+01 -0.15050065622E+03  0.17538086089E+03  0.00000000000E+00 0.  1.
         22    1    1    2    0    0 -0.96989303020E+02  0.24773755461E+02  0.40166482159E+03  0.41395083375E+03  0.00000000000E+00 0.  1.
<mgrwt>
<rscale>  0 0.75870511E+03</rscale>
<asrwt>0</asrwt>
<pdfrwt beam="1">  1        1 0.52548113E-01 0.75870511E+03</pdfrwt>
<pdfrwt beam="2">  1       -1 0.64818980E-01 0.75870511E+03</pdfrwt>
<totfact> 0.18087704E+02</totfact>
</mgrwt>
</event>
<event>
 6    1  0.1831439E-005  0.1851917E+04  0.7818608E-02  0.8679168E-01
         -2   -1    0    0    0  501 -0.00000000000E+00  0.00000000000E+00  0.18513357462E+03  0.18513357462E+03  0.00000000000E+00 0. -1.
          2   -1    0    0  501    0  0.00000000000E+00 -0.00000000000E+00 -0.46312450194E+04  0.46312450194E+04  0.00000000000E+00 0.  1.
         23    2    1    2    0    0  0.63032709375E+03  0.61157783290E+03 -0.14794681856E+04  0.17224632885E+04  0.81938861769E+02 0.  0.
         11    1    3    3    0    0  0.18758040691E+03  0.20961237409E+03 -0.41112924003E+03  0.49814757697E+03  0.00000000000E+00 0. -1.
        -11    1    3    3    0    0  0.44274668684E+03  0.40196545881E+03 -0.10683389456E+04  0.12243157115E+04  0.00000000000E+00 0.  1.
         22    1    1    2    0    0 -0.63032709375E+03 -0.61157783290E+03 -0.29666432592E+04  0.30939153055E+04  0.00000000000E+00 0.  1.
<mgrwt>
<rscale>  0 0.18519168E+04</rscale>
<asrwt>0</asrwt>
<pdfrwt beam="1">  1        2 0.71249916E+00 0.18519168E+04</pdfrwt>
<pdfrwt beam="2">  1       -2 0.28482091E-01 0.18519168E+04</pdfrwt>
<totfact> 0.98607247E-01</totfact>
</mgrwt>
</event>
<event>
 6    1  0.1831439E-005  0.1956717E+04  0.7818608E-02  0.8627128E-01
          2   -1    0    0  501    0  0.00000000000E+00  0.00000000000E+00  0.38806053164E+04  0.38806053164E+04  0.00000000000E+00 0. -1.
         -2   -1    0    0    0  501 -0.00000000000E+00 -0.00000000000E+00 -0.24665888869E+03  0.24665888869E+03  0.00000000000E+00 0.  1.
         23    2    1    2    0    0 -0.13027618202E+03 -0.91799855785E+03  0.11767512056E+04  0.15009547041E+04  0.91806251710E+02 0.  0.
         13    1    3    3    0    0 -0.39035010767E+02 -0.52172730064E+03  0.61423072500E+03  0.80684725434E+03  0.00000000000E+00 0. -1.
        -13    1    3    3    0    0 -0.91241171254E+02 -0.39627125721E+03  0.56252048064E+03  0.69410744972E+03  0.00000000000E+00 0.  1.
         22    1    1    2    0    0  0.13027618202E+03  0.91799855785E+03  0.24571952221E+04  0.26263095011E+04  0.00000000000E+00 0. -1.
<mgrwt>
<rscale>  0 0.19567175E+04</rscale>
<asrwt>0</asrwt>
<pdfrwt beam="1">  1        2 0.59701616E+00 0.19567175E+04</pdfrwt>
<pdfrwt beam="2">  1       -2 0.37947524E-01 0.19567175E+04</pdfrwt>
<totfact> 0.26273258E+00</totfact>
</mgrwt>
</event>
<event>
 6    1  0.1831439E-005  0.2667333E+04  0.7818608E-02  0.8345683E-01
         -2   -1    0    0    0  501 -0.00000000000E+00  0.00000000000E+00  0.13572779104E+04  0.13572779104E+04  0.00000000000E+00 0.  1.
          2   -1    0    0  501    0  0.00000000000E+00 -0.00000000000E+00 -0.13104660352E+04  0.13104660352E+04  0.00000000000E+00 0. -1.
         23    2    1    2    0    0 -0.12968430378E+04  0.27259030511E+03 -0.11279901663E+03  0.13329844257E+04  0.89535032582E+02 0.  0.
         11    1    3    3    0    0 -0.57951142178E+03  0.15568656268E+03 -0.80909996620E+02  0.60549006707E+03  0.00000000000E+00 0. -1.
        -11    1    3    3    0    0 -0.71733161598E+03  0.11690374243E+03 -0.31889020012E+02  0.72749435866E+03  0.00000000000E+00 0.  1.
         22    1    1    2    0    0  0.12968430378E+04 -0.27259030511E+03  0.15961089189E+03  0.13347595198E+04  0.00000000000E+00 0.  1.
<mgrwt>
<rscale>  0 0.26673332E+04</rscale>
<asrwt>0</asrwt>
<pdfrwt beam="1">  1        2 0.20161016E+00 0.26673332E+04</pdfrwt>
<pdfrwt beam="2">  1       -2 0.20881199E+00 0.26673332E+04</pdfrwt>
<totfact> 0.16712021E+00</totfact>
</mgrwt>
</event>
<event>
 6    1  0.1831439E-005  0.1669583E+04  0.7818608E-02  0.8778905E-01
          2   -1    0    0  501    0  0.00000000000E+00  0.00000000000E+00  0.27792934957E+03  0.27792934957E+03  0.00000000000E+00 0. -1.
         -2   -1    0    0    0  501 -0.00000000000E+00 -0.00000000000E+00 -0.25073890330E+04  0.25073890330E+04  0.00000000000E+00 0.  1.
         23    2    1    2    0    0 -0.80330652680E+03  0.19064022872E+02 -0.75560385838E+03  0.11066534946E+04  0.89888561152E+02 0.  0.
         11    1    3    3    0    0 -0.41153649961E+03  0.33123633259E+02 -0.44003526433E+03  0.60339912119E+03  0.00000000000E+00 0. -1.
        -11    1    3    3    0    0 -0.39177002719E+03 -0.14059610387E+02 -0.31556859404E+03  0.50325437345E+03  0.00000000000E+00 0.  1.
         22    1    1    2    0    0  0.80330652680E+03 -0.19064022872E+02 -0.14738558251E+04  0.16786648880E+04  0.00000000000E+00 0. -1.
<mgrwt>
<rscale>  0 0.16695832E+04</rscale>
<asrwt>0</asrwt>
<pdfrwt beam="1">  1        2 0.42758363E-01 0.16695832E+04</pdfrwt>
<pdfrwt beam="2">  1       -2 0.38575214E+00 0.16695832E+04</pdfrwt>
<totfact> 0.10546302E+00</totfact>
</mgrwt>
</event>
<event>
 6    1  0.1831439E-005  0.4224547E+04  0.7818608E-02  0.7960719E-01
          1   -1    0    0  501    0  0.00000000000E+00  0.00000000000E+00  0.39023451368E+04  0.39023451368E+04  0.00000000000E+00 0. -1.
         -1   -1    0    0    0  501 -0.00000000000E+00 -0.00000000000E+00 -0.11433380343E+04  0.11433380343E+04  0.00000000000E+00 0.  1.
         23    2    1    2    0    0 -0.71789770443E+02  0.21059962621E+04  0.12238795142E+04  0.24385792722E+04  0.91726627000E+02 0.  0.
         13    1    3    3    0    0 -0.71227229626E+02  0.86159143470E+03  0.48222028411E+03  0.98992399759E+03  0.00000000000E+00 0. -1.
        -13    1    3    3    0    0 -0.56254081670E+00  0.12444048274E+04  0.74165923013E+03  0.14486552746E+04  0.00000000000E+00 0.  1.
         22    1    1    2    0    0  0.71789770443E+02 -0.21059962621E+04  0.15351275883E+04  0.26071038989E+04  0.00000000000E+00 0. -1.
<mgrwt>
<rscale>  0 0.42245471E+04</rscale>
<asrwt>0</asrwt>
<pdfrwt beam="1">  1        1 0.60036078E+00 0.42245471E+04</pdfrwt>
<pdfrwt beam="2">  1       -1 0.17589816E+00 0.42245471E+04</pdfrwt>
<totfact> 0.19919121E-02</totfact>
</mgrwt>
</event>
<event>
 6    1  0.1831439E-005  0.1822805E+04  0.7818608E-02  0.8694265E-01
          2   -1    0    0  501    0  0.00000000000E+00  0.00000000000E+00  0.29471514431E+04  0.29471514431E+04  0.00000000000E+00 0.  1.
         -2   -1    0    0    0  501 -0.00000000000E+00 -0.00000000000E+00 -0.28185000532E+03  0.28185000532E+03  0.00000000000E+00 0. -1.
         23    2    1    2    0    0  0.50456198406E+03 -0.75110997039E+03  0.11797743605E+04  0.14895935950E+04  0.90953576286E+02 0.  0.
         11    1    3    3    0    0  0.39654174266E+03 -0.51813935632E+03  0.85846590893E+03  0.10782752260E+04  0.00000000000E+00 0. -1.
        -11    1    3    3    0    0  0.10802024139E+03 -0.23297061407E+03  0.32130845160E+03  0.41131836896E+03  0.00000000000E+00 0.  1.
         22    1    1    2    0    0 -0.50456198406E+03  0.75110997039E+03  0.14855270772E+04  0.17394078534E+04  0.00000000000E+00 0.  1.
<mgrwt>
<rscale>  0 0.18228051E+04</rscale>
<asrwt>0</asrwt>
<pdfrwt beam="1">  1        2 0.45340789E+00 0.18228051E+04</pdfrwt>
<pdfrwt beam="2">  1       -2 0.43361541E-01 0.18228051E+04</pdfrwt>
<totfact> 0.89571596E+00</totfact>
</mgrwt>
</event>
<event>
 6    1  0.1831439E-005  0.3467133E+04  0.7818608E-02  0.8121623E-01
          2   -1    0    0  501    0  0.00000000000E+00  0.00000000000E+00  0.19707033814E+04  0.19707033814E+04  0.00000000000E+00 0. -1.
         -2   -1    0    0    0  501 -0.00000000000E+00 -0.00000000000E+00 -0.15249649643E+04  0.15249649643E+04  0.00000000000E+00 0.  1.
         23    2    1    2    0    0  0.23199266183E+02  0.16475185693E+04 -0.31636589398E+03  0.16802734513E+04  0.91519669951E+02 0.  0.
         13    1    3    3    0    0  0.19260562490E+02  0.12534586263E+04 -0.28018698610E+03  0.12845365873E+04  0.00000000000E+00 0.  1.
        -13    1    3    3    0    0  0.39387036935E+01  0.39405994302E+03 -0.36178907883E+02  0.39573686391E+03  0.00000000000E+00 0. -1.
         22    1    1    2    0    0 -0.23199266183E+02 -0.16475185693E+04  0.76210431106E+03  0.18153948945E+04  0.00000000000E+00 0. -1.
<mgrwt>
<rscale>  0 0.34671335E+04</rscale>
<asrwt>0</asrwt>
<pdfrwt beam="1">  1        2 0.30318514E+00 0.34671335E+04</pdfrwt>
<pdfrwt beam="2">  1       -2 0.23460999E+00 0.34671335E+04</pdfrwt>
<totfact> 0.45732948E-01</totfact>
</mgrwt>
</event>
<event>
 6    1  0.1831439E-005  0.2855932E+04  0.7818608E-02  0.8286111E-01
          1   -1    0    0  501    0  0.00000000000E+00  0.00000000000E+00  0.16869671650E+04  0.16869671650E+04  0.00000000000E+00 0. -1.
         -1   -1    0    0    0  501 -0.00000000000E+00 -0.00000000000E+00 -0.12087296632E+04  0.12087296632E+04  0.00000000000E+00 0.  1.
         23    2    1    2    0    0 -0.10480266715E+04 -0.94735257627E+03  0.38213250082E+02  0.14160150549E+04  0.88326527457E+02 0.  0.
         13    1    3    3    0    0 -0.46896716343E+03 -0.36591944191E+03  0.90286387721E+01  0.59490230682E+03  0.00000000000E+00 0. -1.
        -13    1    3    3    0    0 -0.57905950805E+03 -0.58143313436E+03  0.29184611310E+02  0.82111274812E+03  0.00000000000E+00 0.  1.
         22    1    1    2    0    0  0.10480266715E+04  0.94735257627E+03  0.44002425171E+03  0.14796817732E+04  0.00000000000E+00 0. -1.
<mgrwt>
<rscale>  0 0.28559322E+04</rscale>
<asrwt>0</asrwt>
<pdfrwt beam="1">  1        1 0.25953341E+00 0.28559322E+04</pdfrwt>
<pdfrwt beam="2">  1       -1 0.18595841E+00 0.28559322E+04</pdfrwt>
<totfact> 0.79092841E-01</totfact>
</mgrwt>
</event>
<event>
 6    1  0.1831439E-005  0.3183521E+04  0.7818608E-02  0.8193183E-01
          1   -1    0    0  501    0  0.00000000000E+00  0.00000000000E+00  0.19222205485E+04  0.19222205485E+04  0.00000000000E+00 0. -1.
         -1   -1    0    0    0  501 -0.00000000000E+00 -0.00000000000E+00 -0.13181119514E+04  0.13181119514E+04  0.00000000000E+00 0.  1.
         23    2    1    2    0    0 -0.15330870950E+03  0.82211945434E+03  0.16792441005E+04  0.18782384105E+04  0.92384088549E+02 0.  0.
         11    1    3    3    0    0 -0.10181469687E+03  0.54049482379E+03  0.10032935688E+04  0.11441585870E+04  0.00000000000E+00 0.  1.
        -11    1    3    3    0    0 -0.51494012630E+02  0.28162463055E+03  0.67595053176E+03  0.73407982349E+03  0.00000000000E+00 0. -1.
         22    1    1    2    0    0  0.15330870950E+03 -0.82211945434E+03 -0.10751355035E+04  0.13620940894E+04  0.00000000000E+00 0.  1.
<mgrwt>
<rscale>  0 0.31835212E+04</rscale>
<asrwt>0</asrwt>
<pdfrwt beam="1">  1        1 0.29572624E+00 0.31835212E+04</pdfrwt>
<pdfrwt beam="2">  1       -1 0.20278645E+00 0.31835212E+04</pdfrwt>
<totfact> 0.40601804E-01</totfact>
</mgrwt>
</event>
<event>
 6    1  0.1831439E-005  0.2914233E+04  0.7818608E-02  0.8268655E-01
          2   -1    0    0  501    0  0.00000000000E+00  0.00000000000E+00  0.28463499320E+04  0.28463499320E+04  0.00000000000E+00 0. -1.
         -2   -1    0    0    0  501 -0.00000000000E+00 -0.00000000000E+00 -0.74593367041E+03  0.74593367041E+03  0.00000000000E+00 0.  1.
         23    2    1    2    0    0 -0.31329353138E+03 -0.43712377152E+03  0.27185936091E+04  0.27729099017E+04  0.95121411592E+02 0.  0.
         11    1    3    3    0    0 -0.24626623440E+03 -0.35767913363E+03  0.19817953910E+04  0.20288160076E+04  0.00000000000E+00 0.  1.
        -11    1    3    3    0    0 -0.67027296979E+02 -0.79444637889E+02  0.73679821811E+03  0.74409389410E+03  0.00000000000E+00 0. -1.
         22    1    1    2    0    0  0.31329353138E+03  0.43712377152E+03 -0.61817734752E+03  0.81937370071E+03  0.00000000000E+00 0.  1.
<mgrwt>
<rscale>  0 0.29142328E+04</rscale>
<asrwt>0</asrwt>
<pdfrwt beam="1">  1        2 0.43789998E+00 0.29142328E+04</pdfrwt>
<pdfrwt beam="2">  1       -2 0.11475903E+00 0.29142328E+04</pdfrwt>
<totfact> 0.11067435E+00</totfact>
</mgrwt>
</event>
<event>
 6    1  0.1831439E-005  0.2095985E+04  0.7818608E-02  0.8563014E-01
         -1   -1    0    0    0  501 -0.00000000000E+00  0.00000000000E+00  0.43257712074E+03  0.43257712074E+03  0.00000000000E+00 0.  1.
          1   -1    0    0  501    0  0.00000000000E+00 -0.00000000000E+00 -0.25389419130E+04  0.25389419130E+04  0.00000000000E+00 0. -1.
         23    2    1    2    0    0  0.77872847335E+03 -0.45210249524E+02 -0.67038924175E+02  0.78810152943E+03  0.90265173015E+02 0.  0.
         13    1    3    3    0    0  0.20727333948E+03  0.27819446419E+02 -0.16057262270E+02  0.20974745417E+03  0.00000000000E+00 0. -1.
        -13    1    3    3    0    0  0.57145513387E+03 -0.73029695944E+02 -0.50981661905E+02  0.57835407526E+03  0.00000000000E+00 0.  1.
         22    1    1    2    0    0 -0.77872847335E+03  0.45210249524E+02 -0.20393258681E+04  0.21834175043E+04  0.00000000000E+00 0. -1.
<mgrwt>
<rscale>  0 0.20959849E+04</rscale>
<asrwt>0</asrwt>
<pdfrwt beam="1">  1        1 0.39060645E+00 0.20959849E+04</pdfrwt>
<pdfrwt beam="2">  1       -1 0.66550327E-01 0.20959849E+04</pdfrwt>
<totfact> 0.26798849E+00</totfact>
</mgrwt>
</event>
<event>
 6    1  0.1831439E-005  0.3012606E+04  0.7818608E-02  0.8240140E-01
          1   -1    0    0  501    0  0.00000000000E+00  0.00000000000E+00  0.86696352053E+03  0.86696352053E+03  0.00000000000E+00 0. -1.
         -1   -1    0    0    0  501 -0.00000000000E+00 -0.00000000000E+00 -0.26171213987E+04  0.26171213987E+04  0.00000000000E+00 0.  1.
         23    2    1    2    0    0 -0.13980859252E+04  0.16876491357E+03 -0.14896689500E+04  0.20519605070E+04  0.91118008974E+02 0.  0.
         13    1    3    3    0    0 -0.59697156831E+03  0.99238357053E+02 -0.58740653436E+03  0.84336809371E+03  0.00000000000E+00 0. -1.
        -13    1    3    3    0    0 -0.80111435688E+03  0.69526556513E+02 -0.90226241566E+03  0.12085924133E+04  0.00000000000E+00 0.  1.
         22    1    1    2    0    0  0.13980859252E+04 -0.16876491357E+03 -0.26048892815E+03  0.14321244122E+04  0.00000000000E+00 0. -1.
<mgrwt>
<rscale>  0 0.30126060E+04</rscale>
<asrwt>0</asrwt>
<pdfrwt beam="1">  1        1 0.13337900E+00 0.30126060E+04</pdfrwt>
<pdfrwt beam="2">  1       -1 0.40263406E+00 0.30126060E+04</pdfrwt>
<totfact> 0.11299379E-01</totfact>
</mgrwt>
</event>
<event>
 6    1  0.1831439E-005  0.2180248E+04  0.7818608E-02  0.8526695E-01
         -1   -1    0    0    0  501 -0.00000000000E+00  0.00000000000E+00  0.15453878758E+04  0.15453878758E+04  0.00000000000E+00 0.  1.
          1   -1    0    0  501    0  0.00000000000E+00 -0.00000000000E+00 -0.76897840346E+03  0.76897840346E+03  0.00000000000E+00 0. -1.
         23    2    1    2    0    0 -0.29870483333E+03  0.10362095328E+04  0.23383421710E+03  0.11071617892E+04  0.90410248156E+02 0.  0.
         13    1    3    3    0    0 -0.17146935610E+03  0.56244083007E+03  0.82272336277E+02  0.59372566453E+03  0.00000000000E+00 0.  1.
        -13    1    3    3    0    0 -0.12723547723E+03  0.47376870273E+03  0.15156188082E+03  0.51343612463E+03  0.00000000000E+00 0. -1.
         22    1    1    2    0    0  0.29870483333E+03 -0.10362095328E+04  0.54257525525E+03  0.12072044901E+04  0.00000000000E+00 0. -1.
<mgrwt>
<rscale>  0 0.21802476E+04</rscale>
<asrwt>0</asrwt>
<pdfrwt beam="1">  1        1 0.11830437E+00 0.21802476E+04</pdfrwt>
<pdfrwt beam="2">  1       -1 0.23775198E+00 0.21802476E+04</pdfrwt>
<totfact> 0.18039634E+00</totfact>
</mgrwt>
</event>
<event>
 6    1  0.1831439E-005  0.1718978E+04  0.7818608E-02  0.8750614E-01
         -2   -1    0    0    0  501 -0.00000000000E+00  0.00000000000E+00  0.98023028954E+03  0.98023028954E+03  0.00000000000E+00 0.  1.
          2   -1    0    0  501    0  0.00000000000E+00 -0.00000000000E+00 -0.75362012417E+03  0.75362012417E+03  0.00000000000E+00 0. -1.
         23    2    1    2    0    0  0.64334358059E+03  0.29955838828E+03 -0.37096469919E+03  0.80609941833E+03  0.92494721560E+02 0.  0.
         13    1    3    3    0    0  0.48735246025E+03  0.24631714832E+03 -0.32298268166E+03  0.63443074541E+03  0.00000000000E+00 0. -1.
        -13    1    3    3    0    0  0.15599112034E+03  0.53241239960E+02 -0.47982017533E+02  0.17166867292E+03  0.00000000000E+00 0.  1.
         22    1    1    2    0    0 -0.64334358059E+03 -0.29955838828E+03  0.59757486456E+03  0.92775099538E+03  0.00000000000E+00 0.  1.
<mgrwt>
<rscale>  0 0.17189779E+04</rscale>
<asrwt>0</asrwt>
<pdfrwt beam="1">  1        2 0.11594156E+00 0.17189779E+04</pdfrwt>
<pdfrwt beam="2">  1       -2 0.15080466E+00 0.17189779E+04</pdfrwt>
<totfact> 0.10454117E+01</totfact>
</mgrwt>
</event>
<event>
 6    1  0.1831439E-005  0.4358697E+04  0.7818608E-02  0.7935853E-01
          1   -1    0    0  501    0  0.00000000000E+00  0.00000000000E+00  0.33413131452E+04  0.33413131452E+04  0.00000000000E+00 0. -1.
         -1   -1    0    0    0  501 -0.00000000000E+00 -0.00000000000E+00 -0.14214648432E+04  0.14214648432E+04  0.00000000000E+00 0.  1.
         23    2    1    2    0    0 -0.66166219703E+03  0.17025219299E+04  0.22571904120E+04  0.29053126498E+04  0.97750971122E+02 0.  0.
         11    1    3    3    0    0 -0.90253433298E+02  0.28358450836E+03  0.41838002565E+03  0.51342740623E+03  0.00000000000E+00 0. -1.
        -11    1    3    3    0    0 -0.57140876374E+03  0.14189374216E+04  0.18388103864E+04  0.23918852436E+04  0.00000000000E+00 0.  1.
         22    1    1    2    0    0  0.66166219703E+03 -0.17025219299E+04 -0.33734210999E+03  0.18574653386E+04  0.00000000000E+00 0.  1.
<mgrwt>
<rscale>  0 0.43586967E+04</rscale>
<asrwt>0</asrwt>
<pdfrwt beam="1">  1        1 0.51404817E+00 0.43586967E+04</pdfrwt>
<pdfrwt beam="2">  1       -1 0.21868690E+00 0.43586967E+04</pdfrwt>
<totfact> 0.28318275E-02</totfact>
</mgrwt>
</event>
<event>
 6    1  0.1831439E-005  0.3428145E+04  0.7818608E-02  0.8131033E-01
          2   -1    0    0  501    0  0.00000000000E+00  0.00000000000E+00  0.41851877717E+04  0.41851877717E+04  0.00000000000E+00 0. -1.
         -2   -1    0    0    0  501 -0.00000000000E+00 -0.00000000000E+00 -0.70201006611E+03  0.70201006611E+03  0.00000000000E+00 0.  1.
         23    2    1    2    0    0 -0.10767592983E+04 -0.10651233257E+04  0.60239606580E+03  0.16325394622E+04  0.91683095965E+02 0.  0.
         11    1    3    3    0    0 -0.10005974197E+03 -0.11480164478E+03  0.34134602707E+02  0.15606582171E+03  0.00000000000E+00 0.  1.
        -11    1    3    3    0    0 -0.97669955637E+03 -0.95032168096E+03  0.56826146309E+03  0.14764736405E+04  0.00000000000E+00 0. -1.
         22    1    1    2    0    0  0.10767592983E+04  0.10651233257E+04  0.28807816398E+04  0.32546583756E+04  0.00000000000E+00 0. -1.
<mgrwt>
<rscale>  0 0.34281447E+04</rscale>
<asrwt>0</asrwt>
<pdfrwt beam="1">  1        2 0.64387503E+00 0.34281447E+04</pdfrwt>
<pdfrwt beam="2">  1       -2 0.10800155E+00 0.34281447E+04</pdfrwt>
<totfact> 0.13554964E-01</totfact>
</mgrwt>
</event>
<event>
 6    1  0.1831439E-005  0.3676385E+04  0.7818608E-02  0.8073216E-01
         -2   -1    0    0    0  501 -0.00000000000E+00  0.00000000000E+00  0.10146057954E+04  0.10146057954E+04  0.00000000000E+00 0.  1.
          2   -1    0    0  501    0  0.00000000000E+00 -0.00000000000E+00 -0.33303089619E+04  0.33303089619E+04  0.00000000000E+00 0. -1.
         23    2    1    2    0    0 -0.17477603951E+04  0.39804940783E+03 -0.68369387198E+03  0.19207522077E+04  0.93498678409E+02 0.  0.
         11    1    3    3    0    0 -0.76473082239E+03  0.16845654857E+03 -0.34805048114E+03  0.85693055547E+03  0.00000000000E+00 0.  1.
        -11    1    3    3    0    0 -0.98302957271E+03  0.22959285926E+03 -0.33564339084E+03  0.10638216522E+04  0.00000000000E+00 0. -1.
         22    1    1    2    0    0  0.17477603951E+04 -0.39804940783E+03 -0.16320092945E+04  0.24241625496E+04  0.00000000000E+00 0. -1.
<mgrwt>
<rscale>  0 0.36763845E+04</rscale>
<asrwt>0</asrwt>
<pdfrwt beam="1">  1        2 0.51235522E+00 0.36763845E+04</pdfrwt>
<pdfrwt beam="2">  1       -2 0.15609320E+00 0.36763845E+04</pdfrwt>
<totfact> 0.23161098E-01</totfact>
</mgrwt>
</event>
<event>
 6    1  0.1831439E-005  0.7656771E+03  0.7818608E-02  0.9611072E-01
          4   -1    0    0  501    0  0.00000000000E+00  0.00000000000E+00  0.66667945223E+03  0.66667945223E+03  0.00000000000E+00 0.  1.
         -4   -1    0    0    0  501 -0.00000000000E+00 -0.00000000000E+00 -0.21984380599E+03  0.21984380599E+03  0.00000000000E+00 0. -1.
         23    2    1    2    0    0 -0.27768329880E+03 -0.24826433532E+03  0.15491230976E+03  0.41327656884E+03  0.89758030348E+02 0.  0.
         11    1    3    3    0    0 -0.18546677629E+03 -0.12042925576E+03  0.59412365423E+02  0.22897807737E+03  0.00000000000E+00 0.  1.
        -11    1    3    3    0    0 -0.92216522510E+02 -0.12783507957E+03  0.95499944335E+02  0.18429849147E+03  0.00000000000E+00 0. -1.
         22    1    1    2    0    0  0.27768329880E+03  0.24826433532E+03  0.29192333648E+03  0.47324668938E+03  0.00000000000E+00 0.  1.
<mgrwt>
<rscale>  0 0.76567708E+03</rscale>
<asrwt>0</asrwt>
<pdfrwt beam="1">  1        4 0.10256607E+00 0.76567708E+03</pdfrwt>
<pdfrwt beam="2">  1       -4 0.33822124E-01 0.76567708E+03</pdfrwt>
<totfact> 0.13156958E+01</totfact>
</mgrwt>
</event>
<event>
 6    1  0.1831439E-005  0.9611278E+03  0.7818608E-02  0.9352238E-01
          3   -1    0    0  501    0  0.00000000000E+00  0.00000000000E+00  0.51501125636E+03  0.51501125636E+03  0.00000000000E+00 0. -1.
         -3   -1    0    0    0  501 -0.00000000000E+00 -0.00000000000E+00 -0.44842062711E+03  0.44842062711E+03  0.00000000000E+00 0.  1.
         23    2    1    2    0    0  0.18417949180E+03  0.15104019288E+03 -0.37980186762E+03  0.45746598904E+03  0.91051894072E+02 0.  0.
         13    1    3    3    0    0  0.40948714212E+02  0.70433680606E+02 -0.18789986213E+03  0.20480248716E+03  0.00000000000E+00 0.  1.
        -13    1    3    3    0    0  0.14323077759E+03  0.80606512278E+02 -0.19190200549E+03  0.25266350188E+03  0.00000000000E+00 0. -1.
         22    1    1    2    0    0 -0.18417949180E+03 -0.15104019288E+03  0.44639249687E+03  0.50596589443E+03  0.00000000000E+00 0. -1.
<mgrwt>
<rscale>  0 0.96112782E+03</rscale>
<asrwt>0</asrwt>
<pdfrwt beam="1">  1        3 0.79232501E-01 0.96112782E+03</pdfrwt>
<pdfrwt beam="2">  1       -3 0.68987789E-01 0.96112782E+03</pdfrwt>
<totfact> 0.78486220E+00</totfact>
</mgrwt>
</event>
<event>
 6    1  0.1831439E-005  0.2324864E+04  0.7818608E-02  0.8468182E-01
         -1   -1    0    0    0  501 -0.00000000000E+00  0.00000000000E+00  0.18913849087E+04  0.18913849087E+04  0.00000000000E+00 0.  1.
          1   -1    0    0  501    0  0.00000000000E+00 -0.00000000000E+00 -0.71442255443E+03  0.71442255443E+03  0.00000000000E+00 0. -1.
         23    2    1    2    0    0 -0.10860602516E+04  0.38708560871E+03  0.44038014853E+03  0.12376278388E+04  0.91792449174E+02 0.  0.
         13    1    3    3    0    0 -0.97804769464E+03  0.37679690983E+03  0.40036496836E+03  0.11219827593E+04  0.00000000000E+00 0.  1.
        -13    1    3    3    0    0 -0.10801255692E+03  0.10288698878E+02  0.40015180172E+02  0.11564507954E+03  0.00000000000E+00 0. -1.
         22    1    1    2    0    0  0.10860602516E+04 -0.38708560871E+03  0.73658220570E+03  0.13681796243E+04  0.00000000000E+00 0. -1.
<mgrwt>
<rscale>  0 0.23248639E+04</rscale>
<asrwt>0</asrwt>
<pdfrwt beam="1">  1        1 0.10991116E+00 0.23248639E+04</pdfrwt>
<pdfrwt beam="2">  1       -1 0.29098229E+00 0.23248639E+04</pdfrwt>
<totfact> 0.90006941E-01</totfact>
</mgrwt>
</event>
<event>
 6    1  0.1831439E-005  0.3256675E+04  0.7818608E-02  0.8174008E-01
          2   -1    0    0  501    0  0.00000000000E+00  0.00000000000E+00  0.18352999440E+04  0.18352999440E+04  0.00000000000E+00 0. -1.
         -2   -1    0    0    0  501 -0.00000000000E+00 -0.00000000000E+00 -0.14447139031E+04  0.14447139031E+04  0.00000000000E+00 0.  1.
         23    2    1    2    0    0  0.16006208023E+04  0.44799852722E+02  0.48637127473E+03  0.16759038788E+04  0.90015636030E+02 0.  0.
         11    1    3    3    0    0  0.42909314721E+03 -0.13836034994E+02  0.16225360031E+03  0.45895380558E+03  0.00000000000E+00 0.  1.
        -11    1    3    3    0    0  0.11715276551E+04  0.58635887716E+02  0.32411767441E+03  0.12169500733E+04  0.00000000000E+00 0. -1.
         22    1    1    2    0    0 -0.16006208023E+04 -0.44799852722E+02 -0.95785233806E+02  0.16041099683E+04  0.00000000000E+00 0.  1.
<mgrwt>
<rscale>  0 0.32566752E+04</rscale>
<asrwt>0</asrwt>
<pdfrwt beam="1">  1        2 0.28235384E+00 0.32566752E+04</pdfrwt>
<pdfrwt beam="2">  1       -2 0.22226368E+00 0.32566752E+04</pdfrwt>
<totfact> 0.66115027E-01</totfact>
</mgrwt>
</event>
<event>
 6    1  0.1831439E-005  0.4356386E+04  0.7818608E-02  0.7936273E-01
          2   -1    0    0  501    0  0.00000000000E+00  0.00000000000E+00  0.27317377987E+04  0.27317377987E+04  0.00000000000E+00 0. -1.
         -2   -1    0    0    0  501 -0.00000000000E+00 -0.00000000000E+00 -0.17368157801E+04  0.17368157801E+04  0.00000000000E+00 0.  1.
         23    2    1    2    0    0  0.15818058257E+04  0.88701711068E+03 -0.73811186259E+03  0.19601047636E+04  0.91063372328E+02 0.  0.
         11    1    3    3    0    0  0.69859931731E+03  0.34758665658E+03 -0.29204037746E+03  0.83315369053E+03  0.00000000000E+00 0. -1.
        -11    1    3    3    0    0  0.88320650842E+03  0.53943045410E+03 -0.44607148513E+03  0.11269510731E+04  0.00000000000E+00 0.  1.
         22    1    1    2    0    0 -0.15818058257E+04 -0.88701711068E+03  0.17330338812E+04  0.25084488152E+04  0.00000000000E+00 0. -1.
<mgrwt>
<rscale>  0 0.43563863E+04</rscale>
<asrwt>0</asrwt>
<pdfrwt beam="1">  1        2 0.42026735E+00 0.43563863E+04</pdfrwt>
<pdfrwt beam="2">  1       -2 0.26720243E+00 0.43563863E+04</pdfrwt>
<totfact> 0.98217446E-02</totfact>
</mgrwt>
</event>
<event>
 6    1  0.1831439E-005  0.2486112E+04  0.7818608E-02  0.8407950E-01
         -1   -1    0    0    0  501 -0.00000000000E+00  0.00000000000E+00  0.96825517108E+03  0.96825517108E+03  0.00000000000E+00 0. -1.
          1   -1    0    0  501    0  0.00000000000E+00 -0.00000000000E+00 -0.15958482768E+04  0.15958482768E+04  0.00000000000E+00 0.  1.
         23    2    1    2    0    0  0.88316900220E+03 -0.80291359595E+03  0.37241169482E+02  0.11978449283E+04  0.93743471404E+02 0.  0.
         13    1    3    3    0    0  0.56933104356E+03 -0.45585303755E+03  0.20561430092E+02  0.72963182593E+03  0.00000000000E+00 0. -1.
        -13    1    3    3    0    0  0.31383795864E+03 -0.34706055840E+03  0.16679739390E+02  0.46821310232E+03  0.00000000000E+00 0.  1.
         22    1    1    2    0    0 -0.88316900220E+03  0.80291359595E+03 -0.66483427524E+03  0.13662585197E+04  0.00000000000E+00 0.  1.
<mgrwt>
<rscale>  0 0.24861121E+04</rscale>
<asrwt>0</asrwt>
<pdfrwt beam="1">  1        1 0.24551512E+00 0.24861121E+04</pdfrwt>
<pdfrwt beam="2">  1       -1 0.14896233E+00 0.24861121E+04</pdfrwt>
<totfact> 0.17760948E+00</totfact>
</mgrwt>
</event>
<event>
 6    1  0.1831439E-005  0.1655253E+04  0.7818608E-02  0.8787305E-01
         -1   -1    0    0    0  501 -0.00000000000E+00  0.00000000000E+00  0.11106203857E+04  0.11106203857E+04  0.00000000000E+00 0.  1.
          1   -1    0    0  501    0  0.00000000000E+00 -0.00000000000E+00 -0.61674164762E+03  0.61674164762E+03  0.00000000000E+00 0. -1.
         23    2    1    2    0    0 -0.40568370222E+03  0.17280768497E+03  0.97555982253E+03  0.10743241866E+04  0.89519430003E+02 0.  0.
         13    1    3    3    0    0 -0.64588203087E+02  0.56586497694E+02  0.24736846763E+03  0.26184886190E+03  0.00000000000E+00 0.  1.
        -13    1    3    3    0    0 -0.34109549913E+03  0.11622118728E+03  0.72819135490E+03  0.81247532471E+03  0.00000000000E+00 0. -1.
         22    1    1    2    0    0  0.40568370222E+03 -0.17280768497E+03 -0.48168108441E+03  0.65303784677E+03  0.00000000000E+00 0. -1.
<mgrwt>
<rscale>  0 0.16552533E+04</rscale>
<asrwt>0</asrwt>
<pdfrwt beam="1">  1        1 0.94883331E-01 0.16552533E+04</pdfrwt>
<pdfrwt beam="2">  1       -1 0.17086467E+00 0.16552533E+04</pdfrwt>
<totfact> 0.76207297E+00</totfact>
</mgrwt>
</event>
<event>
 6    1  0.1831439E-005  0.9607333E+03  0.7818608E-02  0.9352692E-01
          1   -1    0    0  501    0  0.00000000000E+00  0.00000000000E+00  0.41329417376E+03  0.41329417376E+03  0.00000000000E+00 0. -1.
         -1   -1    0    0    0  501 -0.00000000000E+00 -0.00000000000E+00 -0.55832414990E+03  0.55832414990E+03  0.00000000000E+00 0.  1.
         23    2    1    2    0    0  0.19335535519E+03  0.39871316103E+03  0.10268041277E+03  0.46395808793E+03  0.91407669448E+02 0.  0.
         13    1    3    3    0    0  0.13994351283E+03  0.32494473310E+03  0.11507828600E+03  0.37204338223E+03  0.00000000000E+00 0. -1.
        -13    1    3    3    0    0  0.53411842363E+02  0.73768427930E+02 -0.12397873235E+02  0.91914705704E+02  0.00000000000E+00 0.  1.
         22    1    1    2    0    0 -0.19335535519E+03 -0.39871316103E+03 -0.24771038891E+03  0.50766023572E+03  0.00000000000E+00 0.  1.
<mgrwt>
<rscale>  0 0.96073330E+03</rscale>
<asrwt>0</asrwt>
<pdfrwt beam="1">  1        1 0.63583719E-01 0.96073330E+03</pdfrwt>
<pdfrwt beam="2">  1       -1 0.85896023E-01 0.96073330E+03</pdfrwt>
<totfact> 0.77271660E+01</totfact>
</mgrwt>
</event>
<event>
 6    1  0.1831439E-005  0.2057263E+04  0.7818608E-02  0.8580307E-01
          2   -1    0    0  501    0  0.00000000000E+00  0.00000000000E+00  0.33823060152E+04  0.33823060152E+04  0.00000000000E+00 0.  1.
         -2   -1    0    0    0  501 -0.00000000000E+00 -0.00000000000E+00 -0.31282872609E+03  0.31282872609E+03  0.00000000000E+00 0. -1.
         23    2    1    2    0    0  0.62946522293E+03  0.78979293432E+03  0.18686812657E+04  0.21260871207E+04  0.90980360200E+02 0.  0.
         11    1    3    3    0    0  0.48279977784E+03  0.54653251165E+03  0.13808347322E+04  0.15615690729E+04  0.00000000000E+00 0. -1.
        -11    1    3    3    0    0  0.14666544509E+03  0.24326042266E+03  0.48784653347E+03  0.56451804775E+03  0.00000000000E+00 0.  1.
         22    1    1    2    0    0 -0.62946522293E+03 -0.78979293432E+03  0.12007960234E+04  0.15690476207E+04  0.00000000000E+00 0.  1.
<mgrwt>
<rscale>  0 0.20572627E+04</rscale>
<asrwt>0</asrwt>
<pdfrwt beam="1">  1        2 0.52035475E+00 0.20572627E+04</pdfrwt>
<pdfrwt beam="2">  1       -2 0.48127499E-01 0.20572627E+04</pdfrwt>
<totfact> 0.37231569E+00</totfact>
</mgrwt>
</event>
<event>
 6    1  0.1831439E-005  0.1000457E+04  0.7818608E-02  0.9308044E-01
         -1   -1    0    0    0  501 -0.00000000000E+00  0.00000000000E+00  0.26399854763E+03  0.26399854763E+03  0.00000000000E+00 0.  1.
          1   -1    0    0  501    0  0.00000000000E+00 -0.00000000000E+00 -0.94784094886E+03  0.94784094886E+03  0.00000000000E+00 0. -1.
         23    2    1    2    0    0  0.14508466815E+03 -0.19368768997E+03 -0.86985486181E+03  0.90660988182E+03  0.82033621219E+02 0.  0.
         11    1    3    3    0    0  0.97873895923E+02 -0.11353754192E+03 -0.38987240711E+03  0.41769674018E+03  0.00000000000E+00 0.  1.
        -11    1    3    3    0    0  0.47210772231E+02 -0.80150148055E+02 -0.47998245470E+03  0.48891314164E+03  0.00000000000E+00 0. -1.
         22    1    1    2    0    0 -0.14508466815E+03  0.19368768997E+03  0.18601246059E+03  0.30522961467E+03  0.00000000000E+00 0.  1.
<mgrwt>
<rscale>  0 0.10004572E+04</rscale>
<asrwt>0</asrwt>
<pdfrwt beam="1">  1        1 0.14582169E+00 0.10004572E+04</pdfrwt>
<pdfrwt beam="2">  1       -1 0.40615161E-01 0.10004572E+04</pdfrwt>
<totfact> 0.98722685E+01</totfact>
</mgrwt>
</event>
<event>
 6    1  0.1831439E-005  0.1290292E+04  0.7818608E-02  0.9037299E-01
          2   -1    0    0  501    0  0.00000000000E+00  0.00000000000E+00  0.55190557295E+03  0.55190557295E+03  0.00000000000E+00 0. -1.
         -2   -1    0    0    0  501 -0.00000000000E+00 -0.00000000000E+00 -0.75413915264E+03  0.75413915264E+03  0.00000000000E+00 0.  1.
         23    2    1    2    0    0  0.41883678009E+03 -0.27754325357E+03 -0.50631804493E+03  0.71874423355E+03  0.88208869576E+02 0.  0.
         11    1    3    3    0    0  0.15112936413E+03 -0.10095440776E+03 -0.12545554048E+03  0.22084150376E+03  0.00000000000E+00 0. -1.
        -11    1    3    3    0    0  0.26770741596E+03 -0.17658884581E+03 -0.38086250445E+03  0.49790272978E+03  0.00000000000E+00 0.  1.
         22    1    1    2    0    0 -0.41883678009E+03  0.27754325357E+03  0.30408446524E+03  0.58730049205E+03  0.00000000000E+00 0. -1.
<mgrwt>
<rscale>  0 0.12902924E+04</rscale>
<asrwt>0</asrwt>
<pdfrwt beam="1">  1        2 0.84908549E-01 0.12902924E+04</pdfrwt>
<pdfrwt beam="2">  1       -2 0.11602141E+00 0.12902924E+04</pdfrwt>
<totfact> 0.31025107E+01</totfact>
</mgrwt>
</event>
<event>
 6    1  0.1831439E-005  0.7801018E+03  0.7818608E-02  0.9589274E-01
         -2   -1    0    0    0  501 -0.00000000000E+00  0.00000000000E+00  0.10738862597E+03  0.10738862597E+03  0.00000000000E+00 0.  1.
          2   -1    0    0  501    0  0.00000000000E+00 -0.00000000000E+00 -0.14167206965E+04  0.14167206965E+04  0.00000000000E+00 0. -1.
         23    2    1    2    0    0 -0.21828763979E+03 -0.14845604828E+03 -0.12098273487E+04  0.12419925353E+04  0.95783881358E+02 0.  0.
         11    1    3    3    0    0 -0.13799075977E+03 -0.63659631097E+02 -0.49871046434E+03  0.52135029074E+03  0.00000000000E+00 0.  1.
        -11    1    3    3    0    0 -0.80296880019E+02 -0.84796417184E+02 -0.71111688441E+03  0.72064224453E+03  0.00000000000E+00 0. -1.
         22    1    1    2    0    0  0.21828763979E+03  0.14845604828E+03 -0.99504721765E+02  0.28211678718E+03  0.00000000000E+00 0.  1.
<mgrwt>
<rscale>  0 0.78010176E+03</rscale>
<asrwt>0</asrwt>
<pdfrwt beam="1">  1        2 0.21795701E+00 0.78010176E+03</pdfrwt>
<pdfrwt beam="2">  1       -2 0.16521328E-01 0.78010176E+03</pdfrwt>
<totfact> 0.42469876E+02</totfact>
</mgrwt>
</event>
<event>
 6    1  0.1831439E-005  0.2091172E+04  0.7818608E-02  0.8565142E-01
          2   -1    0    0  501    0  0.00000000000E+00  0.00000000000E+00  0.17257167458E+04  0.17257167458E+04  0.00000000000E+00 0. -1.
         -2   -1    0    0    0  501 -0.00000000000E+00 -0.00000000000E+00 -0.63350519672E+03  0.63350519672E+03  0.00000000000E+00 0.  1.
         23    2    1    2    0    0  0.65499228716E+03 -0.26674295995E+03  0.14127715414E+04  0.15827392244E+04  0.94727616250E+02 0.  0.
         13    1    3    3    0    0  0.19565624958E+03 -0.41171748748E+02  0.34709387114E+03  0.40056289928E+03  0.00000000000E+00 0.  1.
        -13    1    3    3    0    0  0.45933603758E+03 -0.22557121120E+03  0.10656776702E+04  0.11821763251E+04  0.00000000000E+00 0. -1.
         22    1    1    2    0    0 -0.65499228716E+03  0.26674295995E+03 -0.32055999230E+03  0.77648271815E+03  0.00000000000E+00 0.  1.
<mgrwt>
<rscale>  0 0.20911724E+04</rscale>
<asrwt>0</asrwt>
<pdfrwt beam="1">  1        2 0.26549488E+00 0.20911724E+04</pdfrwt>
<pdfrwt beam="2">  1       -2 0.97462339E-01 0.20911724E+04</pdfrwt>
<totfact> 0.76808161E+00</totfact>
</mgrwt>
</event>
<event>
 6    1  0.1831439E-005  0.2723506E+04  0.7818608E-02  0.8327418E-01
         -1   -1    0    0    0  501 -0.00000000000E+00  0.00000000000E+00  0.12254136830E+04  0.12254136830E+04  0.00000000000E+00 0.  1.
          1   -1    0    0  501    0  0.00000000000E+00 -0.00000000000E+00 -0.15132619308E+04  0.15132619308E+04  0.00000000000E+00 0. -1.
         23    2    1    2    0    0  0.78230852417E+03  0.10877543271E+04  0.91957340989E+02  0.13460276365E+04  0.90100735697E+02 0.  0.
         11    1    3    3    0    0  0.50746177273E+03  0.67023063116E+03  0.19166451620E+02  0.84088875756E+03  0.00000000000E+00 0. -1.
        -11    1    3    3    0    0  0.27484675144E+03  0.41752369598E+03  0.72790889369E+02  0.50513887898E+03  0.00000000000E+00 0.  1.
         22    1    1    2    0    0 -0.78230852417E+03 -0.10877543271E+04 -0.37980558880E+03  0.13926479772E+04  0.00000000000E+00 0.  1.
<mgrwt>
<rscale>  0 0.27235065E+04</rscale>
<asrwt>0</asrwt>
<pdfrwt beam="1">  1        1 0.23280953E+00 0.27235065E+04</pdfrwt>
<pdfrwt beam="2">  1       -1 0.18852518E+00 0.27235065E+04</pdfrwt>
<totfact> 0.10100609E+00</totfact>
</mgrwt>
</event>
<event>
 6    1  0.1831439E-005  0.3134976E+04  0.7818608E-02  0.8206204E-01
          2   -1    0    0  501    0  0.00000000000E+00  0.00000000000E+00  0.31288387958E+04  0.31288387958E+04  0.00000000000E+00 0. -1.
         -2   -1    0    0    0  501 -0.00000000000E+00 -0.00000000000E+00 -0.78528141383E+03  0.78528141383E+03  0.00000000000E+00 0.  1.
         23    2    1    2    0    0 -0.14793802234E+04  0.42511617909E+03  0.15339886255E+04  0.21749562776E+04  0.89577313212E+02 0.  0.
         13    1    3    3    0    0 -0.29828381676E+03  0.10095541945E+03  0.36164518048E+03  0.47953359489E+03  0.00000000000E+00 0. -1.
        -13    1    3    3    0    0 -0.11810964066E+04  0.32416075964E+03  0.11723434450E+04  0.16954226827E+04  0.00000000000E+00 0.  1.
         22    1    1    2    0    0  0.14793802234E+04 -0.42511617909E+03  0.80956875644E+03  0.17391639320E+04  0.00000000000E+00 0. -1.
<mgrwt>
<rscale>  0 0.31349762E+04</rscale>
<asrwt>0</asrwt>
<pdfrwt beam="1">  1        2 0.48135981E+00 0.31349762E+04</pdfrwt>
<pdfrwt beam="2">  1       -2 0.12081253E+00 0.31349762E+04</pdfrwt>
<totfact> 0.63695181E-01</totfact>
</mgrwt>
</event>
<event>
 6    1  0.1831439E-005  0.3217190E+04  0.7818608E-02  0.8184292E-01
          2   -1    0    0  501    0  0.00000000000E+00  0.00000000000E+00  0.18798334173E+04  0.18798334173E+04  0.00000000000E+00 0. -1.
         -2   -1    0    0    0  501 -0.00000000000E+00 -0.00000000000E+00 -0.13764928991E+04  0.13764928991E+04  0.00000000000E+00 0.  1.
         23    2    1    2    0    0 -0.39820068763E+03 -0.33475378017E+03  0.17912570948E+04  0.18673148013E+04  0.87399693222E+02 0.  0.
         11    1    3    3    0    0 -0.17587214980E+03 -0.92597505283E+02  0.67024780196E+03  0.69909758052E+03  0.00000000000E+00 0. -1.
        -11    1    3    3    0    0 -0.22232853783E+03 -0.24215627488E+03  0.11210092928E+04  0.11682172207E+04  0.00000000000E+00 0.  1.
         22    1    1    2    0    0  0.39820068763E+03  0.33475378017E+03 -0.12879165766E+04  0.13890115152E+04  0.00000000000E+00 0.  1.
<mgrwt>
<rscale>  0 0.32171897E+04</rscale>
<asrwt>0</asrwt>
<pdfrwt beam="1">  1        2 0.28920514E+00 0.32171897E+04</pdfrwt>
<pdfrwt beam="2">  1       -2 0.21176814E+00 0.32171897E+04</pdfrwt>
<totfact> 0.73090664E-01</totfact>
</mgrwt>
</event>
<event>
 6    1  0.1831439E-005  0.4875528E+03  0.7818608E-02  0.1017080E+00
          1   -1    0    0  501    0  0.00000000000E+00  0.00000000000E+00  0.86375352920E+03  0.86375352920E+03  0.00000000000E+00 0. -1.
         -1   -1    0    0    0  501 -0.00000000000E+00 -0.00000000000E+00 -0.68800786829E+02  0.68800786829E+02  0.00000000000E+00 0.  1.
         23    2    1    2    0    0 -0.10203811491E+03 -0.19988910210E+03  0.54645105473E+03  0.59771029444E+03  0.91002257281E+02 0.  0.
         11    1    3    3    0    0 -0.11611424425E+03 -0.14988805448E+03  0.41042604999E+03  0.45210451126E+03  0.00000000000E+00 0.  1.
        -11    1    3    3    0    0  0.14076129337E+02 -0.50001047620E+02  0.13602500474E+03  0.14560578318E+03  0.00000000000E+00 0. -1.
         22    1    1    2    0    0  0.10203811491E+03  0.19988910210E+03  0.24850168764E+03  0.33484402159E+03  0.00000000000E+00 0.  1.
<mgrwt>
<rscale>  0 0.48755276E+03</rscale>
<asrwt>0</asrwt>
<pdfrwt beam="1">  1        1 0.13288515E+00 0.48755276E+03</pdfrwt>
<pdfrwt beam="2">  1       -1 0.10584737E-01 0.48755276E+03</pdfrwt>
<totfact> 0.11358282E+03</totfact>
</mgrwt>
</event>
<event>
 6    1  0.1831439E-005  0.2183172E+04  0.7818608E-02  0.8525465E-01
         -1   -1    0    0    0  501 -0.00000000000E+00  0.00000000000E+00  0.43376684903E+03  0.43376684903E+03  0.00000000000E+00 0.  1.
          1   -1    0    0  501    0  0.00000000000E+00 -0.00000000000E+00 -0.27470064901E+04  0.27470064901E+04  0.00000000000E+00 0. -1.
         23    2    1    2    0    0 -0.94464448668E+03 -0.28324996058E+03 -0.48300478960E+03  0.11017487222E+04  0.89290949334E+02 0.  0.
         13    1    3    3    0    0 -0.80684613640E+03 -0.26735355031E+03 -0.39339964080E+03  0.93661191860E+03  0.00000000000E+00 0.  1.
        -13    1    3    3    0    0 -0.13779835028E+03 -0.15896410272E+02 -0.89605148804E+02  0.16513680356E+03  0.00000000000E+00 0. -1.
         22    1    1    2    0    0  0.94464448668E+03  0.28324996058E+03 -0.18302348514E+04  0.20790246169E+04  0.00000000000E+00 0. -1.
<mgrwt>
<rscale>  0 0.21831723E+04</rscale>
<asrwt>0</asrwt>
<pdfrwt beam="1">  1        1 0.42261639E+00 0.21831723E+04</pdfrwt>
<pdfrwt beam="2">  1       -1 0.66733361E-01 0.21831723E+04</pdfrwt>
<totfact> 0.18890074E+00</totfact>
</mgrwt>
</event>
<event>
 6    1  0.1831439E-005  0.6549436E+03  0.7818608E-02  0.9797547E-01
         -1   -1    0    0    0  501 -0.00000000000E+00  0.00000000000E+00  0.53699061786E+03  0.53699061786E+03  0.00000000000E+00 0.  1.
          1   -1    0    0  501    0  0.00000000000E+00 -0.00000000000E+00 -0.19970142967E+03  0.19970142967E+03  0.00000000000E+00 0. -1.
         23    2    1    2    0    0  0.10417044556E+03 -0.23843867098E+02  0.51260946912E+03  0.53136983092E+03  0.90362700550E+02 0.  0.
         11    1    3    3    0    0  0.72094254263E+02  0.26313360583E+02  0.34694365897E+03  0.35533065860E+03  0.00000000000E+00 0.  1.
        -11    1    3    3    0    0  0.32076191301E+02 -0.50157227681E+02  0.16566581015E+03  0.17603917232E+03  0.00000000000E+00 0. -1.
         22    1    1    2    0    0 -0.10417044556E+03  0.23843867098E+02 -0.17532028093E+03  0.20532221661E+03  0.00000000000E+00 0. -1.
<mgrwt>
<rscale>  0 0.65494364E+03</rscale>
<asrwt>0</asrwt>
<pdfrwt beam="1">  1        1 0.30723297E-01 0.65494364E+03</pdfrwt>
<pdfrwt beam="2">  1       -1 0.82613941E-01 0.65494364E+03</pdfrwt>
<totfact> 0.22042568E+02</totfact>
</mgrwt>
</event>
<event>
 6    1  0.1831439E-005  0.3102569E+04  0.7818608E-02  0.8215033E-01
          1   -1    0    0  501    0  0.00000000000E+00  0.00000000000E+00  0.90672965585E+03  0.90672965585E+03  0.00000000000E+00 0. -1.
         -1   -1    0    0    0  501 -0.00000000000E+00 -0.00000000000E+00 -0.26540251993E+04  0.26540251993E+04  0.00000000000E+00 0.  1.
         23    2    1    2    0    0 -0.75714482016E+03 -0.93499645032E+03  0.24706477431E+03  0.12316005627E+04  0.91171830299E+02 0.  0.
         13    1    3    3    0    0 -0.14247957375E+03 -0.13382166803E+03  0.19197880398E+02  0.19641086116E+03  0.00000000000E+00 0. -1.
        -13    1    3    3    0    0 -0.61466524641E+03 -0.80117478229E+03  0.22786689391E+03  0.10351897016E+04  0.00000000000E+00 0.  1.
         22    1    1    2    0    0  0.75714482016E+03  0.93499645032E+03 -0.19943603178E+04  0.23291542925E+04  0.00000000000E+00 0.  1.
<mgrwt>
<rscale>  0 0.31025688E+04</rscale>
<asrwt>0</asrwt>
<pdfrwt beam="1">  1        1 0.13949687E+00 0.31025688E+04</pdfrwt>
<pdfrwt beam="2">  1       -1 0.40831156E+00 0.31025688E+04</pdfrwt>
<totfact> 0.95027682E-02</totfact>
</mgrwt>
</event>
<event>
 6    1  0.1831439E-005  0.9838417E+03  0.7818608E-02  0.9326447E-01
          2   -1    0    0  501    0  0.00000000000E+00  0.00000000000E+00  0.22040847408E+04  0.22040847408E+04  0.00000000000E+00 0. -1.
         -2   -1    0    0    0  501 -0.00000000000E+00 -0.00000000000E+00 -0.10978985061E+03  0.10978985061E+03  0.00000000000E+00 0.  1.
         23    2    1    2    0    0  0.14626470516E+03 -0.42160193039E+03  0.59312668269E+03  0.74778151024E+03  0.90754469063E+02 0.  0.
         13    1    3    3    0    0  0.59148548078E+02 -0.66816002024E+02  0.99174306950E+02  0.13341091419E+03  0.00000000000E+00 0.  1.
        -13    1    3    3    0    0  0.87116157078E+02 -0.35478592836E+03  0.49395237574E+03  0.61437059605E+03  0.00000000000E+00 0. -1.
         22    1    1    2    0    0 -0.14626470516E+03  0.42160193039E+03  0.15011682075E+04  0.15660930812E+04  0.00000000000E+00 0. -1.
<mgrwt>
<rscale>  0 0.98384172E+03</rscale>
<asrwt>0</asrwt>
<pdfrwt beam="1">  1        2 0.33908993E+00 0.98384172E+03</pdfrwt>
<pdfrwt beam="2">  1       -2 0.16890748E-01 0.98384172E+03</pdfrwt>
<totfact> 0.14824479E+02</totfact>
</mgrwt>
</event>
<event>
 6    1  0.1831439E-005  0.2805957E+04  0.7818608E-02  0.8301421E-01
          1   -1    0    0  501    0  0.00000000000E+00  0.00000000000E+00  0.12423185426E+04  0.12423185426E+04  0.00000000000E+00 0. -1.
         -1   -1    0    0    0  501 -0.00000000000E+00 -0.00000000000E+00 -0.15844159712E+04  0.15844159712E+04  0.00000000000E+00 0.  1.
         23    2    1    2    0    0 -0.10036668087E+04  0.85673762529E+03 -0.64630996052E+03  0.14725219434E+04  0.96217915307E+02 0.  0.
         13    1    3    3    0    0 -0.30199987562E+03  0.28165657418E+03 -0.24806918236E+03  0.48173921357E+03  0.00000000000E+00 0.  1.
        -13    1    3    3    0    0 -0.70166693309E+03  0.57508105111E+03 -0.39824077816E+03  0.99078272983E+03  0.00000000000E+00 0. -1.
         22    1    1    2    0    0  0.10036668087E+04 -0.85673762529E+03  0.30421253192E+03  0.13542125705E+04  0.00000000000E+00 0. -1.
<mgrwt>
<rscale>  0 0.28059575E+04</rscale>
<asrwt>0</asrwt>
<pdfrwt beam="1">  1        1 0.19112593E+00 0.28059575E+04</pdfrwt>
<pdfrwt beam="2">  1       -1 0.24375630E+00 0.28059575E+04</pdfrwt>
<totfact> 0.65969710E-01</totfact>
</mgrwt>
</event>
<event>
 6    1  0.1831439E-005  0.2332449E+04  0.7818608E-02  0.8465236E-01
          2   -1    0    0  501    0  0.00000000000E+00  0.00000000000E+00  0.12296204905E+04  0.12296204905E+04  0.00000000000E+00 0.  1.
         -2   -1    0    0    0  501 -0.00000000000E+00 -0.00000000000E+00 -0.11060970806E+04  0.11060970806E+04  0.00000000000E+00 0. -1.
         23    2    1    2    0    0  0.89832209740E+02 -0.10065405753E+04 -0.51747157399E+03  0.11390269991E+04  0.91716515497E+02 0.  0.
         13    1    3    3    0    0  0.26615070934E+01 -0.48103837174E+03 -0.22076842914E+03  0.52928602665E+03  0.00000000000E+00 0. -1.
        -13    1    3    3    0    0  0.87170702646E+02 -0.52550220359E+03 -0.29670314485E+03  0.60974097249E+03  0.00000000000E+00 0.  1.
         22    1    1    2    0    0 -0.89832209740E+02  0.10065405753E+04  0.64099498381E+03  0.11966905719E+04  0.00000000000E+00 0.  1.
<mgrwt>
<rscale>  0 0.23324490E+04</rscale>
<asrwt>0</asrwt>
<pdfrwt beam="1">  1        2 0.18917238E+00 0.23324490E+04</pdfrwt>
<pdfrwt beam="2">  1       -2 0.17016878E+00 0.23324490E+04</pdfrwt>
<totfact> 0.34952814E+00</totfact>
</mgrwt>
</event>
<event>
 6    1  0.1831439E-005  0.3381100E+03  0.7818608E-02  0.1067604E+00
         -2   -1    0    0    0  501 -0.00000000000E+00  0.00000000000E+00  0.14827593245E+02  0.14827593245E+02  0.00000000000E+00 0.  1.
          2   -1    0    0  501    0  0.00000000000E+00 -0.00000000000E+00 -0.19274601015E+04  0.19274601015E+04  0.00000000000E+00 0. -1.
         23    2    1    2    0    0 -0.40623153016E+02  0.15087806610E+03 -0.10662812763E+04  0.10816339669E+04  0.92530248087E+02 0.  0.
         13    1    3    3    0    0 -0.34268501593E+02  0.15426841264E+03 -0.10609964386E+04  0.10727005715E+04  0.00000000000E+00 0. -1.
        -13    1    3    3    0    0 -0.63546514236E+01 -0.33903465327E+01 -0.52848376782E+01  0.89333954134E+01  0.00000000000E+00 0.  1.
         22    1    1    2    0    0  0.40623153016E+02 -0.15087806610E+03 -0.84635123201E+03  0.86065372788E+03  0.00000000000E+00 0. -1.
<mgrwt>
<rscale>  0 0.33811001E+03</rscale>
<asrwt>0</asrwt>
<pdfrwt beam="1">  1        2 0.29653228E+00 0.33811001E+03</pdfrwt>
<pdfrwt beam="2">  1       -2 0.22811686E-02 0.33811001E+03</pdfrwt>
<totfact> 0.51634894E+03</totfact>
</mgrwt>
</event>
<event>
 6    1  0.1831439E-005  0.7923141E+03  0.7818608E-02  0.9571209E-01
          1   -1    0    0  501    0  0.00000000000E+00  0.00000000000E+00  0.19108856135E+03  0.19108856135E+03  0.00000000000E+00 0. -1.
         -1   -1    0    0    0  501 -0.00000000000E+00 -0.00000000000E+00 -0.82129671236E+03  0.82129671236E+03  0.00000000000E+00 0.  1.
         23    2    1    2    0    0 -0.51835412338E+02 -0.66153393577E+02 -0.80707958492E+03  0.81656217602E+03  0.91286085781E+02 0.  0.
         13    1    3    3    0    0 -0.54661677969E+02 -0.21940633193E+02 -0.66811690769E+03  0.67070820240E+03  0.00000000000E+00 0.  1.
        -13    1    3    3    0    0  0.28262656313E+01 -0.44212760383E+02 -0.13896267723E+03  0.14585397362E+03  0.00000000000E+00 0. -1.
         22    1    1    2    0    0  0.51835412338E+02  0.66153393577E+02  0.17687143391E+03  0.19582309769E+03  0.00000000000E+00 0. -1.
<mgrwt>
<rscale>  0 0.79231410E+03</rscale>
<asrwt>0</asrwt>
<pdfrwt beam="1">  1        1 0.29398240E-01 0.79231410E+03</pdfrwt>
<pdfrwt beam="2">  1       -1 0.12635334E+00 0.79231410E+03</pdfrwt>
<totfact> 0.87197602E+01</totfact>
</mgrwt>
</event>
<event>
 6    1  0.1831439E-005  0.2838065E+04  0.7818608E-02  0.8291547E-01
          2   -1    0    0  501    0  0.00000000000E+00  0.00000000000E+00  0.35643996264E+04  0.35643996264E+04  0.00000000000E+00 0. -1.
         -2   -1    0    0    0  501 -0.00000000000E+00 -0.00000000000E+00 -0.56493491324E+03  0.56493491324E+03  0.00000000000E+00 0.  1.
         23    2    1    2    0    0  0.78201886736E+03  0.84088290073E+03  0.27107250803E+04  0.29452702942E+04  0.89157633293E+02 0.  0.
         13    1    3    3    0    0  0.57306572421E+03  0.66709736202E+03  0.20313211579E+04  0.22135240819E+04  0.00000000000E+00 0.  1.
        -13    1    3    3    0    0  0.20895314315E+03  0.17378553871E+03  0.67940392235E+03  0.73174621229E+03  0.00000000000E+00 0. -1.
         22    1    1    2    0    0 -0.78201886736E+03 -0.84088290073E+03  0.28873963286E+03  0.11840642454E+04  0.00000000000E+00 0.  1.
<mgrwt>
<rscale>  0 0.28380654E+04</rscale>
<asrwt>0</asrwt>
<pdfrwt beam="1">  1        2 0.54836916E+00 0.28380654E+04</pdfrwt>
<pdfrwt beam="2">  1       -2 0.86913066E-01 0.28380654E+04</pdfrwt>
<totfact> 0.72708714E-01</totfact>
</mgrwt>
</event>
<event>
 6    1  0.1831439E-005  0.1011674E+04  0.7818608E-02  0.9295833E-01
          1   -1    0    0  501    0  0.00000000000E+00  0.00000000000E+00  0.16021115042E+04  0.16021115042E+04  0.00000000000E+00 0. -1.
         -1   -1    0    0    0  501 -0.00000000000E+00 -0.00000000000E+00 -0.15970873027E+03  0.15970873027E+03  0.00000000000E+00 0.  1.
         23    2    1    2    0    0 -0.27519207952E+03 -0.41272041956E+03  0.59352439286E+03  0.77862985045E+03  0.89019176276E+02 0.  0.
         13    1    3    3    0    0 -0.12478808877E+03 -0.20905253393E+03  0.35726348986E+03  0.43233347110E+03  0.00000000000E+00 0. -1.
        -13    1    3    3    0    0 -0.15040399075E+03 -0.20366788563E+03  0.23626090299E+03  0.34629637935E+03  0.00000000000E+00 0.  1.
         22    1    1    2    0    0  0.27519207952E+03  0.41272041956E+03  0.84887838103E+03  0.98319038397E+03  0.00000000000E+00 0. -1.
<mgrwt>
<rscale>  0 0.10116742E+04</rscale>
<asrwt>0</asrwt>
<pdfrwt beam="1">  1        1 0.24647868E+00 0.10116742E+04</pdfrwt>
<pdfrwt beam="2">  1       -1 0.24570575E-01 0.10116742E+04</pdfrwt>
<totfact> 0.80454991E+01</totfact>
</mgrwt>
</event>
<event>
 6    1  0.1831439E-005  0.5448031E+04  0.7818608E-02  0.7762881E-01
          2   -1    0    0  501    0  0.00000000000E+00  0.00000000000E+00  0.24754471483E+04  0.24754471483E+04  0.00000000000E+00 0. -1.
         -2   -1    0    0    0  501 -0.00000000000E+00 -0.00000000000E+00 -0.29975439870E+04  0.29975439870E+04  0.00000000000E+00 0.  1.
         23    2    1    2    0    0 -0.49671594435E+02 -0.17907347628E+04  0.17994546129E+04  0.25406201833E+04  0.86693449298E+02 0.  0.
         13    1    3    3    0    0 -0.55722951532E+02 -0.55971187091E+03  0.56204095362E+03  0.79515561956E+03  0.00000000000E+00 0. -1.
        -13    1    3    3    0    0  0.60513570967E+01 -0.12310228919E+04  0.12374136593E+04  0.17454645638E+04  0.00000000000E+00 0.  1.
         22    1    1    2    0    0  0.49671594435E+02  0.17907347628E+04 -0.23215514515E+04  0.29323709520E+04  0.00000000000E+00 0.  1.
<mgrwt>
<rscale>  0 0.54480315E+04</rscale>
<asrwt>0</asrwt>
<pdfrwt beam="1">  1        2 0.38083802E+00 0.54480315E+04</pdfrwt>
<pdfrwt beam="2">  1       -2 0.46116061E+00 0.54480315E+04</pdfrwt>
<totfact> 0.74406392E-03</totfact>
</mgrwt>
</event>
<event>
 6    1  0.1831439E-005  0.1285951E+04  0.7818608E-02  0.9040781E-01
          2   -1    0    0  501    0  0.00000000000E+00  0.00000000000E+00  0.12476838969E+04  0.12476838969E+04  0.00000000000E+00 0. -1.
         -2   -1    0    0    0  501 -0.00000000000E+00 -0.00000000000E+00 -0.33134769858E+03  0.33134769858E+03  0.00000000000E+00 0.  1.
         23    2    1    2    0    0 -0.36352917136E+03  0.46993174407E+03  0.75190018163E+03  0.96256707411E+03  0.90510698367E+02 0.  0.
         13    1    3    3    0    0 -0.22284523907E+03  0.35085233915E+03  0.54638387680E+03  0.68650761488E+03  0.00000000000E+00 0. -1.
        -13    1    3    3    0    0 -0.14068393229E+03  0.11907940492E+03  0.20551630483E+03  0.27605945923E+03  0.00000000000E+00 0.  1.
         22    1    1    2    0    0  0.36352917136E+03 -0.46993174407E+03  0.16443601670E+03  0.61646452137E+03  0.00000000000E+00 0.  1.
<mgrwt>
<rscale>  0 0.12859505E+04</rscale>
<asrwt>0</asrwt>
<pdfrwt beam="1">  1        2 0.19195137E+00 0.12859505E+04</pdfrwt>
<pdfrwt beam="2">  1       -2 0.50976570E-01 0.12859505E+04</pdfrwt>
<totfact> 0.63305475E+01</totfact>
</mgrwt>
</event>
<event>
 6    1  0.1831439E-005  0.2204918E+04  0.7818608E-02  0.8516384E-01
         -1   -1    0    0    0  501 -0.00000000000E+00  0.00000000000E+00  0.13703834248E+04  0.13703834248E+04  0.00000000000E+00 0.  1.
          1   -1    0    0  501    0  0.00000000000E+00 -0.00000000000E+00 -0.88691664304E+03  0.88691664304E+03  0.00000000000E+00 0. -1.
         23    2    1    2    0    0 -0.90692245254E+03 -0.23458819352E+03  0.83365258878E+03  0.12572150440E+04  0.89850279494E+02 0.  0.
         11    1    3    3    0    0 -0.10919618702E+03 -0.33028361455E+02  0.14330781723E+03  0.18317153272E+03  0.00000000000E+00 0.  1.
        -11    1    3    3    0    0 -0.79772626552E+03 -0.20155983206E+03  0.69034477154E+03  0.10740435113E+04  0.00000000000E+00 0. -1.
         22    1    1    2    0    0  0.90692245254E+03  0.23458819352E+03 -0.35018580699E+03  0.10000850238E+04  0.00000000000E+00 0. -1.
<mgrwt>
<rscale>  0 0.22049180E+04</rscale>
<asrwt>0</asrwt>
<pdfrwt beam="1">  1        1 0.13644871E+00 0.22049180E+04</pdfrwt>
<pdfrwt beam="2">  1       -1 0.21082822E+00 0.22049180E+04</pdfrwt>
<totfact> 0.21572445E+00</totfact>
</mgrwt>
</event>
<event>
 6    1  0.1831439E-005  0.3112821E+04  0.7818608E-02  0.8212228E-01
         -2   -1    0    0    0  501 -0.00000000000E+00  0.00000000000E+00  0.21196829255E+04  0.21196829255E+04  0.00000000000E+00 0.  1.
          2   -1    0    0  501    0  0.00000000000E+00 -0.00000000000E+00 -0.11428186103E+04  0.11428186103E+04  0.00000000000E+00 0. -1.
         23    2    1    2    0    0 -0.85346771022E+03 -0.48106429264E+03 -0.77697152403E+03  0.12535789048E+04  0.89136610686E+02 0.  0.
         13    1    3    3    0    0 -0.34818111805E+03 -0.17867064325E+03 -0.25867140007E+03  0.46910999024E+03  0.00000000000E+00 0. -1.
        -13    1    3    3    0    0 -0.50528659217E+03 -0.30239364940E+03 -0.51830012396E+03  0.78446891456E+03  0.00000000000E+00 0.  1.
         22    1    1    2    0    0  0.85346771022E+03  0.48106429264E+03  0.17538358393E+04  0.20089226310E+04  0.00000000000E+00 0.  1.
<mgrwt>
<rscale>  0 0.31128206E+04</rscale>
<asrwt>0</asrwt>
<pdfrwt beam="1">  1        2 0.17581825E+00 0.31128206E+04</pdfrwt>
<pdfrwt beam="2">  1       -2 0.32610506E+00 0.31128206E+04</pdfrwt>
<totfact> 0.38166095E-01</totfact>
</mgrwt>
</event>
<event>
 6    1  0.1831439E-005  0.2313956E+04  0.7818608E-02  0.8472439E-01
          2   -1    0    0  501    0  0.00000000000E+00  0.00000000000E+00  0.74159434172E+03  0.74159434172E+03  0.00000000000E+00 0. -1.
         -2   -1    0    0    0  501 -0.00000000000E+00 -0.00000000000E+00 -0.18050276401E+04  0.18050276401E+04  0.00000000000E+00 0.  1.
         23    2    1    2    0    0 -0.92172462515E+03  0.53738443473E+03 -0.10191934055E+04  0.14787664281E+04  0.98166368595E+02 0.  0.
         11    1    3    3    0    0 -0.56540746976E+03  0.31015410841E+03 -0.55286907383E+03  0.84943827946E+03  0.00000000000E+00 0.  1.
        -11    1    3    3    0    0 -0.35631715539E+03  0.22723032633E+03 -0.46632433166E+03  0.62932814868E+03  0.00000000000E+00 0. -1.
         22    1    1    2    0    0  0.92172462515E+03 -0.53738443473E+03 -0.44239892855E+02  0.10678555536E+04  0.00000000000E+00 0.  1.
<mgrwt>
<rscale>  0 0.23139562E+04</rscale>
<asrwt>0</asrwt>
<pdfrwt beam="1">  1        2 0.11409144E+00 0.23139562E+04</pdfrwt>
<pdfrwt beam="2">  1       -2 0.27769656E+00 0.23139562E+04</pdfrwt>
<totfact> 0.14990204E+00</totfact>
</mgrwt>
</event>
<event>
 6    1  0.1831439E-005  0.2824494E+03  0.7818608E-02  0.1094359E+00
          1   -1    0    0  501    0  0.00000000000E+00  0.00000000000E+00  0.86225477506E+03  0.86225477506E+03  0.00000000000E+00 0. -1.
         -1   -1    0    0    0  501 -0.00000000000E+00 -0.00000000000E+00 -0.23130544006E+02  0.23130544006E+02  0.00000000000E+00 0.  1.
         23    2    1    2    0    0  0.50654723023E+02  0.10816412897E+03  0.59784641342E+03  0.61616354238E+03  0.89284921226E+02 0.  0.
         13    1    3    3    0    0  0.31452036309E+02  0.29614021111E+02  0.70718434984E+02  0.82869281889E+02  0.00000000000E+00 0.  1.
        -13    1    3    3    0    0  0.19202686715E+02  0.78550107859E+02  0.52712797843E+03  0.53329426049E+03  0.00000000000E+00 0. -1.
         22    1    1    2    0    0 -0.50654723023E+02 -0.10816412897E+03  0.24127781764E+03  0.26922177669E+03  0.00000000000E+00 0.  1.
<mgrwt>
<rscale>  0 0.28244944E+03</rscale>
<asrwt>0</asrwt>
<pdfrwt beam="1">  1        1 0.13265456E+00 0.28244944E+03</pdfrwt>
<pdfrwt beam="2">  1       -1 0.35585459E-02 0.28244944E+03</pdfrwt>
<totfact> 0.59898223E+03</totfact>
</mgrwt>
</event>
<event>
 6    1  0.1831439E-005  0.2181149E+04  0.7818608E-02  0.8526316E-01
         -1   -1    0    0    0  501 -0.00000000000E+00  0.00000000000E+00  0.84930031446E+03  0.84930031446E+03  0.00000000000E+00 0.  1.
          1   -1    0    0  501    0  0.00000000000E+00 -0.00000000000E+00 -0.14003912374E+04  0.14003912374E+04  0.00000000000E+00 0. -1.
         23    2    1    2    0    0 -0.17739179152E+03 -0.71517725082E+03  0.55092468925E+03  0.92402765882E+03  0.85806487177E+02 0.  0.
         13    1    3    3    0    0 -0.13819066583E+03 -0.41313655558E+03  0.29400014996E+03  0.52556118755E+03  0.00000000000E+00 0.  1.
        -13    1    3    3    0    0 -0.39201125693E+02 -0.30204069524E+03  0.25692453929E+03  0.39846647127E+03  0.00000000000E+00 0. -1.
         22    1    1    2    0    0  0.17739179152E+03  0.71517725082E+03 -0.11020156121E+04  0.13256638930E+04  0.00000000000E+00 0. -1.
<mgrwt>
<rscale>  0 0.21811490E+04</rscale>
<asrwt>0</asrwt>
<pdfrwt beam="1">  1        1 0.21544480E+00 0.21811490E+04</pdfrwt>
<pdfrwt beam="2">  1       -1 0.13066159E+00 0.21811490E+04</pdfrwt>
<totfact> 0.35106736E+00</totfact>
</mgrwt>
</event>
<event>
 6    1  0.1831439E-005  0.2885027E+04  0.7818608E-02  0.8277346E-01
          2   -1    0    0  501    0  0.00000000000E+00  0.00000000000E+00  0.10658176457E+04  0.10658176457E+04  0.00000000000E+00 0. -1.
         -2   -1    0    0    0  501 -0.00000000000E+00 -0.00000000000E+00 -0.19523464614E+04  0.19523464614E+04  0.00000000000E+00 0.  1.
         23    2    1    2    0    0  0.33071923590E+03 -0.13934504595E+04 -0.61167139353E+03  0.15598685271E+04  0.89266634425E+02 0.  0.
         11    1    3    3    0    0  0.21411450772E+03 -0.10345194640E+04 -0.47731552802E+03  0.11592694497E+04  0.00000000000E+00 0. -1.
        -11    1    3    3    0    0  0.11660472818E+03 -0.35893099555E+03 -0.13435586551E+03  0.40059907738E+03  0.00000000000E+00 0.  1.
         22    1    1    2    0    0 -0.33071923590E+03  0.13934504595E+04 -0.27485742214E+03  0.14582955800E+04  0.00000000000E+00 0. -1.
<mgrwt>
<rscale>  0 0.28850271E+04</rscale>
<asrwt>0</asrwt>
<pdfrwt beam="1">  1        2 0.16397195E+00 0.28850271E+04</pdfrwt>
<pdfrwt beam="2">  1       -2 0.30036099E+00 0.28850271E+04</pdfrwt>
<totfact> 0.62515816E-01</totfact>
</mgrwt>
</event>
<event>
 6    1  0.1831439E-005  0.1750195E+04  0.7818608E-02  0.8733243E-01
          1   -1    0    0  501    0  0.00000000000E+00  0.00000000000E+00  0.68368753480E+03  0.68368753480E+03  0.00000000000E+00 0. -1.
         -1   -1    0    0    0  501 -0.00000000000E+00 -0.00000000000E+00 -0.11200956754E+04  0.11200956754E+04  0.00000000000E+00 0.  1.
         23    2    1    2    0    0  0.42731637301E+03  0.54734671074E+02  0.56019784634E+03  0.71804905301E+03  0.12719138581E+03 0.  0.
         13    1    3    3    0    0  0.42581624272E+03  0.33990209892E+02  0.52153164591E+03  0.67414394948E+03  0.00000000000E+00 0. -1.
        -13    1    3    3    0    0  0.15001302930E+01  0.20744461182E+02  0.38666200428E+02  0.43905103532E+02  0.00000000000E+00 0.  1.
         22    1    1    2    0    0 -0.42731637301E+03 -0.54734671074E+02 -0.99660598695E+03  0.10857341572E+04  0.00000000000E+00 0.  1.
<mgrwt>
<rscale>  0 0.17501948E+04</rscale>
<asrwt>0</asrwt>
<pdfrwt beam="1">  1        1 0.10518270E+00 0.17501948E+04</pdfrwt>
<pdfrwt beam="2">  1       -1 0.17232241E+00 0.17501948E+04</pdfrwt>
<totfact> 0.63301767E+00</totfact>
</mgrwt>
</event>
<event>
 6    1  0.1831439E-005  0.2693109E+04  0.7818608E-02  0.8337244E-01
         -1   -1    0    0    0  501 -0.00000000000E+00  0.00000000000E+00  0.95432082606E+03  0.95432082606E+03  0.00000000000E+00 0.  1.
          1   -1    0    0  501    0  0.00000000000E+00 -0.00000000000E+00 -0.18999993159E+04  0.18999993159E+04  0.00000000000E+00 0. -1.
         23    2    1    2    0    0  0.83716422175E+03 -0.10519984020E+04 -0.51177987801E+03  0.14415878328E+04  0.93339510596E+02 0.  0.
         11    1    3    3    0    0  0.44755228497E+03 -0.62313674363E+03 -0.26310652290E+03  0.81106565174E+03  0.00000000000E+00 0. -1.
        -11    1    3    3    0    0  0.38961193678E+03 -0.42886165835E+03 -0.24867335511E+03  0.63052218107E+03  0.00000000000E+00 0.  1.
         22    1    1    2    0    0 -0.83716422175E+03  0.10519984020E+04 -0.43389861182E+03  0.14127323091E+04  0.00000000000E+00 0. -1.
<mgrwt>
<rscale>  0 0.26931089E+04</rscale>
<asrwt>0</asrwt>
<pdfrwt beam="1">  1        1 0.29230758E+00 0.26931089E+04</pdfrwt>
<pdfrwt beam="2">  1       -1 0.14681859E+00 0.26931089E+04</pdfrwt>
<totfact> 0.11249265E+00</totfact>
</mgrwt>
</event>
<event>
 6    1  0.1831439E-005  0.2584275E+04  0.7818608E-02  0.8373562E-01
         -2   -1    0    0    0  501 -0.00000000000E+00  0.00000000000E+00  0.26839867672E+04  0.26839867672E+04  0.00000000000E+00 0.  1.
          2   -1    0    0  501    0  0.00000000000E+00 -0.00000000000E+00 -0.62206677196E+03  0.62206677196E+03  0.00000000000E+00 0. -1.
         23    2    1    2    0    0 -0.48070945035E+03  0.10297418031E+04  0.18146299589E+04  0.21430393007E+04  0.91026371284E+02 0.  0.
         13    1    3    3    0    0 -0.21311880746E+03  0.55055165515E+03  0.89885673972E+03  0.10753930396E+04  0.00000000000E+00 0.  1.
        -13    1    3    3    0    0 -0.26759064289E+03  0.47919014792E+03  0.91577321913E+03  0.10676462611E+04  0.00000000000E+00 0. -1.
         22    1    1    2    0    0  0.48070945035E+03 -0.10297418031E+04  0.24729003637E+03  0.11630142384E+04  0.00000000000E+00 0. -1.
<mgrwt>
<rscale>  0 0.25842747E+04</rscale>
<asrwt>0</asrwt>
<pdfrwt beam="1">  1        2 0.95702582E-01 0.25842747E+04</pdfrwt>
<pdfrwt beam="2">  1       -2 0.41292103E+00 0.25842747E+04</pdfrwt>
<totfact> 0.25662548E-01</totfact>
</mgrwt>
</event>
<event>
 6    1  0.1831439E-005  0.4910870E+04  0.7818608E-02  0.7842405E-01
          2   -1    0    0  501    0  0.00000000000E+00  0.00000000000E+00  0.33811110496E+04  0.33811110496E+04  0.00000000000E+00 0. -1.
         -2   -1    0    0    0  501 -0.00000000000E+00 -0.00000000000E+00 -0.17831891933E+04  0.17831891933E+04  0.00000000000E+00 0.  1.
         23    2    1    2    0    0  0.19197049456E+04 -0.14406130078E+04  0.25870350360E+03  0.24158208975E+04  0.92898813254E+02 0.  0.
         13    1    3    3    0    0  0.11640169068E+03 -0.93006795979E+02 -0.59119718109E+01  0.14911260544E+03  0.00000000000E+00 0. -1.
        -13    1    3    3    0    0  0.18033032549E+04 -0.13476062118E+04  0.26461547541E+03  0.22667082920E+04  0.00000000000E+00 0.  1.
         22    1    1    2    0    0 -0.19197049456E+04  0.14406130078E+04  0.13392183527E+04  0.27484793455E+04  0.00000000000E+00 0.  1.
<mgrwt>
<rscale>  0 0.49108699E+04</rscale>
<asrwt>0</asrwt>
<pdfrwt beam="1">  1        2 0.52017093E+00 0.49108699E+04</pdfrwt>
<pdfrwt beam="2">  1       -2 0.27433680E+00 0.49108699E+04</pdfrwt>
<totfact> 0.32784930E-02</totfact>
</mgrwt>
</event>
<event>
 6    1  0.1831439E-005  0.5942128E+03  0.7818608E-02  0.9917486E-01
         -1   -1    0    0    0  501 -0.00000000000E+00  0.00000000000E+00  0.18798157372E+03  0.18798157372E+03  0.00000000000E+00 0.  1.
          1   -1    0    0  501    0  0.00000000000E+00 -0.00000000000E+00 -0.46957900596E+03  0.46957900596E+03  0.00000000000E+00 0. -1.
         23    2    1    2    0    0 -0.21877232265E+03  0.55846920415E+02  0.57118355414E+02  0.25048737682E+03  0.92202015956E+02 0.  0.
         13    1    3    3    0    0 -0.59889085071E+02  0.55843662773E+02  0.38604424825E+02  0.90529104704E+02  0.00000000000E+00 0.  1.
        -13    1    3    3    0    0 -0.15888323758E+03  0.32576424314E-02  0.18513930589E+02  0.15995827212E+03  0.00000000000E+00 0. -1.
         22    1    1    2    0    0  0.21877232265E+03 -0.55846920415E+02 -0.33871578766E+03  0.40707320286E+03  0.00000000000E+00 0. -1.
<mgrwt>
<rscale>  0 0.59421276E+03</rscale>
<asrwt>0</asrwt>
<pdfrwt beam="1">  1        1 0.72242923E-01 0.59421276E+03</pdfrwt>
<pdfrwt beam="2">  1       -1 0.28920242E-01 0.59421276E+03</pdfrwt>
<totfact> 0.53106704E+02</totfact>
</mgrwt>
</event>
<event>
 6    1  0.1831439E-005  0.1839975E+04  0.7818608E-02  0.8685326E-01
          1   -1    0    0  501    0  0.00000000000E+00  0.00000000000E+00  0.13465346345E+04  0.13465346345E+04  0.00000000000E+00 0. -1.
         -1   -1    0    0    0  501 -0.00000000000E+00 -0.00000000000E+00 -0.62855921663E+03  0.62855921663E+03  0.00000000000E+00 0.  1.
         23    2    1    2    0    0 -0.91431101089E+03 -0.79370549654E+02  0.37202738479E+03  0.99430623378E+03  0.89309589142E+02 0.  0.
         13    1    3    3    0    0 -0.43856521723E+03 -0.85836698148E+01  0.21369336809E+03  0.48793235670E+03  0.00000000000E+00 0. -1.
        -13    1    3    3    0    0 -0.47574579366E+03 -0.70786879839E+02  0.15833401670E+03  0.50637387708E+03  0.00000000000E+00 0.  1.
         22    1    1    2    0    0  0.91431101089E+03  0.79370549654E+02  0.34594803310E+03  0.98078761737E+03  0.00000000000E+00 0.  1.
<mgrwt>
<rscale>  0 0.18399747E+04</rscale>
<asrwt>0</asrwt>
<pdfrwt beam="1">  1        1 0.20715917E+00 0.18399747E+04</pdfrwt>
<pdfrwt beam="2">  1       -1 0.96701418E-01 0.18399747E+04</pdfrwt>
<totfact> 0.81078203E+00</totfact>
</mgrwt>
</event>
<event>
 6    1  0.1831439E-005  0.2547555E+04  0.7818608E-02  0.8386237E-01
         -1   -1    0    0    0  501 -0.00000000000E+00  0.00000000000E+00  0.48262412210E+03  0.48262412210E+03  0.00000000000E+00 0.  1.
          1   -1    0    0  501    0  0.00000000000E+00 -0.00000000000E+00 -0.33618479605E+04  0.33618479605E+04  0.00000000000E+00 0. -1.
         23    2    1    2    0    0  0.10823897847E+04 -0.12571536073E+03 -0.24322389147E+04  0.26666913220E+04  0.89913684845E+02 0.  0.
         13    1    3    3    0    0  0.44332984106E+03 -0.10320488054E+02 -0.10277222828E+04  0.11193127137E+04  0.00000000000E+00 0.  1.
        -13    1    3    3    0    0  0.63905994367E+03 -0.11539487268E+03 -0.14045166319E+04  0.15473786083E+04  0.00000000000E+00 0. -1.
         22    1    1    2    0    0 -0.10823897847E+04  0.12571536073E+03 -0.44698492371E+03  0.11777807606E+04  0.00000000000E+00 0.  1.
<mgrwt>
<rscale>  0 0.25475548E+04</rscale>
<asrwt>0</asrwt>
<pdfrwt beam="1">  1        1 0.51720738E+00 0.25475548E+04</pdfrwt>
<pdfrwt beam="2">  1       -1 0.74249865E-01 0.25475548E+04</pdfrwt>
<totfact> 0.51748880E-01</totfact>
</mgrwt>
</event>
<event>
 6    1  0.1831439E-005  0.3903218E+04  0.7818608E-02  0.8024360E-01
          2   -1    0    0  501    0  0.00000000000E+00  0.00000000000E+00  0.20590063885E+04  0.20590063885E+04  0.00000000000E+00 0. -1.
         -2   -1    0    0    0  501 -0.00000000000E+00 -0.00000000000E+00 -0.18498130162E+04  0.18498130162E+04  0.00000000000E+00 0.  1.
         23    2    1    2    0    0  0.58256820292E+03  0.16550779416E+04  0.95807086463E+03  0.20010756582E+04  0.87950579065E+02 0.  0.
         11    1    3    3    0    0  0.37776095496E+03  0.10388113801E+04  0.64980741092E+03  0.12822176468E+04  0.00000000000E+00 0. -1.
        -11    1    3    3    0    0  0.20480724796E+03  0.61626656144E+03  0.30826345370E+03  0.71885801133E+03  0.00000000000E+00 0.  1.
         22    1    1    2    0    0 -0.58256820292E+03 -0.16550779416E+04 -0.74887749237E+03  0.19077437465E+04  0.00000000000E+00 0. -1.
<mgrwt>
<rscale>  0 0.39032176E+04</rscale>
<asrwt>0</asrwt>
<pdfrwt beam="1">  1        2 0.31677021E+00 0.39032176E+04</pdfrwt>
<pdfrwt beam="2">  1       -2 0.28458662E+00 0.39032176E+04</pdfrwt>
<totfact> 0.19445812E-01</totfact>
</mgrwt>
</event>
<event>
 6    1  0.1831439E-005  0.3199104E+04  0.7818608E-02  0.8189054E-01
          1   -1    0    0  501    0  0.00000000000E+00  0.00000000000E+00  0.36347176025E+04  0.36347176025E+04  0.00000000000E+00 0. -1.
         -1   -1    0    0    0  501 -0.00000000000E+00 -0.00000000000E+00 -0.70392425601E+03  0.70392425601E+03  0.00000000000E+00 0.  1.
         23    2    1    2    0    0 -0.14043527777E+02 -0.12925165322E+04  0.27414245022E+04  0.30322511183E+04  0.91336392527E+02 0.  0.
         11    1    3    3    0    0 -0.34551120963E+02 -0.71446523780E+03  0.16010852883E+04  0.17536044184E+04  0.00000000000E+00 0. -1.
        -11    1    3    3    0    0  0.20507593186E+02 -0.57805129442E+03  0.11403392139E+04  0.12786466999E+04  0.00000000000E+00 0.  1.
         22    1    1    2    0    0  0.14043527777E+02  0.12925165322E+04  0.18936884424E+03  0.13063907401E+04  0.00000000000E+00 0. -1.
<mgrwt>
<rscale>  0 0.31991036E+04</rscale>
<asrwt>0</asrwt>
<pdfrwt beam="1">  1        1 0.55918731E+00 0.31991036E+04</pdfrwt>
<pdfrwt beam="2">  1       -1 0.10829604E+00 0.31991036E+04</pdfrwt>
<totfact> 0.12903566E-01</totfact>
</mgrwt>
</event>
<event>
 6    1  0.1831439E-005  0.1090455E+04  0.7818608E-02  0.9214545E-01
         -2   -1    0    0    0  501 -0.00000000000E+00  0.00000000000E+00  0.23564816755E+04  0.23564816755E+04  0.00000000000E+00 0.  1.
          2   -1    0    0  501    0  0.00000000000E+00 -0.00000000000E+00 -0.12615123462E+03  0.12615123462E+03  0.00000000000E+00 0. -1.
         23    2    1    2    0    0 -0.41193666463E+03  0.24623746060E+02  0.19209525025E+04  0.19668685712E+04  0.90638374531E+02 0.  0.
         11    1    3    3    0    0 -0.32136476624E+03  0.28789391018E+01  0.16296451982E+04  0.16610319302E+04  0.00000000000E+00 0.  1.
        -11    1    3    3    0    0 -0.90571898399E+02  0.21744806958E+02  0.29130730436E+03  0.30583664101E+03  0.00000000000E+00 0. -1.
         22    1    1    2    0    0  0.41193666463E+03 -0.24623746060E+02  0.30937793835E+03  0.51576433890E+03  0.00000000000E+00 0. -1.
<mgrwt>
<rscale>  0 0.10904551E+04</rscale>
<asrwt>0</asrwt>
<pdfrwt beam="1">  1        2 0.19407884E-01 0.10904551E+04</pdfrwt>
<pdfrwt beam="2">  1       -2 0.36253561E+00 0.10904551E+04</pdfrwt>
<totfact> 0.38745490E+00</totfact>
</mgrwt>
</event>
<event>
 6    1  0.1831439E-005  0.2515087E+04  0.7818608E-02  0.8397630E-01
         -1   -1    0    0    0  501 -0.00000000000E+00  0.00000000000E+00  0.50205342558E+03  0.50205342558E+03  0.00000000000E+00 0.  1.
          1   -1    0    0  501    0  0.00000000000E+00 -0.00000000000E+00 -0.31498946887E+04  0.31498946887E+04  0.00000000000E+00 0. -1.
         23    2    1    2    0    0  0.64665817218E+03  0.26917620100E+03 -0.28395190560E+04  0.29257504861E+04  0.80776350469E+02 0.  0.
         11    1    3    3    0    0  0.55478651911E+03  0.23158970125E+03 -0.23060979914E+04  0.23831722173E+04  0.00000000000E+00 0. -1.
        -11    1    3    3    0    0  0.91871653066E+02  0.37586499752E+02 -0.53342106462E+03  0.54257826880E+03  0.00000000000E+00 0.  1.
         22    1    1    2    0    0 -0.64665817218E+03 -0.26917620100E+03  0.19167779291E+03  0.72619762814E+03  0.00000000000E+00 0.  1.
<mgrwt>
<rscale>  0 0.25150868E+04</rscale>
<asrwt>0</asrwt>
<pdfrwt beam="1">  1        1 0.48459918E+00 0.25150868E+04</pdfrwt>
<pdfrwt beam="2">  1       -1 0.77238988E-01 0.25150868E+04</pdfrwt>
<totfact> 0.69106842E-01</totfact>
</mgrwt>
</event>
<event>
 6    1  0.1831439E-005  0.2488093E+04  0.7818608E-02  0.8407240E-01
          2   -1    0    0  501    0  0.00000000000E+00  0.00000000000E+00  0.19412093952E+04  0.19412093952E+04  0.00000000000E+00 0.  1.
         -2   -1    0    0    0  501 -0.00000000000E+00 -0.00000000000E+00 -0.79726161590E+03  0.79726161590E+03  0.00000000000E+00 0. -1.
         23    2    1    2    0    0  0.46285632938E+03 -0.16602016139E+03  0.18285670231E+04  0.18955580946E+04  0.87661031231E+02 0.  0.
         13    1    3    3    0    0  0.34539432678E+03 -0.96392853826E+02  0.14288975965E+04  0.14732064229E+04  0.00000000000E+00 0. -1.
        -13    1    3    3    0    0  0.11746200260E+03 -0.69627307569E+02  0.39966942660E+03  0.42235167168E+03  0.00000000000E+00 0.  1.
         22    1    1    2    0    0 -0.46285632938E+03  0.16602016139E+03 -0.68461924386E+03  0.84291291644E+03  0.00000000000E+00 0. -1.
<mgrwt>
<rscale>  0 0.24880930E+04</rscale>
<asrwt>0</asrwt>
<pdfrwt beam="1">  1        2 0.29864760E+00 0.24880930E+04</pdfrwt>
<pdfrwt beam="2">  1       -2 0.12265563E+00 0.24880930E+04</pdfrwt>
<totfact> 0.32335388E+00</totfact>
</mgrwt>
</event>
<event>
 6    1  0.1831439E-005  0.4458486E+04  0.7818608E-02  0.7917945E-01
          2   -1    0    0  501    0  0.00000000000E+00  0.00000000000E+00  0.11815500899E+04  0.11815500899E+04  0.00000000000E+00 0. -1.
         -2   -1    0    0    0  501 -0.00000000000E+00 -0.00000000000E+00 -0.42059370000E+04  0.42059370000E+04  0.00000000000E+00 0.  1.
         23    2    1    2    0    0 -0.30290935867E+03  0.21796854373E+04 -0.19357132982E+04  0.29322899658E+04  0.92497488133E+02 0.  0.
         13    1    3    3    0    0 -0.87372045629E+02  0.87735490479E+03 -0.73575300291E+03  0.11483544682E+04  0.00000000000E+00 0. -1.
        -13    1    3    3    0    0 -0.21553731304E+03  0.13023305325E+04 -0.11999602953E+04  0.17839354976E+04  0.00000000000E+00 0.  1.
         22    1    1    2    0    0  0.30290935867E+03 -0.21796854373E+04 -0.10886736118E+04  0.24551971241E+04  0.00000000000E+00 0.  1.
<mgrwt>
<rscale>  0 0.44584864E+04</rscale>
<asrwt>0</asrwt>
<pdfrwt beam="1">  1        2 0.18177694E+00 0.44584864E+04</pdfrwt>
<pdfrwt beam="2">  1       -2 0.64706723E+00 0.44584864E+04</pdfrwt>
<totfact> 0.50970717E-03</totfact>
</mgrwt>
</event>
<event>
 6    1  0.1831439E-005  0.4258149E+04  0.7818608E-02  0.7954402E-01
          2   -1    0    0  501    0  0.00000000000E+00  0.00000000000E+00  0.19842870098E+04  0.19842870098E+04  0.00000000000E+00 0. -1.
         -2   -1    0    0    0  501 -0.00000000000E+00 -0.00000000000E+00 -0.22844270873E+04  0.22844270873E+04  0.00000000000E+00 0.  1.
         23    2    1    2    0    0 -0.32489328652E+03  0.46987065770E+03 -0.22053054015E+04  0.22797472814E+04  0.86842792399E+02 0.  0.
         13    1    3    3    0    0 -0.17248684523E+03  0.17464320236E+03 -0.91491688188E+03  0.94727232655E+03  0.00000000000E+00 0. -1.
        -13    1    3    3    0    0 -0.15240644129E+03  0.29522745533E+03 -0.12903885196E+04  0.13324749548E+04  0.00000000000E+00 0.  1.
         22    1    1    2    0    0  0.32489328652E+03 -0.46987065770E+03  0.19051653240E+04  0.19889668158E+04  0.00000000000E+00 0. -1.
<mgrwt>
<rscale>  0 0.42581494E+04</rscale>
<asrwt>0</asrwt>
<pdfrwt beam="1">  1        2 0.30527492E+00 0.42581494E+04</pdfrwt>
<pdfrwt beam="2">  1       -2 0.35145032E+00 0.42581494E+04</pdfrwt>
<totfact> 0.80227420E-02</totfact>
</mgrwt>
</event>
<event>
 6    1  0.1831439E-005  0.4714098E+03  0.7818608E-02  0.1021523E+00
         -2   -1    0    0    0  501 -0.00000000000E+00  0.00000000000E+00  0.37880762836E+02  0.37880762836E+02  0.00000000000E+00 0.  1.
          2   -1    0    0  501    0  0.00000000000E+00 -0.00000000000E+00 -0.14666229677E+04  0.14666229677E+04  0.00000000000E+00 0. -1.
         23    2    1    2    0    0  0.12577909810E+03 -0.19439446777E+03 -0.74014019477E+03  0.77801744786E+03  0.62402328786E+02 0.  0.
         11    1    3    3    0    0  0.11160963896E+03 -0.11943405035E+03 -0.51161019241E+03  0.53709048853E+03  0.00000000000E+00 0. -1.
        -11    1    3    3    0    0  0.14169459144E+02 -0.74960417424E+02 -0.22853000236E+03  0.24092695933E+03  0.00000000000E+00 0.  1.
         22    1    1    2    0    0 -0.12577909810E+03  0.19439446777E+03 -0.68860201014E+03  0.72648628272E+03  0.00000000000E+00 0. -1.
<mgrwt>
<rscale>  0 0.47140979E+03</rscale>
<asrwt>0</asrwt>
<pdfrwt beam="1">  1        2 0.22563428E+00 0.47140979E+03</pdfrwt>
<pdfrwt beam="2">  1       -2 0.58278103E-02 0.47140979E+03</pdfrwt>
<totfact> 0.21930663E+03</totfact>
</mgrwt>
</event>
<event>
 6    1  0.1831439E-005  0.2153848E+04  0.7818608E-02  0.8537887E-01
         -1   -1    0    0    0  501 -0.00000000000E+00  0.00000000000E+00  0.34575661068E+03  0.34575661068E+03  0.00000000000E+00 0.  1.
          1   -1    0    0  501    0  0.00000000000E+00 -0.00000000000E+00 -0.33542826946E+04  0.33542826946E+04  0.00000000000E+00 0. -1.
         23    2    1    2    0    0  0.55335958347E+03  0.77436398295E+03 -0.23651977301E+04  0.25512496041E+04  0.94169172915E+02 0.  0.
         11    1    3    3    0    0  0.32159382510E+03  0.51321133025E+03 -0.15701532829E+04  0.16829111057E+04  0.00000000000E+00 0.  1.
        -11    1    3    3    0    0  0.23176575837E+03  0.26115265270E+03 -0.79504444719E+03  0.86833849838E+03  0.00000000000E+00 0. -1.
         22    1    1    2    0    0 -0.55335958347E+03 -0.77436398295E+03 -0.64332835375E+03  0.11487897011E+04  0.00000000000E+00 0.  1.
<mgrwt>
<rscale>  0 0.21538481E+04</rscale>
<asrwt>0</asrwt>
<pdfrwt beam="1">  1        1 0.51604349E+00 0.21538481E+04</pdfrwt>
<pdfrwt beam="2">  1       -1 0.53193325E-01 0.21538481E+04</pdfrwt>
<totfact> 0.10614223E+00</totfact>
</mgrwt>
</event>
<event>
 6    1  0.1831439E-005  0.5313751E+04  0.7818608E-02  0.7781850E-01
         -1   -1    0    0    0  501 -0.00000000000E+00  0.00000000000E+00  0.24899750199E+04  0.24899750199E+04  0.00000000000E+00 0.  1.
          1   -1    0    0  501    0  0.00000000000E+00 -0.00000000000E+00 -0.28349627985E+04  0.28349627985E+04  0.00000000000E+00 0. -1.
         23    2    1    2    0    0  0.48967824315E+03 -0.25904041145E+04 -0.49700079655E+03  0.26842776328E+04  0.91424069006E+02 0.  0.
         13    1    3    3    0    0  0.39165545990E+03 -0.19458991233E+04 -0.40634041937E+03  0.20260873460E+04  0.00000000000E+00 0.  1.
        -13    1    3    3    0    0  0.98022783253E+02 -0.64450499117E+03 -0.90660377175E+02  0.65819028683E+03  0.00000000000E+00 0. -1.
         22    1    1    2    0    0 -0.48967824315E+03  0.25904041145E+04  0.15201301800E+03  0.26406601856E+04  0.00000000000E+00 0. -1.
<mgrwt>
<rscale>  0 0.53137507E+04</rscale>
<asrwt>0</asrwt>
<pdfrwt beam="1">  1        1 0.43614812E+00 0.53137507E+04</pdfrwt>
<pdfrwt beam="2">  1       -1 0.38307308E+00 0.53137507E+04</pdfrwt>
<totfact> 0.51704355E-03</totfact>
</mgrwt>
</event>
<event>
 6    1  0.1831439E-005  0.2962328E+04  0.7818608E-02  0.8254571E-01
         -1   -1    0    0    0  501 -0.00000000000E+00  0.00000000000E+00  0.10161409429E+04  0.10161409429E+04  0.00000000000E+00 0.  1.
          1   -1    0    0  501    0  0.00000000000E+00 -0.00000000000E+00 -0.21589984217E+04  0.21589984217E+04  0.00000000000E+00 0. -1.
         23    2    1    2    0    0  0.74035026306E+03  0.25175706649E+02 -0.19450208117E+04  0.20832518517E+04  0.89888773515E+02 0.  0.
         11    1    3    3    0    0  0.48617316852E+03 -0.18172248779E+02 -0.13396019033E+04  0.14252115070E+04  0.00000000000E+00 0.  1.
        -11    1    3    3    0    0  0.25417709454E+03  0.43347955428E+02 -0.60541890836E+03  0.65804034468E+03  0.00000000000E+00 0. -1.
         22    1    1    2    0    0 -0.74035026306E+03 -0.25175706649E+02  0.80216333287E+03  0.10918875129E+04  0.00000000000E+00 0.  1.
<mgrwt>
<rscale>  0 0.29623279E+04</rscale>
<asrwt>0</asrwt>
<pdfrwt beam="1">  1        1 0.33215360E+00 0.29623279E+04</pdfrwt>
<pdfrwt beam="2">  1       -1 0.15632938E+00 0.29623279E+04</pdfrwt>
<totfact> 0.61824402E-01</totfact>
</mgrwt>
</event>
<event>
 6    1  0.1831439E-005  0.2718003E+04  0.7818608E-02  0.8329187E-01
          2   -1    0    0  501    0  0.00000000000E+00  0.00000000000E+00  0.15234199818E+04  0.15234199818E+04  0.00000000000E+00 0. -1.
         -2   -1    0    0    0  501 -0.00000000000E+00 -0.00000000000E+00 -0.12123281908E+04  0.12123281908E+04  0.00000000000E+00 0.  1.
         23    2    1    2    0    0  0.97725559704E+03 -0.45694975286E+02 -0.79153140989E+03  0.12616740715E+04  0.90459698683E+02 0.  0.
         11    1    3    3    0    0  0.28712617473E+03 -0.48579002276E+02 -0.20732170480E+03  0.35746838876E+03  0.00000000000E+00 0. -1.
        -11    1    3    3    0    0  0.69012942231E+03  0.28840269897E+01 -0.58420970508E+03  0.90420568272E+03  0.00000000000E+00 0.  1.
         22    1    1    2    0    0 -0.97725559704E+03  0.45694975286E+02  0.11026232008E+04  0.14740741012E+04  0.00000000000E+00 0. -1.
<mgrwt>
<rscale>  0 0.27180029E+04</rscale>
<asrwt>0</asrwt>
<pdfrwt beam="1">  1        2 0.23437231E+00 0.27180029E+04</pdfrwt>
<pdfrwt beam="2">  1       -2 0.18651203E+00 0.27180029E+04</pdfrwt>
<totfact> 0.17652698E+00</totfact>
</mgrwt>
</event>
<event>
 6    1  0.1831439E-005  0.1466754E+04  0.7818608E-02  0.8906867E-01
         -2   -1    0    0    0  501 -0.00000000000E+00  0.00000000000E+00  0.49356542238E+03  0.49356542238E+03  0.00000000000E+00 0.  1.
          2   -1    0    0  501    0  0.00000000000E+00 -0.00000000000E+00 -0.10897072225E+04  0.10897072225E+04  0.00000000000E+00 0. -1.
         23    2    1    2    0    0 -0.33007241952E+03 -0.65173714971E+03 -0.30240997733E+03  0.79587979620E+03  0.90905121794E+02 0.  0.
         13    1    3    3    0    0 -0.12486324165E+03 -0.27961460798E+03 -0.17271021406E+03  0.35157357146E+03  0.00000000000E+00 0. -1.
        -13    1    3    3    0    0 -0.20520917787E+03 -0.37212254173E+03 -0.12969976327E+03  0.44430622474E+03  0.00000000000E+00 0.  1.
         22    1    1    2    0    0  0.33007241952E+03  0.65173714971E+03 -0.29373182281E+03  0.78739284869E+03  0.00000000000E+00 0.  1.
<mgrwt>
<rscale>  0 0.14667540E+04</rscale>
<asrwt>0</asrwt>
<pdfrwt beam="1">  1        2 0.16764726E+00 0.14667540E+04</pdfrwt>
<pdfrwt beam="2">  1       -2 0.75933143E-01 0.14667540E+04</pdfrwt>
<totfact> 0.33272849E+01</totfact>
</mgrwt>
</event>
<event>
 6    1  0.1831439E-005  0.2465415E+04  0.7818608E-02  0.8415411E-01
          2   -1    0    0  501    0  0.00000000000E+00  0.00000000000E+00  0.60682289072E+03  0.60682289072E+03  0.00000000000E+00 0. -1.
         -2   -1    0    0    0  501 -0.00000000000E+00 -0.00000000000E+00 -0.25041372132E+04  0.25041372132E+04  0.00000000000E+00 0.  1.
         23    2    1    2    0    0  0.87573723164E+03 -0.16014110225E+03 -0.20227103741E+04  0.22119133636E+04  0.92965581953E+02 0.  0.
         13    1    3    3    0    0  0.42301262863E+03 -0.34972080904E+02 -0.90981675438E+03  0.10039568003E+04  0.00000000000E+00 0.  1.
        -13    1    3    3    0    0  0.45272460301E+03 -0.12516902135E+03 -0.11128936197E+04  0.12079565633E+04  0.00000000000E+00 0. -1.
         22    1    1    2    0    0 -0.87573723164E+03  0.16014110225E+03  0.12539605155E+03  0.89904674030E+03  0.00000000000E+00 0. -1.
<mgrwt>
<rscale>  0 0.24654150E+04</rscale>
<asrwt>0</asrwt>
<pdfrwt beam="1">  1        2 0.93357369E-01 0.24654150E+04</pdfrwt>
<pdfrwt beam="2">  1       -2 0.38525188E+00 0.24654150E+04</pdfrwt>
<totfact> 0.40536336E-01</totfact>
</mgrwt>
</event>
<event>
 6    1  0.1831439E-005  0.2241062E+04  0.7818608E-02  0.8501529E-01
          1   -1    0    0  501    0  0.00000000000E+00  0.00000000000E+00  0.17344443927E+04  0.17344443927E+04  0.00000000000E+00 0. -1.
         -1   -1    0    0    0  501 -0.00000000000E+00 -0.00000000000E+00 -0.72391446862E+03  0.72391446862E+03  0.00000000000E+00 0.  1.
         23    2    1    2    0    0  0.92542255226E+03  0.62883602871E+03  0.52706543475E+03  0.12395153260E+04  0.82210824151E+02 0.  0.
         13    1    3    3    0    0  0.53082610596E+03  0.34536536255E+03  0.34086399131E+03  0.71919527875E+03  0.00000000000E+00 0. -1.
        -13    1    3    3    0    0  0.39459644630E+03  0.28347066616E+03  0.18620144345E+03  0.52032004723E+03  0.00000000000E+00 0.  1.
         22    1    1    2    0    0 -0.92542255226E+03 -0.62883602871E+03  0.48346448936E+03  0.12188435354E+04  0.00000000000E+00 0.  1.
<mgrwt>
<rscale>  0 0.22410617E+04</rscale>
<asrwt>0</asrwt>
<pdfrwt beam="1">  1        1 0.26683760E+00 0.22410617E+04</pdfrwt>
<pdfrwt beam="2">  1       -1 0.11137146E+00 0.22410617E+04</pdfrwt>
<totfact> 0.30393823E+00</totfact>
</mgrwt>
</event>
<event>
 6    1  0.1831439E-005  0.1180843E+04  0.7818608E-02  0.9129792E-01
          2   -1    0    0  501    0  0.00000000000E+00  0.00000000000E+00  0.81740241457E+03  0.81740241457E+03  0.00000000000E+00 0. -1.
         -2   -1    0    0    0  501 -0.00000000000E+00 -0.00000000000E+00 -0.42646979201E+03  0.42646979201E+03  0.00000000000E+00 0.  1.
         23    2    1    2    0    0 -0.57798856822E+02  0.31328366602E+03  0.71615028633E+03  0.78862074632E+03  0.86971752105E+02 0.  0.
         11    1    3    3    0    0 -0.74792596395E+02  0.16843443525E+03  0.40906107610E+03  0.44865917514E+03  0.00000000000E+00 0. -1.
        -11    1    3    3    0    0  0.16993739573E+02  0.14484923077E+03  0.30708921023E+03  0.33996157118E+03  0.00000000000E+00 0.  1.
         22    1    1    2    0    0  0.57798856822E+02 -0.31328366602E+03 -0.32521766377E+03  0.45525146026E+03  0.00000000000E+00 0.  1.
<mgrwt>
<rscale>  0 0.11808428E+04</rscale>
<asrwt>0</asrwt>
<pdfrwt beam="1">  1        2 0.12575422E+00 0.11808428E+04</pdfrwt>
<pdfrwt beam="2">  1       -2 0.65610737E-01 0.11808428E+04</pdfrwt>
<totfact> 0.70772782E+01</totfact>
</mgrwt>
</event>
<event>
 6    1  0.1831439E-005  0.1722303E+04  0.7818608E-02  0.8748746E-01
          2   -1    0    0  501    0  0.00000000000E+00  0.00000000000E+00  0.17231496057E+04  0.17231496057E+04  0.00000000000E+00 0. -1.
         -2   -1    0    0    0  501 -0.00000000000E+00 -0.00000000000E+00 -0.43036404571E+03  0.43036404571E+03  0.00000000000E+00 0.  1.
         23    2    1    2    0    0 -0.57639470176E+03  0.45865980688E+03  0.95629165915E+02  0.74788813138E+03  0.87132364914E+02 0.  0.
         13    1    3    3    0    0 -0.29186997852E+03  0.26215167696E+03  0.87751287276E+02  0.40200979405E+03  0.00000000000E+00 0.  1.
        -13    1    3    3    0    0 -0.28452472324E+03  0.19650812992E+03  0.78778786386E+01  0.34587833733E+03  0.00000000000E+00 0. -1.
         22    1    1    2    0    0  0.57639470176E+03 -0.45865980688E+03  0.11971563941E+04  0.14056255200E+04  0.00000000000E+00 0. -1.
<mgrwt>
<rscale>  0 0.17223027E+04</rscale>
<asrwt>0</asrwt>
<pdfrwt beam="1">  1        2 0.26509994E+00 0.17223027E+04</pdfrwt>
<pdfrwt beam="2">  1       -2 0.66209854E-01 0.17223027E+04</pdfrwt>
<totfact> 0.18970817E+01</totfact>
</mgrwt>
</event>
<event>
 6    1  0.1831439E-005  0.2018590E+04  0.7818608E-02  0.8597978E-01
         -2   -1    0    0    0  501 -0.00000000000E+00  0.00000000000E+00  0.84982644370E+03  0.84982644370E+03  0.00000000000E+00 0.  1.
          2   -1    0    0  501    0  0.00000000000E+00 -0.00000000000E+00 -0.11986877513E+04  0.11986877513E+04  0.00000000000E+00 0. -1.
         23    2    1    2    0    0 -0.62059963267E+03 -0.24565876850E+01 -0.97995940242E+03  0.11633957034E+04  0.89549948950E+02 0.  0.
         11    1    3    3    0    0 -0.54286886968E+03  0.13364858085E+02 -0.89735297932E+03  0.10488696766E+04  0.00000000000E+00 0. -1.
        -11    1    3    3    0    0 -0.77730762995E+02 -0.15821445770E+02 -0.82606423106E+02  0.11452602674E+03  0.00000000000E+00 0.  1.
         22    1    1    2    0    0  0.62059963267E+03  0.24565876850E+01  0.63109809482E+03  0.88511849161E+03  0.00000000000E+00 0.  1.
<mgrwt>
<rscale>  0 0.20185902E+04</rscale>
<asrwt>0</asrwt>
<pdfrwt beam="1">  1        2 0.18441350E+00 0.20185902E+04</pdfrwt>
<pdfrwt beam="2">  1       -2 0.13074253E+00 0.20185902E+04</pdfrwt>
<totfact> 0.75362012E+00</totfact>
</mgrwt>
</event>
<event>
 6    1  0.1831439E-005  0.5120668E+04  0.7818608E-02  0.7810158E-01
         -1   -1    0    0    0  501 -0.00000000000E+00  0.00000000000E+00  0.42057046645E+04  0.42057046645E+04  0.00000000000E+00 0.  1.
          1   -1    0    0  501    0  0.00000000000E+00 -0.00000000000E+00 -0.15586711197E+04  0.15586711197E+04  0.00000000000E+00 0. -1.
         23    2    1    2    0    0 -0.20043543901E+04 -0.14931849017E+04  0.19447881530E+04  0.31681889146E+04  0.90456435224E+02 0.  0.
         13    1    3    3    0    0 -0.19384010222E+04 -0.14605911148E+04  0.18777642244E+04  0.30686680189E+04  0.00000000000E+00 0.  1.
        -13    1    3    3    0    0 -0.65953367856E+02 -0.32593786882E+02  0.67023928610E+02  0.99520895701E+02  0.00000000000E+00 0. -1.
         22    1    1    2    0    0  0.20043543901E+04  0.14931849017E+04  0.70224539187E+03  0.25961868697E+04  0.00000000000E+00 0. -1.
<mgrwt>
<rscale>  0 0.51206681E+04</rscale>
<asrwt>0</asrwt>
<pdfrwt beam="1">  1        1 0.23979556E+00 0.51206681E+04</pdfrwt>
<pdfrwt beam="2">  1       -1 0.64703148E+00 0.51206681E+04</pdfrwt>
<totfact> 0.12912684E-03</totfact>
</mgrwt>
</event>
<event>
 6    1  0.1831439E-005  0.1115136E+04  0.7818608E-02  0.9190563E-01
          2   -1    0    0  501    0  0.00000000000E+00  0.00000000000E+00  0.12310344578E+04  0.12310344578E+04  0.00000000000E+00 0.  1.
         -2   -1    0    0    0  501 -0.00000000000E+00 -0.00000000000E+00 -0.25253746357E+03  0.25253746357E+03  0.00000000000E+00 0. -1.
         23    2    1    2    0    0  0.18137503927E+03  0.35359629066E+03  0.10056147157E+04  0.10852471638E+04  0.92591622822E+02 0.  0.
         13    1    3    3    0    0  0.76239432088E+02  0.19162446825E+03  0.63009517043E+03  0.66298741439E+03  0.00000000000E+00 0.  1.
        -13    1    3    3    0    0  0.10513560718E+03  0.16197182241E+03  0.37551954524E+03  0.42225974946E+03  0.00000000000E+00 0. -1.
         22    1    1    2    0    0 -0.18137503927E+03 -0.35359629066E+03 -0.27117721447E+02  0.39832475752E+03  0.00000000000E+00 0. -1.
<mgrwt>
<rscale>  0 0.11151364E+04</rscale>
<asrwt>0</asrwt>
<pdfrwt beam="1">  1        2 0.18938991E+00 0.11151364E+04</pdfrwt>
<pdfrwt beam="2">  1       -2 0.38851918E-01 0.11151364E+04</pdfrwt>
<totfact> 0.11263585E+02</totfact>
</mgrwt>
</event>
<event>
 6    1  0.1831439E-005  0.3878955E+04  0.7818608E-02  0.8029420E-01
          2   -1    0    0  501    0  0.00000000000E+00  0.00000000000E+00  0.28536208990E+04  0.28536208990E+04  0.00000000000E+00 0. -1.
         -2   -1    0    0    0  501 -0.00000000000E+00 -0.00000000000E+00 -0.13181757688E+04  0.13181757688E+04  0.00000000000E+00 0.  1.
         23    2    1    2    0    0  0.59210290571E+03 -0.38574418588E+03  0.27093877217E+04  0.28015683525E+04  0.92838458480E+02 0.  0.
         13    1    3    3    0    0  0.44156789957E+03 -0.25537981639E+03  0.20677094044E+04  0.21297002704E+04  0.00000000000E+00 0. -1.
        -13    1    3    3    0    0  0.15053500613E+03 -0.13036436949E+03  0.64167831730E+03  0.67186808214E+03  0.00000000000E+00 0.  1.
         22    1    1    2    0    0 -0.59210290571E+03  0.38574418588E+03 -0.11739425915E+04  0.13702283153E+04  0.00000000000E+00 0.  1.
<mgrwt>
<rscale>  0 0.38789555E+04</rscale>
<asrwt>0</asrwt>
<pdfrwt beam="1">  1        2 0.43901860E+00 0.38789555E+04</pdfrwt>
<pdfrwt beam="2">  1       -2 0.20279627E+00 0.38789555E+04</pdfrwt>
<totfact> 0.21780957E-01</totfact>
</mgrwt>
</event>
<event>
 6    1  0.1831439E-005  0.3024910E+04  0.7818608E-02  0.8236653E-01
          1   -1    0    0  501    0  0.00000000000E+00  0.00000000000E+00  0.23099984037E+04  0.23099984037E+04  0.00000000000E+00 0. -1.
         -1   -1    0    0    0  501 -0.00000000000E+00 -0.00000000000E+00 -0.99026926481E+03  0.99026926481E+03  0.00000000000E+00 0.  1.
         23    2    1    2    0    0  0.19119582481E+03 -0.56884151068E+03 -0.85259608016E+03  0.10465743963E+04  0.90892153043E+02 0.  0.
         11    1    3    3    0    0  0.13224771270E+03 -0.25113694375E+03 -0.39761137366E+03  0.48852228864E+03  0.00000000000E+00 0. -1.
        -11    1    3    3    0    0  0.58948112103E+02 -0.31770456693E+03 -0.45498470650E+03  0.55805210771E+03  0.00000000000E+00 0.  1.
         22    1    1    2    0    0 -0.19119582481E+03  0.56884151068E+03  0.21723252191E+04  0.22536932722E+04  0.00000000000E+00 0. -1.
<mgrwt>
<rscale>  0 0.30249102E+04</rscale>
<asrwt>0</asrwt>
<pdfrwt beam="1">  1        1 0.35538437E+00 0.30249102E+04</pdfrwt>
<pdfrwt beam="2">  1       -1 0.15234912E+00 0.30249102E+04</pdfrwt>
<totfact> 0.52033266E-01</totfact>
</mgrwt>
</event>
<event>
 6    1  0.1831439E-005  0.4996309E+04  0.7818608E-02  0.7829077E-01
         -2   -1    0    0    0  501 -0.00000000000E+00  0.00000000000E+00  0.21756920691E+04  0.21756920691E+04  0.00000000000E+00 0.  1.
          2   -1    0    0  501    0  0.00000000000E+00 -0.00000000000E+00 -0.28684098049E+04  0.28684098049E+04  0.00000000000E+00 0. -1.
         23    2    1    2    0    0 -0.21759264295E+04  0.65671895804E+03  0.69837795678E+03  0.23793161710E+04  0.86475747581E+02 0.  0.
         11    1    3    3    0    0 -0.14600249529E+04  0.47598386953E+03  0.44828028537E+03  0.15997464553E+04  0.00000000000E+00 0.  1.
        -11    1    3    3    0    0 -0.71590147661E+03  0.18073508851E+03  0.25009767141E+03  0.77956971572E+03  0.00000000000E+00 0. -1.
         22    1    1    2    0    0  0.21759264295E+04 -0.65671895804E+03 -0.13910956926E+04  0.26647857029E+04  0.00000000000E+00 0. -1.
<mgrwt>
<rscale>  0 0.49963092E+04</rscale>
<asrwt>0</asrwt>
<pdfrwt beam="1">  1        2 0.44129381E+00 0.49963092E+04</pdfrwt>
<pdfrwt beam="2">  1       -2 0.33472186E+00 0.49963092E+04</pdfrwt>
<totfact> 0.29672937E-02</totfact>
</mgrwt>
</event>
<event>
 6    1  0.1831439E-005  0.1373210E+04  0.7818608E-02  0.8973442E-01
         -1   -1    0    0    0  501 -0.00000000000E+00  0.00000000000E+00  0.33585763766E+03  0.33585763766E+03  0.00000000000E+00 0. -1.
          1   -1    0    0  501    0  0.00000000000E+00 -0.00000000000E+00 -0.14036500105E+04  0.14036500105E+04  0.00000000000E+00 0.  1.
         23    2    1    2    0    0  0.33578203614E+03 -0.57541041828E+03 -0.34318895475E+03  0.75518207257E+03  0.93137418892E+02 0.  0.
         11    1    3    3    0    0  0.13855694502E+03 -0.28317184776E+03 -0.20747820071E+03  0.37740101504E+03  0.00000000000E+00 0.  1.
        -11    1    3    3    0    0  0.19722509112E+03 -0.29223857052E+03 -0.13571075404E+03  0.37778105753E+03  0.00000000000E+00 0. -1.
         22    1    1    2    0    0 -0.33578203614E+03  0.57541041828E+03 -0.72460341806E+03  0.98432557557E+03  0.00000000000E+00 0.  1.
<mgrwt>
<rscale>  0 0.13732102E+04</rscale>
<asrwt>0</asrwt>
<pdfrwt beam="1">  1        1 0.21594615E+00 0.13732102E+04</pdfrwt>
<pdfrwt beam="2">  1       -1 0.51670406E-01 0.13732102E+04</pdfrwt>
<totfact> 0.28125398E+01</totfact>
</mgrwt>
</event>
<event>
 6    1  0.1831439E-005  0.1127191E+04  0.7818608E-02  0.9179088E-01
         -2   -1    0    0    0  501 -0.00000000000E+00  0.00000000000E+00  0.38187450121E+03  0.38187450121E+03  0.00000000000E+00 0. -1.
          2   -1    0    0  501    0  0.00000000000E+00 -0.00000000000E+00 -0.83179122769E+03  0.83179122769E+03  0.00000000000E+00 0.  1.
         23    2    1    2    0    0  0.35200421632E+02  0.34030700252E+03 -0.70355967298E+03  0.78777528530E+03  0.92443285471E+02 0.  0.
         13    1    3    3    0    0 -0.29002615514E+02  0.82684138101E+02 -0.20461682212E+03  0.22258899859E+03  0.00000000000E+00 0.  1.
        -13    1    3    3    0    0  0.64203037146E+02  0.25762286442E+03 -0.49894285086E+03  0.56518628671E+03  0.00000000000E+00 0. -1.
         22    1    1    2    0    0 -0.35200421632E+02 -0.34030700252E+03  0.25364294650E+03  0.42589044361E+03  0.00000000000E+00 0. -1.
<mgrwt>
<rscale>  0 0.11271910E+04</rscale>
<asrwt>0</asrwt>
<pdfrwt beam="1">  1        2 0.12796788E+00 0.11271910E+04</pdfrwt>
<pdfrwt beam="2">  1       -2 0.58749924E-01 0.11271910E+04</pdfrwt>
<totfact> 0.87761484E+01</totfact>
</mgrwt>
</event>
<event>
 6    1  0.1831439E-005  0.1337075E+04  0.7818608E-02  0.9000670E-01
          2   -1    0    0  501    0  0.00000000000E+00  0.00000000000E+00  0.26546511972E+04  0.26546511972E+04  0.00000000000E+00 0.  1.
         -2   -1    0    0    0  501 -0.00000000000E+00 -0.00000000000E+00 -0.16836210832E+03  0.16836210832E+03  0.00000000000E+00 0. -1.
         23    2    1    2    0    0 -0.70001384608E+02  0.65758691883E+03  0.10920444386E+04  0.12798869677E+04  0.90712978890E+02 0.  0.
         13    1    3    3    0    0 -0.40586806600E+02  0.12749616451E+03  0.26950672221E+03  0.30089272864E+03  0.00000000000E+00 0.  1.
        -13    1    3    3    0    0 -0.29414578008E+02  0.53009075431E+03  0.82253771641E+03  0.97899423907E+03  0.00000000000E+00 0. -1.
         22    1    1    2    0    0  0.70001384608E+02 -0.65758691883E+03  0.13942446503E+04  0.15431263378E+04  0.00000000000E+00 0. -1.
<mgrwt>
<rscale>  0 0.13370754E+04</rscale>
<asrwt>0</asrwt>
<pdfrwt beam="1">  1        2 0.40840785E+00 0.13370754E+04</pdfrwt>
<pdfrwt beam="2">  1       -2 0.25901865E-01 0.13370754E+04</pdfrwt>
<totfact> 0.37375588E+01</totfact>
</mgrwt>
</event>
<event>
 6    1  0.1831439E-005  0.1171860E+04  0.7818608E-02  0.9137851E-01
         -2   -1    0    0    0  501 -0.00000000000E+00  0.00000000000E+00  0.11597752112E+04  0.11597752112E+04  0.00000000000E+00 0.  1.
          2   -1    0    0  501    0  0.00000000000E+00 -0.00000000000E+00 -0.29601748514E+03  0.29601748514E+03  0.00000000000E+00 0. -1.
         23    2    1    2    0    0  0.25209745464E+03 -0.25943375958E+03  0.10014572026E+04  0.10687266192E+04  0.91657272717E+02 0.  0.
         11    1    3    3    0    0  0.24377393755E+03 -0.26605517592E+03  0.95095919787E+03  0.10171206837E+04  0.00000000000E+00 0.  1.
        -11    1    3    3    0    0  0.83235170928E+01  0.66214163373E+01  0.50498004715E+02  0.51605935427E+02  0.00000000000E+00 0. -1.
         22    1    1    2    0    0 -0.25209745464E+03  0.25943375958E+03 -0.13769947654E+03  0.38706607716E+03  0.00000000000E+00 0. -1.
<mgrwt>
<rscale>  0 0.11718596E+04</rscale>
<asrwt>0</asrwt>
<pdfrwt beam="1">  1        2 0.45541152E-01 0.11718596E+04</pdfrwt>
<pdfrwt beam="2">  1       -2 0.17842695E+00 0.11718596E+04</pdfrwt>
<totfact> 0.20461221E+01</totfact>
</mgrwt>
</event>
<event>
 6    1  0.1831439E-005  0.2106303E+04  0.7818608E-02  0.8558472E-01
         -2   -1    0    0    0  501 -0.00000000000E+00  0.00000000000E+00  0.54371622430E+03  0.54371622430E+03  0.00000000000E+00 0.  1.
          2   -1    0    0  501    0  0.00000000000E+00 -0.00000000000E+00 -0.20399025742E+04  0.20399025742E+04  0.00000000000E+00 0. -1.
         23    2    1    2    0    0  0.99839825337E+02 -0.63305321166E+03  0.27258700603E+03  0.70232043189E+03  0.90697043417E+02 0.  0.
         13    1    3    3    0    0  0.67331111895E+01 -0.33146675286E+03  0.14572133237E+03  0.36214672405E+03  0.00000000000E+00 0.  1.
        -13    1    3    3    0    0  0.93106714147E+02 -0.30158645880E+03  0.12686567366E+03  0.34017370784E+03  0.00000000000E+00 0. -1.
         22    1    1    2    0    0 -0.99839825337E+02  0.63305321166E+03 -0.17687733559E+04  0.18812983666E+04  0.00000000000E+00 0. -1.
<mgrwt>
<rscale>  0 0.21063030E+04</rscale>
<asrwt>0</asrwt>
<pdfrwt beam="1">  1        2 0.31383117E+00 0.21063030E+04</pdfrwt>
<pdfrwt beam="2">  1       -2 0.83648648E-01 0.21063030E+04</pdfrwt>
<totfact> 0.73058842E+00</totfact>
</mgrwt>
</event>
<event>
 6    1  0.2154758E-005  0.3135304E+04  0.7818608E-02  0.8206115E-01
          1   -1    0    0  501    0  0.00000000000E+00  0.00000000000E+00  0.15988362902E+04  0.15988362902E+04  0.00000000000E+00 0. -1.
         -1   -1    0    0    0  501 -0.00000000000E+00 -0.00000000000E+00 -0.15370762660E+04  0.15370762660E+04  0.00000000000E+00 0.  1.
         23    2    1    2    0    0  0.11669118787E+03  0.10225842832E+04  0.12121639794E+04  0.15923048634E+04  0.82448865227E+02 0.  0.
         11    1    3    3    0    0  0.68529525743E+02  0.52579493064E+03  0.56210808954E+03  0.77273676586E+03  0.00000000000E+00 0. -1.
        -11    1    3    3    0    0  0.48161662125E+02  0.49678935260E+03  0.65005588982E+03  0.81956809750E+03  0.00000000000E+00 0.  1.
         22    1    1    2    0    0 -0.11669118787E+03 -0.10225842832E+04 -0.11504039551E+04  0.15436076929E+04  0.00000000000E+00 0.  1.
<mgrwt>
<rscale>  0 0.31353043E+04</rscale>
<asrwt>0</asrwt>
<pdfrwt beam="1">  1        1 0.24597481E+00 0.31353043E+04</pdfrwt>
<pdfrwt beam="2">  1       -1 0.23647327E+00 0.31353043E+04</pdfrwt>
<totfact> 0.40226026E-01</totfact>
</mgrwt>
</event>
<event>
 6    1  0.1831439E-005  0.2570958E+04  0.7818608E-02  0.8378133E-01
         -1   -1    0    0    0  501 -0.00000000000E+00  0.00000000000E+00  0.46440844123E+03  0.46440844123E+03  0.00000000000E+00 0.  1.
          1   -1    0    0  501    0  0.00000000000E+00 -0.00000000000E+00 -0.35581963029E+04  0.35581963029E+04  0.00000000000E+00 0. -1.
         23    2    1    2    0    0  0.59953751866E+03  0.36539051033E+03 -0.32305855891E+04  0.33072942664E+04  0.92502188752E+02 0.  0.
         13    1    3    3    0    0  0.31240167336E+03  0.16150937996E+03 -0.14314941901E+04  0.14740609558E+04  0.00000000000E+00 0. -1.
        -13    1    3    3    0    0  0.28713584530E+03  0.20388113037E+03 -0.17990913991E+04  0.18332333106E+04  0.00000000000E+00 0.  1.
         22    1    1    2    0    0 -0.59953751866E+03 -0.36539051033E+03  0.13679772740E+03  0.71531047772E+03  0.00000000000E+00 0.  1.
<mgrwt>
<rscale>  0 0.25709581E+04</rscale>
<asrwt>0</asrwt>
<pdfrwt beam="1">  1        1 0.54741481E+00 0.25709581E+04</pdfrwt>
<pdfrwt beam="2">  1       -1 0.71447454E-01 0.25709581E+04</pdfrwt>
<totfact> 0.39268544E-01</totfact>
</mgrwt>
</event>
<event>
 6    1  0.1831439E-005  0.2279283E+04  0.7818608E-02  0.8486134E-01
          1   -1    0    0  501    0  0.00000000000E+00  0.00000000000E+00  0.15273552923E+04  0.15273552923E+04  0.00000000000E+00 0. -1.
         -1   -1    0    0    0  501 -0.00000000000E+00 -0.00000000000E+00 -0.85034776075E+03  0.85034776075E+03  0.00000000000E+00 0.  1.
         23    2    1    2    0    0  0.68523200290E+03  0.75455435229E+03 -0.18856410999E+03  0.10405009610E+04  0.90502253628E+02 0.  0.
         11    1    3    3    0    0  0.25510694091E+03  0.21788566575E+03 -0.64619192194E+02  0.34165677900E+03  0.00000000000E+00 0.  1.
        -11    1    3    3    0    0  0.43012506199E+03  0.53666868654E+03 -0.12394491779E+03  0.69884418200E+03  0.00000000000E+00 0. -1.
         22    1    1    2    0    0 -0.68523200290E+03 -0.75455435229E+03  0.86557164158E+03  0.13372020921E+04  0.00000000000E+00 0. -1.
<mgrwt>
<rscale>  0 0.22792834E+04</rscale>
<asrwt>0</asrwt>
<pdfrwt beam="1">  1        1 0.23497774E+00 0.22792834E+04</pdfrwt>
<pdfrwt beam="2">  1       -1 0.13082273E+00 0.22792834E+04</pdfrwt>
<totfact> 0.28301950E+00</totfact>
</mgrwt>
</event>
<event>
 6    1  0.1831439E-005  0.2324368E+04  0.7818608E-02  0.8468375E-01
         -1   -1    0    0    0  501 -0.00000000000E+00  0.00000000000E+00  0.11321386068E+04  0.11321386068E+04  0.00000000000E+00 0.  1.
          1   -1    0    0  501    0  0.00000000000E+00 -0.00000000000E+00 -0.11930267065E+04  0.11930267065E+04  0.00000000000E+00 0. -1.
         23    2    1    2    0    0  0.94354045185E+03  0.17568010500E+03 -0.68295016061E+03  0.11814462520E+04  0.90896869867E+02 0.  0.
         13    1    3    3    0    0  0.50615170116E+03  0.69892483299E+02 -0.41021026209E+03  0.65524572714E+03  0.00000000000E+00 0. -1.
        -13    1    3    3    0    0  0.43738875069E+03  0.10578762170E+03 -0.27273989852E+03  0.52620052488E+03  0.00000000000E+00 0.  1.
         22    1    1    2    0    0 -0.94354045185E+03 -0.17568010500E+03  0.62206206092E+03  0.11437190613E+04  0.00000000000E+00 0. -1.
<mgrwt>
<rscale>  0 0.23243680E+04</rscale>
<asrwt>0</asrwt>
<pdfrwt beam="1">  1        1 0.18354257E+00 0.23243680E+04</pdfrwt>
<pdfrwt beam="2">  1       -1 0.17417517E+00 0.23243680E+04</pdfrwt>
<totfact> 0.22367676E+00</totfact>
</mgrwt>
</event>
<event>
 6    1  0.1831439E-005  0.1698428E+04  0.7818608E-02  0.8762261E-01
         -1   -1    0    0    0  501 -0.00000000000E+00  0.00000000000E+00  0.15276562247E+04  0.15276562247E+04  0.00000000000E+00 0.  1.
          1   -1    0    0  501    0  0.00000000000E+00 -0.00000000000E+00 -0.47207261152E+03  0.47207261152E+03  0.00000000000E+00 0. -1.
         23    2    1    2    0    0 -0.74573195625E+03 -0.13340024350E+03  0.82702459223E+02  0.76667996644E+03  0.83944616466E+02 0.  0.
         13    1    3    3    0    0 -0.50437544307E+03 -0.12972386576E+03  0.53282476526E+02  0.52350920834E+03  0.00000000000E+00 0.  1.
        -13    1    3    3    0    0 -0.24135651319E+03 -0.36763777459E+01  0.29419982697E+02  0.24317075810E+03  0.00000000000E+00 0. -1.
         22    1    1    2    0    0  0.74573195625E+03  0.13340024350E+03  0.97288115397E+03  0.12330488698E+04  0.00000000000E+00 0.  1.
<mgrwt>
<rscale>  0 0.16984283E+04</rscale>
<asrwt>0</asrwt>
<pdfrwt beam="1">  1        1 0.72626556E-01 0.16984283E+04</pdfrwt>
<pdfrwt beam="2">  1       -1 0.23502403E+00 0.16984283E+04</pdfrwt>
<totfact> 0.39917225E+00</totfact>
</mgrwt>
</event>
<event>
 6    1  0.1831439E-005  0.2761960E+04  0.7818608E-02  0.8315176E-01
         -2   -1    0    0    0  501 -0.00000000000E+00  0.00000000000E+00  0.10629224586E+04  0.10629224586E+04  0.00000000000E+00 0.  1.
          2   -1    0    0  501    0  0.00000000000E+00 -0.00000000000E+00 -0.17942100295E+04  0.17942100295E+04  0.00000000000E+00 0. -1.
         23    2    1    2    0    0  0.29793349359E+02 -0.12653552741E+04 -0.93363676109E+03  0.15753537209E+04  0.89722521462E+02 0.  0.
         13    1    3    3    0    0  0.15729151389E+01 -0.11510770780E+04 -0.85249323340E+03  0.14323845945E+04  0.00000000000E+00 0.  1.
        -13    1    3    3    0    0  0.28220434220E+02 -0.11427819616E+03 -0.81143527692E+02  0.14296912643E+03  0.00000000000E+00 0. -1.
         22    1    1    2    0    0 -0.29793349359E+02  0.12653552741E+04  0.20234919013E+03  0.12817787672E+04  0.00000000000E+00 0.  1.
<mgrwt>
<rscale>  0 0.27619603E+04</rscale>
<asrwt>0</asrwt>
<pdfrwt beam="1">  1        2 0.27603231E+00 0.27619603E+04</pdfrwt>
<pdfrwt beam="2">  1       -2 0.16352653E+00 0.27619603E+04</pdfrwt>
<totfact> 0.18008641E+00</totfact>
</mgrwt>
</event>
<event>
 6    1  0.1831439E-005  0.2397892E+04  0.7818608E-02  0.8440293E-01
         -2   -1    0    0    0  501 -0.00000000000E+00  0.00000000000E+00  0.68069692143E+03  0.68069692143E+03  0.00000000000E+00 0.  1.
          2   -1    0    0  501    0  0.00000000000E+00 -0.00000000000E+00 -0.21117641902E+04  0.21117641902E+04  0.00000000000E+00 0. -1.
         23    2    1    2    0    0 -0.87050513197E+03  0.39441691858E+03 -0.15562386710E+04  0.18286085449E+04  0.92663470997E+02 0.  0.
         11    1    3    3    0    0 -0.48094841493E+03  0.24810596839E+03 -0.80908180269E+03  0.97338651769E+03  0.00000000000E+00 0.  1.
        -11    1    3    3    0    0 -0.38955671704E+03  0.14631095019E+03 -0.74715686832E+03  0.85522202721E+03  0.00000000000E+00 0. -1.
         22    1    1    2    0    0  0.87050513197E+03 -0.39441691858E+03  0.12517140224E+03  0.96385256673E+03  0.00000000000E+00 0.  1.
<mgrwt>
<rscale>  0 0.23978919E+04</rscale>
<asrwt>0</asrwt>
<pdfrwt beam="1">  1        2 0.32488680E+00 0.23978919E+04</pdfrwt>
<pdfrwt beam="2">  1       -2 0.10472260E+00 0.23978919E+04</pdfrwt>
<totfact> 0.38502844E+00</totfact>
</mgrwt>
</event>
<event>
 6    1  0.1831439E-005  0.9003541E+03  0.7818608E-02  0.9425139E-01
          1   -1    0    0  501    0  0.00000000000E+00  0.00000000000E+00  0.56750135499E+03  0.56750135499E+03  0.00000000000E+00 0. -1.
         -1   -1    0    0    0  501 -0.00000000000E+00 -0.00000000000E+00 -0.35710817453E+03  0.35710817453E+03  0.00000000000E+00 0.  1.
         23    2    1    2    0    0  0.30437075407E+03 -0.31866456816E+03  0.38934838012E+02  0.45176005439E+03  0.91556333457E+02 0.  0.
         13    1    3    3    0    0  0.24084374059E+03 -0.20377939583E+03  0.52337279508E+02  0.31979828075E+03  0.00000000000E+00 0. -1.
        -13    1    3    3    0    0  0.63527013478E+02 -0.11488517233E+03 -0.13402441495E+02  0.13196177363E+03  0.00000000000E+00 0.  1.
         22    1    1    2    0    0 -0.30437075407E+03  0.31866456816E+03  0.17145834245E+03  0.47284947513E+03  0.00000000000E+00 0. -1.
<mgrwt>
<rscale>  0 0.90035409E+03</rscale>
<asrwt>0</asrwt>
<pdfrwt beam="1">  1        1 0.87307901E-01 0.90035409E+03</pdfrwt>
<pdfrwt beam="2">  1       -1 0.54939719E-01 0.90035409E+03</pdfrwt>
<totfact> 0.12519681E+02</totfact>
</mgrwt>
</event>
<event>
 6    1  0.1831439E-005  0.4619141E+03  0.7818608E-02  0.1024228E+00
         -1   -1    0    0    0  501 -0.00000000000E+00  0.00000000000E+00  0.10561601308E+03  0.10561601308E+03  0.00000000000E+00 0.  1.
          1   -1    0    0  501    0  0.00000000000E+00 -0.00000000000E+00 -0.50504801404E+03  0.50504801404E+03  0.00000000000E+00 0. -1.
         23    2    1    2    0    0 -0.98018009092E+02  0.19181074293E+03 -0.13841343211E+03  0.27224182853E+03  0.92511857647E+02 0.  0.
         13    1    3    3    0    0 -0.35133233298E+02  0.16018240720E+03 -0.99385592629E+02  0.19175568748E+03  0.00000000000E+00 0.  1.
        -13    1    3    3    0    0 -0.62884775794E+02  0.31628335736E+02 -0.39027839477E+02  0.80486141058E+02  0.00000000000E+00 0. -1.
         22    1    1    2    0    0  0.98018009092E+02 -0.19181074293E+03 -0.26101856886E+03  0.33842219859E+03  0.00000000000E+00 0. -1.
<mgrwt>
<rscale>  0 0.46191409E+03</rscale>
<asrwt>0</asrwt>
<pdfrwt beam="1">  1        1 0.77699696E-01 0.46191409E+03</pdfrwt>
<pdfrwt beam="2">  1       -1 0.16248617E-01 0.46191409E+03</pdfrwt>
<totfact> 0.12628006E+03</totfact>
</mgrwt>
</event>
<event>
 6    1  0.1831439E-005  0.3435256E+04  0.7818608E-02  0.8129307E-01
         -1   -1    0    0    0  501 -0.00000000000E+00  0.00000000000E+00  0.84535368945E+03  0.84535368945E+03  0.00000000000E+00 0.  1.
          1   -1    0    0  501    0  0.00000000000E+00 -0.00000000000E+00 -0.34899550092E+04  0.34899550092E+04  0.00000000000E+00 0. -1.
         23    2    1    2    0    0 -0.77680872640E+03  0.15222100799E+04 -0.15263152500E+04  0.22929769287E+04  0.86888595545E+02 0.  0.
         11    1    3    3    0    0 -0.33583899492E+03  0.66126462702E+03 -0.60497706917E+03  0.95710814001E+03  0.00000000000E+00 0.  1.
        -11    1    3    3    0    0 -0.44096973148E+03  0.86094545292E+03 -0.92133818088E+03  0.13358687887E+04  0.00000000000E+00 0. -1.
         22    1    1    2    0    0  0.77680872640E+03 -0.15222100799E+04 -0.11182860697E+04  0.20423317700E+04  0.00000000000E+00 0.  1.
<mgrwt>
<rscale>  0 0.34352562E+04</rscale>
<asrwt>0</asrwt>
<pdfrwt beam="1">  1        1 0.53691615E+00 0.34352562E+04</pdfrwt>
<pdfrwt beam="2">  1       -1 0.13005441E+00 0.34352562E+04</pdfrwt>
<totfact> 0.10559979E-01</totfact>
</mgrwt>
</event>
<event>
 6    1  0.1831439E-005  0.2733541E+04  0.7818608E-02  0.8324204E-01
          1   -1    0    0  501    0  0.00000000000E+00  0.00000000000E+00  0.20384365892E+04  0.20384365892E+04  0.00000000000E+00 0. -1.
         -1   -1    0    0    0  501 -0.00000000000E+00 -0.00000000000E+00 -0.91641864098E+03  0.91641864098E+03  0.00000000000E+00 0.  1.
         23    2    1    2    0    0 -0.80844715101E+03 -0.90708131843E+03 -0.11156313706E+03  0.12233513728E+04  0.88084808848E+02 0.  0.
         11    1    3    3    0    0 -0.40430978537E+03 -0.51753762932E+03 -0.71157336972E+02  0.66058683525E+03  0.00000000000E+00 0. -1.
        -11    1    3    3    0    0 -0.40413736564E+03 -0.38954368911E+03 -0.40405800086E+02  0.56276453754E+03  0.00000000000E+00 0.  1.
         22    1    1    2    0    0  0.80844715101E+03  0.90708131843E+03  0.12335810853E+04  0.17315038574E+04  0.00000000000E+00 0. -1.
<mgrwt>
<rscale>  0 0.27335408E+04</rscale>
<asrwt>0</asrwt>
<pdfrwt beam="1">  1        1 0.31360563E+00 0.27335408E+04</pdfrwt>
<pdfrwt beam="2">  1       -1 0.14098748E+00 0.27335408E+04</pdfrwt>
<totfact> 0.10052471E+00</totfact>
</mgrwt>
</event>
<event>
 6    1  0.1831439E-005  0.2357963E+04  0.7818608E-02  0.8455411E-01
         -1   -1    0    0    0  501 -0.00000000000E+00  0.00000000000E+00  0.60882482717E+03  0.60882482717E+03  0.00000000000E+00 0.  1.
          1   -1    0    0  501    0  0.00000000000E+00 -0.00000000000E+00 -0.22830819851E+04  0.22830819851E+04  0.00000000000E+00 0. -1.
         23    2    1    2    0    0 -0.45786491878E+03 -0.68690180085E+03 -0.18676931944E+04  0.20440318992E+04  0.91182063321E+02 0.  0.
         13    1    3    3    0    0 -0.40328826864E+03 -0.56674643315E+03 -0.16288087261E+04  0.17711185204E+04  0.00000000000E+00 0. -1.
        -13    1    3    3    0    0 -0.54576650140E+02 -0.12015536770E+03 -0.23888446829E+03  0.27291337879E+03  0.00000000000E+00 0.  1.
         22    1    1    2    0    0  0.45786491878E+03  0.68690180085E+03  0.19343603655E+03  0.84787491300E+03  0.00000000000E+00 0.  1.
<mgrwt>
<rscale>  0 0.23579627E+04</rscale>
<asrwt>0</asrwt>
<pdfrwt beam="1">  1        1 0.35124339E+00 0.23579627E+04</pdfrwt>
<pdfrwt beam="2">  1       -1 0.93665356E-01 0.23579627E+04</pdfrwt>
<totfact> 0.18997533E+00</totfact>
</mgrwt>
</event>
<event>
 6    1  0.2044801E-005  0.5399815E+04  0.7818608E-02  0.7769627E-01
         -2   -1    0    0    0  501 -0.00000000000E+00  0.00000000000E+00  0.27087183678E+04  0.27087183678E+04  0.00000000000E+00 0.  1.
          2   -1    0    0  501    0  0.00000000000E+00 -0.00000000000E+00 -0.26911250571E+04  0.26911250571E+04  0.00000000000E+00 0. -1.
         23    2    1    2    0    0  0.23390186158E+04  0.13459888181E+04 -0.37068606034E+02  0.27006431899E+04  0.96982340634E+02 0.  0.
         13    1    3    3    0    0  0.14041609795E+04  0.78622337332E+03  0.21576939716E+02  0.16094349361E+04  0.00000000000E+00 0. -1.
        -13    1    3    3    0    0  0.93485763621E+03  0.55976544477E+03 -0.58645545749E+02  0.10912082538E+04  0.00000000000E+00 0.  1.
         22    1    1    2    0    0 -0.23390186158E+04 -0.13459888181E+04  0.54661916742E+02  0.26992002350E+04  0.00000000000E+00 0. -1.
<mgrwt>
<rscale>  0 0.53998148E+04</rscale>
<asrwt>0</asrwt>
<pdfrwt beam="1">  1        2 0.41401924E+00 0.53998148E+04</pdfrwt>
<pdfrwt beam="2">  1       -2 0.41672590E+00 0.53998148E+04</pdfrwt>
<totfact> 0.10943612E-02</totfact>
</mgrwt>
</event>
<event>
 6    1  0.1831439E-005  0.1046249E+04  0.7818608E-02  0.9259225E-01
          1   -1    0    0  501    0  0.00000000000E+00  0.00000000000E+00  0.57072908321E+03  0.57072908321E+03  0.00000000000E+00 0. -1.
         -1   -1    0    0    0  501 -0.00000000000E+00 -0.00000000000E+00 -0.47949063030E+03  0.47949063030E+03  0.00000000000E+00 0.  1.
         23    2    1    2    0    0 -0.23019662432E+03 -0.46529336154E+03  0.55799217736E+02  0.52988872508E+03  0.90443961231E+02 0.  0.
         13    1    3    3    0    0 -0.63602133451E+02 -0.18621844967E+03  0.56997139597E+02  0.20486877824E+03  0.00000000000E+00 0. -1.
        -13    1    3    3    0    0 -0.16659449086E+03 -0.27907491187E+03 -0.11979218617E+01  0.32501994683E+03  0.00000000000E+00 0.  1.
         22    1    1    2    0    0  0.23019662432E+03  0.46529336154E+03  0.35439235172E+02  0.52033098844E+03  0.00000000000E+00 0.  1.
<mgrwt>
<rscale>  0 0.10462490E+04</rscale>
<asrwt>0</asrwt>
<pdfrwt beam="1">  1        1 0.87804475E-01 0.10462490E+04</pdfrwt>
<pdfrwt beam="2">  1       -1 0.73767789E-01 0.10462490E+04</pdfrwt>
<totfact> 0.68144003E+01</totfact>
</mgrwt>
</event>
<event>
 6    1  0.1831439E-005  0.1616287E+04  0.7818608E-02  0.8810605E-01
          2   -1    0    0  501    0  0.00000000000E+00  0.00000000000E+00  0.72749408595E+03  0.72749408595E+03  0.00000000000E+00 0. -1.
         -2   -1    0    0    0  501 -0.00000000000E+00 -0.00000000000E+00 -0.89773326771E+03  0.89773326771E+03  0.00000000000E+00 0.  1.
         23    2    1    2    0    0  0.33520179042E+03  0.71309025716E+03 -0.25440674246E+03  0.83279935477E+03  0.89297365753E+02 0.  0.
         11    1    3    3    0    0  0.28960475698E+03  0.55834972253E+03 -0.17432921881E+03  0.65269901520E+03  0.00000000000E+00 0. -1.
        -11    1    3    3    0    0  0.45597033434E+02  0.15474053463E+03 -0.80077523654E+02  0.18010033956E+03  0.00000000000E+00 0.  1.
         22    1    1    2    0    0 -0.33520179042E+03 -0.71309025716E+03  0.84167560696E+02  0.79242799889E+03  0.00000000000E+00 0. -1.
<mgrwt>
<rscale>  0 0.16162867E+04</rscale>
<asrwt>0</asrwt>
<pdfrwt beam="1">  1        2 0.11192217E+00 0.16162867E+04</pdfrwt>
<pdfrwt beam="2">  1       -2 0.13811281E+00 0.16162867E+04</pdfrwt>
<totfact> 0.13893226E+01</totfact>
</mgrwt>
</event>
<event>
 6    1  0.1831439E-005  0.5965484E+03  0.7818608E-02  0.9912593E-01
          1   -1    0    0  501    0  0.00000000000E+00  0.00000000000E+00  0.92365420773E+03  0.92365420773E+03  0.00000000000E+00 0.  1.
         -1   -1    0    0    0  501 -0.00000000000E+00 -0.00000000000E+00 -0.96321215571E+02  0.96321215571E+02  0.00000000000E+00 0. -1.
         23    2    1    2    0    0 -0.16324108813E+03  0.10925813037E+03  0.79113366802E+03  0.82023713711E+03  0.91167365355E+02 0.  0.
         11    1    3    3    0    0 -0.44489902109E+02  0.23319530568E+02  0.82401210259E+02  0.96504462838E+02  0.00000000000E+00 0. -1.
        -11    1    3    3    0    0 -0.11875118602E+03  0.85938599801E+02  0.70873245776E+03  0.72373267427E+03  0.00000000000E+00 0.  1.
         22    1    1    2    0    0  0.16324108813E+03 -0.10925813037E+03  0.36199324136E+02  0.19973828619E+03  0.00000000000E+00 0. -1.
<mgrwt>
<rscale>  0 0.59654839E+03</rscale>
<asrwt>0</asrwt>
<pdfrwt beam="1">  1        1 0.14210064E+00 0.59654839E+03</pdfrwt>
<pdfrwt beam="2">  1       -1 0.14818649E-01 0.59654839E+03</pdfrwt>
<totfact> 0.59169433E+02</totfact>
</mgrwt>
</event>
<event>
 6    1  0.1831439E-005  0.1143741E+04  0.7818608E-02  0.9163577E-01
         -2   -1    0    0    0  501 -0.00000000000E+00  0.00000000000E+00  0.91114008639E+03  0.91114008639E+03  0.00000000000E+00 0.  1.
          2   -1    0    0  501    0  0.00000000000E+00 -0.00000000000E+00 -0.35893062716E+03  0.35893062716E+03  0.00000000000E+00 0. -1.
         23    2    1    2    0    0  0.27446232069E+02  0.27067305834E+03  0.83187988589E+03  0.87990056130E+03  0.90463545488E+02 0.  0.
         13    1    3    3    0    0  0.13922342117E+02  0.92573142222E+02  0.43069844980E+03  0.44075477641E+03  0.00000000000E+00 0. -1.
        -13    1    3    3    0    0  0.13523889952E+02  0.17809991612E+03  0.40118143609E+03  0.43914578489E+03  0.00000000000E+00 0.  1.
         22    1    1    2    0    0 -0.27446232069E+02 -0.27067305834E+03 -0.27967042665E+03  0.39017015226E+03  0.00000000000E+00 0. -1.
<mgrwt>
<rscale>  0 0.11437414E+04</rscale>
<asrwt>0</asrwt>
<pdfrwt beam="1">  1        2 0.55220097E-01 0.11437414E+04</pdfrwt>
<pdfrwt beam="2">  1       -2 0.14017540E+00 0.11437414E+04</pdfrwt>
<totfact> 0.31816995E+01</totfact>
</mgrwt>
</event>
<event>
 6    1  0.1831439E-005  0.1943258E+04  0.7818608E-02  0.8633619E-01
          1   -1    0    0  501    0  0.00000000000E+00  0.00000000000E+00  0.13528514809E+04  0.13528514809E+04  0.00000000000E+00 0. -1.
         -1   -1    0    0    0  501 -0.00000000000E+00 -0.00000000000E+00 -0.69783164659E+03  0.69783164659E+03  0.00000000000E+00 0.  1.
         23    2    1    2    0    0  0.37428338510E+03 -0.53179222303E+03 -0.43021300166E+03  0.78552648537E+03  0.95276500652E+02 0.  0.
         11    1    3    3    0    0  0.14207949796E+03 -0.13043087424E+03 -0.14286195887E+03  0.24001736602E+03  0.00000000000E+00 0. -1.
        -11    1    3    3    0    0  0.23220388714E+03 -0.40136134879E+03 -0.28735104278E+03  0.54550911935E+03  0.00000000000E+00 0.  1.
         22    1    1    2    0    0 -0.37428338510E+03  0.53179222303E+03  0.10852328359E+04  0.12651566421E+04  0.00000000000E+00 0. -1.
<mgrwt>
<rscale>  0 0.19432577E+04</rscale>
<asrwt>0</asrwt>
<pdfrwt beam="1">  1        1 0.20813100E+00 0.19432577E+04</pdfrwt>
<pdfrwt beam="2">  1       -1 0.10735871E+00 0.19432577E+04</pdfrwt>
<totfact> 0.62493971E+00</totfact>
</mgrwt>
</event>
<event>
 6    1  0.1831439E-005  0.2634515E+04  0.7818608E-02  0.8356571E-01
          1   -1    0    0  501    0  0.00000000000E+00  0.00000000000E+00  0.26240739870E+04  0.26240739870E+04  0.00000000000E+00 0. -1.
         -1   -1    0    0    0  501 -0.00000000000E+00 -0.00000000000E+00 -0.66124946716E+03  0.66124946716E+03  0.00000000000E+00 0.  1.
         23    2    1    2    0    0 -0.18721592922E+03 -0.70598392766E+03  0.23472425780E+04  0.24599505968E+04  0.91357038622E+02 0.  0.
         11    1    3    3    0    0 -0.47682969384E+02 -0.33900650800E+03  0.11613971467E+04  0.12108023829E+04  0.00000000000E+00 0.  1.
        -11    1    3    3    0    0 -0.13953295984E+03 -0.36697741966E+03  0.11858454313E+04  0.12491482139E+04  0.00000000000E+00 0. -1.
         22    1    1    2    0    0  0.18721592922E+03  0.70598392766E+03 -0.38441805814E+03  0.82537285737E+03  0.00000000000E+00 0.  1.
<mgrwt>
<rscale>  0 0.26345152E+04</rscale>
<asrwt>0</asrwt>
<pdfrwt beam="1">  1        1 0.40370369E+00 0.26345152E+04</pdfrwt>
<pdfrwt beam="2">  1       -1 0.10173069E+00 0.26345152E+04</pdfrwt>
<totfact> 0.89255659E-01</totfact>
</mgrwt>
</event>
<event>
 6    1  0.1831439E-005  0.1682796E+04  0.7818608E-02  0.8771238E-01
         -1   -1    0    0    0  501 -0.00000000000E+00  0.00000000000E+00  0.39279513471E+03  0.39279513471E+03  0.00000000000E+00 0.  1.
          1   -1    0    0  501    0  0.00000000000E+00 -0.00000000000E+00 -0.18023410706E+04  0.18023410706E+04  0.00000000000E+00 0. -1.
         23    2    1    2    0    0 -0.72934808554E+03 -0.13346435111E+03 -0.12194500493E+04  0.14296965871E+04  0.84926708019E+02 0.  0.
         11    1    3    3    0    0 -0.61313684427E+02 -0.23428030964E+02 -0.15305273636E+03  0.16653342199E+03  0.00000000000E+00 0.  1.
        -11    1    3    3    0    0 -0.66803440111E+03 -0.11003632015E+03 -0.10663973129E+04  0.12631631652E+04  0.00000000000E+00 0. -1.
         22    1    1    2    0    0  0.72934808554E+03  0.13346435111E+03 -0.19009588658E+03  0.76543961812E+03  0.00000000000E+00 0. -1.
<mgrwt>
<rscale>  0 0.16827962E+04</rscale>
<asrwt>0</asrwt>
<pdfrwt beam="1">  1        1 0.27728323E+00 0.16827962E+04</pdfrwt>
<pdfrwt beam="2">  1       -1 0.60430022E-01 0.16827962E+04</pdfrwt>
<totfact> 0.10742334E+01</totfact>
</mgrwt>
</event>
<event>
 6    1  0.1831439E-005  0.4423287E+04  0.7818608E-02  0.7924206E-01
         -2   -1    0    0    0  501 -0.00000000000E+00  0.00000000000E+00  0.14936269124E+04  0.14936269124E+04  0.00000000000E+00 0.  1.
          2   -1    0    0  501    0  0.00000000000E+00 -0.00000000000E+00 -0.32748250429E+04  0.32748250429E+04  0.00000000000E+00 0. -1.
         23    2    1    2    0    0 -0.12916039955E+04 -0.15325810531E+04 -0.18966250252E+04  0.27608740779E+04  0.90518630425E+02 0.  0.
         11    1    3    3    0    0 -0.48943426171E+03 -0.64442860275E+03 -0.78849492308E+03  0.11298488236E+04  0.00000000000E+00 0.  1.
        -11    1    3    3    0    0 -0.80216973383E+03 -0.88815245031E+03 -0.11081301021E+04  0.16310252543E+04  0.00000000000E+00 0. -1.
         22    1    1    2    0    0  0.12916039955E+04  0.15325810531E+04  0.11542689467E+03  0.20075778773E+04  0.00000000000E+00 0.  1.
<mgrwt>
<rscale>  0 0.44232869E+04</rscale>
<asrwt>0</asrwt>
<pdfrwt beam="1">  1        2 0.50381923E+00 0.44232869E+04</pdfrwt>
<pdfrwt beam="2">  1       -2 0.22978876E+00 0.44232869E+04</pdfrwt>
<totfact> 0.75605033E-02</totfact>
</mgrwt>
</event>
<event>
 6    1  0.1831439E-005  0.6181518E+03  0.7818608E-02  0.9868446E-01
         -1   -1    0    0    0  501 -0.00000000000E+00  0.00000000000E+00  0.64710305647E+02  0.64710305647E+02  0.00000000000E+00 0.  1.
          1   -1    0    0  501    0  0.00000000000E+00 -0.00000000000E+00 -0.14762394340E+04  0.14762394340E+04  0.00000000000E+00 0. -1.
         23    2    1    2    0    0 -0.16020514250E+03 -0.11867362475E+03 -0.12866923766E+04  0.13057193601E+04  0.97860402189E+02 0.  0.
         11    1    3    3    0    0 -0.32138940929E+02  0.12529619864E+02 -0.31481439865E+03  0.31669860830E+03  0.00000000000E+00 0. -1.
        -11    1    3    3    0    0 -0.12806620157E+03 -0.13120324461E+03 -0.97187797799E+03  0.98902075180E+03  0.00000000000E+00 0.  1.
         22    1    1    2    0    0  0.16020514250E+03  0.11867362475E+03 -0.12483675174E+03  0.23523037959E+03  0.00000000000E+00 0.  1.
<mgrwt>
<rscale>  0 0.61815178E+03</rscale>
<asrwt>0</asrwt>
<pdfrwt beam="1">  1        1 0.22711375E+00 0.61815178E+03</pdfrwt>
<pdfrwt beam="2">  1       -1 0.99554322E-02 0.61815178E+03</pdfrwt>
<totfact> 0.44266598E+02</totfact>
</mgrwt>
</event>
<event>
 6    1  0.1831439E-005  0.1393479E+04  0.7818608E-02  0.8958552E-01
          2   -1    0    0  501    0  0.00000000000E+00  0.00000000000E+00  0.14041168597E+04  0.14041168597E+04  0.00000000000E+00 0. -1.
         -2   -1    0    0    0  501 -0.00000000000E+00 -0.00000000000E+00 -0.34573048550E+03  0.34573048550E+03  0.00000000000E+00 0.  1.
         23    2    1    2    0    0  0.67782558380E+02 -0.50274656964E+03 -0.62524396701E+02  0.51948579475E+03  0.92777164537E+02 0.  0.
         11    1    3    3    0    0  0.38507054840E+02 -0.15949832970E+03  0.19857286924E+02  0.16527801516E+03  0.00000000000E+00 0. -1.
        -11    1    3    3    0    0  0.29275503540E+02 -0.34324823994E+03 -0.82381683624E+02  0.35420777960E+03  0.00000000000E+00 0.  1.
         22    1    1    2    0    0 -0.67782558380E+02  0.50274656964E+03  0.11209107709E+04  0.12303615505E+04  0.00000000000E+00 0. -1.
<mgrwt>
<rscale>  0 0.13934791E+04</rscale>
<asrwt>0</asrwt>
<pdfrwt beam="1">  1        2 0.21601798E+00 0.13934791E+04</pdfrwt>
<pdfrwt beam="2">  1       -2 0.53189306E-01 0.13934791E+04</pdfrwt>
<totfact> 0.46695989E+01</totfact>
</mgrwt>
</event>
<event>
 6    1  0.1831439E-005  0.4070689E+04  0.7818608E-02  0.7990436E-01
          1   -1    0    0  501    0  0.00000000000E+00  0.00000000000E+00  0.28025287052E+04  0.28025287052E+04  0.00000000000E+00 0. -1.
         -1   -1    0    0    0  501 -0.00000000000E+00 -0.00000000000E+00 -0.14781749253E+04  0.14781749253E+04  0.00000000000E+00 0.  1.
         23    2    1    2    0    0 -0.56940645246E+03  0.13688755755E+04 -0.80220682484E+03  0.16883487060E+04  0.94559578535E+02 0.  0.
         13    1    3    3    0    0 -0.15088203088E+03  0.42224546981E+03 -0.28491944939E+03  0.53125861561E+03  0.00000000000E+00 0.  1.
        -13    1    3    3    0    0 -0.41852442158E+03  0.94663010568E+03 -0.51728737545E+03  0.11570900904E+04  0.00000000000E+00 0. -1.
         22    1    1    2    0    0  0.56940645246E+03 -0.13688755755E+04  0.21265606047E+04  0.25923549245E+04  0.00000000000E+00 0.  1.
<mgrwt>
<rscale>  0 0.40706892E+04</rscale>
<asrwt>0</asrwt>
<pdfrwt beam="1">  1        1 0.43115826E+00 0.40706892E+04</pdfrwt>
<pdfrwt beam="2">  1       -1 0.22741153E+00 0.40706892E+04</pdfrwt>
<totfact> 0.63407996E-02</totfact>
</mgrwt>
</event>
<event>
 6    1  0.1831439E-005  0.1542540E+04  0.7818608E-02  0.8856647E-01
         -1   -1    0    0    0  501 -0.00000000000E+00  0.00000000000E+00  0.13149318317E+04  0.13149318317E+04  0.00000000000E+00 0.  1.
          1   -1    0    0  501    0  0.00000000000E+00 -0.00000000000E+00 -0.45238658148E+03  0.45238658148E+03  0.00000000000E+00 0. -1.
         23    2    1    2    0    0 -0.46547404056E+03 -0.56089590626E+03  0.15769990545E+03  0.75337696511E+03  0.10694527241E+03 0.  0.
         13    1    3    3    0    0 -0.52270556293E+02 -0.12768328168E+03  0.26297165323E+02  0.14045202875E+03  0.00000000000E+00 0. -1.
        -13    1    3    3    0    0 -0.41320348426E+03 -0.43321262459E+03  0.13140274012E+03  0.61292493637E+03  0.00000000000E+00 0.  1.
         22    1    1    2    0    0  0.46547404056E+03  0.56089590626E+03  0.70484534481E+03  0.10139414481E+04  0.00000000000E+00 0.  1.
<mgrwt>
<rscale>  0 0.15425401E+04</rscale>
<asrwt>0</asrwt>
<pdfrwt beam="1">  1        1 0.69597936E-01 0.15425401E+04</pdfrwt>
<pdfrwt beam="2">  1       -1 0.20229720E+00 0.15425401E+04</pdfrwt>
<totfact> 0.71108529E+00</totfact>
</mgrwt>
</event>
<event>
 6    1  0.1831439E-005  0.1010987E+04  0.7818608E-02  0.9296576E-01
          3   -1    0    0  501    0  0.00000000000E+00  0.00000000000E+00  0.64598951730E+03  0.64598951730E+03  0.00000000000E+00 0. -1.
         -3   -1    0    0    0  501 -0.00000000000E+00 -0.00000000000E+00 -0.39555359059E+03  0.39555359059E+03  0.00000000000E+00 0.  1.
         23    2    1    2    0    0  0.10941652747E+03 -0.47978917585E+03  0.29153800746E+02  0.50197345621E+03  0.94645532897E+02 0.  0.
         13    1    3    3    0    0  0.26685270841E+02 -0.90378930805E+02  0.43106924162E+02  0.10362751432E+03  0.00000000000E+00 0.  1.
        -13    1    3    3    0    0  0.82731256627E+02 -0.38941024504E+03 -0.13953123416E+02  0.39834594189E+03  0.00000000000E+00 0. -1.
         22    1    1    2    0    0 -0.10941652747E+03  0.47978917585E+03  0.22128212596E+03  0.53956965168E+03  0.00000000000E+00 0. -1.
<mgrwt>
<rscale>  0 0.10109866E+04</rscale>
<asrwt>0</asrwt>
<pdfrwt beam="1">  1        3 0.99383003E-01 0.10109866E+04</pdfrwt>
<pdfrwt beam="2">  1       -3 0.60854398E-01 0.10109866E+04</pdfrwt>
<totfact> 0.61177297E+00</totfact>
</mgrwt>
</event>
<event>
 6    1  0.1831439E-005  0.3898633E+04  0.7818608E-02  0.8025313E-01
          2   -1    0    0  501    0  0.00000000000E+00  0.00000000000E+00  0.25224455587E+04  0.25224455587E+04  0.00000000000E+00 0. -1.
         -2   -1    0    0    0  501 -0.00000000000E+00 -0.00000000000E+00 -0.15064093331E+04  0.15064093331E+04  0.00000000000E+00 0.  1.
         23    2    1    2    0    0 -0.52848074357E+03  0.66442698095E+03  0.23203919194E+04  0.24725455122E+04  0.92236331993E+02 0.  0.
         11    1    3    3    0    0 -0.11938768806E+03  0.12612402802E+03  0.38204026805E+03  0.41966112152E+03  0.00000000000E+00 0. -1.
        -11    1    3    3    0    0 -0.40909305551E+03  0.53830295292E+03  0.19383516513E+04  0.20528843906E+04  0.00000000000E+00 0.  1.
         22    1    1    2    0    0  0.52848074357E+03 -0.66442698095E+03 -0.13043556937E+04  0.15563093796E+04  0.00000000000E+00 0.  1.
<mgrwt>
<rscale>  0 0.38986334E+04</rscale>
<asrwt>0</asrwt>
<pdfrwt beam="1">  1        2 0.38806855E+00 0.38986334E+04</pdfrwt>
<pdfrwt beam="2">  1       -2 0.23175528E+00 0.38986334E+04</pdfrwt>
<totfact> 0.22398103E-01</totfact>
</mgrwt>
</event>
<event>
 6    1  0.1831439E-005  0.1220304E+04  0.7818608E-02  0.9095268E-01
         -3   -1    0    0    0  501 -0.00000000000E+00  0.00000000000E+00  0.42850236968E+03  0.42850236968E+03  0.00000000000E+00 0.  1.
          3   -1    0    0  501    0  0.00000000000E+00 -0.00000000000E+00 -0.86880551237E+03  0.86880551237E+03  0.00000000000E+00 0. -1.
         23    2    1    2    0    0 -0.51642217984E+03  0.22207568928E+03 -0.46433632984E+03  0.73464717285E+03  0.89937543692E+02 0.  0.
         13    1    3    3    0    0 -0.33535649998E+03  0.18740383113E+03 -0.33147324258E+03  0.50740387124E+03  0.00000000000E+00 0.  1.
        -13    1    3    3    0    0 -0.18106567986E+03  0.34671858151E+02 -0.13286308726E+03  0.22724330161E+03  0.00000000000E+00 0. -1.
         22    1    1    2    0    0  0.51642217984E+03 -0.22207568928E+03  0.24033187145E+02  0.56266070920E+03  0.00000000000E+00 0. -1.
<mgrwt>
<rscale>  0 0.12203036E+04</rscale>
<asrwt>0</asrwt>
<pdfrwt beam="1">  1        3 0.13366238E+00 0.12203036E+04</pdfrwt>
<pdfrwt beam="2">  1       -3 0.65923443E-01 0.12203036E+04</pdfrwt>
<totfact> 0.24907119E+00</totfact>
</mgrwt>
</event>
<event>
 6    1  0.1831439E-005  0.1865006E+04  0.7818608E-02  0.8672474E-01
         -2   -1    0    0    0  501 -0.00000000000E+00  0.00000000000E+00  0.38107799898E+03  0.38107799898E+03  0.00000000000E+00 0.  1.
          2   -1    0    0  501    0  0.00000000000E+00 -0.00000000000E+00 -0.22818474197E+04  0.22818474197E+04  0.00000000000E+00 0. -1.
         23    2    1    2    0    0  0.31132424472E+03  0.69099322185E+03 -0.18216903859E+03  0.78463319129E+03  0.89829105837E+02 0.  0.
         13    1    3    3    0    0  0.13762411876E+03  0.41340361498E+03 -0.10726644874E+03  0.44871933095E+03  0.00000000000E+00 0. -1.
        -13    1    3    3    0    0  0.17370012595E+03  0.27758960687E+03 -0.74902589857E+02  0.33591386033E+03  0.00000000000E+00 0.  1.
         22    1    1    2    0    0 -0.31132424472E+03 -0.69099322185E+03 -0.17186003821E+04  0.18782922274E+04  0.00000000000E+00 0. -1.
<mgrwt>
<rscale>  0 0.18650060E+04</rscale>
<asrwt>0</asrwt>
<pdfrwt beam="1">  1        2 0.35105345E+00 0.18650060E+04</pdfrwt>
<pdfrwt beam="2">  1       -2 0.58627385E-01 0.18650060E+04</pdfrwt>
<totfact> 0.11861981E+01</totfact>
</mgrwt>
</event>
<event>
 6    1  0.1831439E-005  0.7992674E+03  0.7818608E-02  0.9561078E-01
         -1   -1    0    0    0  501 -0.00000000000E+00  0.00000000000E+00  0.70779499535E+03  0.70779499535E+03  0.00000000000E+00 0.  1.
          1   -1    0    0  501    0  0.00000000000E+00 -0.00000000000E+00 -0.22564030116E+03  0.22564030116E+03  0.00000000000E+00 0. -1.
         23    2    1    2    0    0  0.22277819982E+03 -0.12280533079E+03  0.59679000970E+03  0.65441463214E+03  0.85958824452E+02 0.  0.
         11    1    3    3    0    0  0.15467415849E+03 -0.57430375212E+02  0.45575045255E+03  0.48469662502E+03  0.00000000000E+00 0.  1.
        -11    1    3    3    0    0  0.68104041328E+02 -0.65374955581E+02  0.14103955714E+03  0.16971800712E+03  0.00000000000E+00 0. -1.
         22    1    1    2    0    0 -0.22277819982E+03  0.12280533079E+03 -0.11463531550E+03  0.27902066437E+03  0.00000000000E+00 0.  1.
<mgrwt>
<rscale>  0 0.79926735E+03</rscale>
<asrwt>0</asrwt>
<pdfrwt beam="1">  1        1 0.34713893E-01 0.79926735E+03</pdfrwt>
<pdfrwt beam="2">  1       -1 0.10889154E+00 0.79926735E+03</pdfrwt>
<totfact> 0.10063624E+02</totfact>
</mgrwt>
</event>
<event>
 6    1  0.1831439E-005  0.4287964E+04  0.7818608E-02  0.7948847E-01
          1   -1    0    0  501    0  0.00000000000E+00  0.00000000000E+00  0.30429857757E+04  0.30429857757E+04  0.00000000000E+00 0. -1.
         -1   -1    0    0    0  501 -0.00000000000E+00 -0.00000000000E+00 -0.15105751670E+04  0.15105751670E+04  0.00000000000E+00 0.  1.
         23    2    1    2    0    0  0.24184882602E+03 -0.10483222433E+04  0.27347329664E+04  0.29401640813E+04  0.91269093525E+02 0.  0.
         13    1    3    3    0    0  0.20437451720E+03 -0.83768540870E+03  0.20908425490E+04  0.22616605298E+04  0.00000000000E+00 0.  1.
        -13    1    3    3    0    0  0.37474308820E+02 -0.21063683459E+03  0.64389041737E+03  0.67850355156E+03  0.00000000000E+00 0. -1.
         22    1    1    2    0    0 -0.24184882602E+03  0.10483222433E+04 -0.12023223577E+04  0.16133968614E+04  0.00000000000E+00 0.  1.
<mgrwt>
<rscale>  0 0.42879640E+04</rscale>
<asrwt>0</asrwt>
<pdfrwt beam="1">  1        1 0.46815166E+00 0.42879640E+04</pdfrwt>
<pdfrwt beam="2">  1       -1 0.23239618E+00 0.42879640E+04</pdfrwt>
<totfact> 0.38660866E-02</totfact>
</mgrwt>
</event>
<event>
 6    1  0.1831439E-005  0.1797088E+04  0.7818608E-02  0.8707850E-01
         -1   -1    0    0    0  501 -0.00000000000E+00  0.00000000000E+00  0.31466018436E+03  0.31466018436E+03  0.00000000000E+00 0.  1.
          1   -1    0    0  501    0  0.00000000000E+00 -0.00000000000E+00 -0.25658831089E+04  0.25658831089E+04  0.00000000000E+00 0. -1.
         23    2    1    2    0    0 -0.16588961955E+03 -0.55054931763E+03 -0.22303587481E+04  0.23051658251E+04  0.93088231367E+02 0.  0.
         13    1    3    3    0    0 -0.87353673985E+02 -0.24798820019E+03 -0.11984090743E+04  0.12269120267E+04  0.00000000000E+00 0.  1.
        -13    1    3    3    0    0 -0.78535945561E+02 -0.30256111743E+03 -0.10319496738E+04  0.10782537984E+04  0.00000000000E+00 0. -1.
         22    1    1    2    0    0  0.16588961955E+03  0.55054931763E+03 -0.20864176415E+02  0.57537746816E+03  0.00000000000E+00 0.  1.
<mgrwt>
<rscale>  0 0.17970879E+04</rscale>
<asrwt>0</asrwt>
<pdfrwt beam="1">  1        1 0.39475125E+00 0.17970879E+04</pdfrwt>
<pdfrwt beam="2">  1       -1 0.48409259E-01 0.17970879E+04</pdfrwt>
<totfact> 0.49172532E+00</totfact>
</mgrwt>
</event>
<event>
 6    1  0.1831439E-005  0.5102750E+03  0.7818608E-02  0.1011131E+00
          2   -1    0    0  501    0  0.00000000000E+00  0.00000000000E+00  0.23470196962E+04  0.23470196962E+04  0.00000000000E+00 0.  1.
         -2   -1    0    0    0  501 -0.00000000000E+00 -0.00000000000E+00 -0.27735235103E+02  0.27735235103E+02  0.00000000000E+00 0. -1.
         23    2    1    2    0    0  0.20968337517E+03  0.82402525998E+02  0.16668949010E+04  0.16845597182E+04  0.91899613590E+02 0.  0.
         13    1    3    3    0    0  0.16497728284E+03  0.43737471811E+02  0.94820812143E+03  0.96344647586E+03  0.00000000000E+00 0. -1.
        -13    1    3    3    0    0  0.44706092324E+02  0.38665054187E+02  0.71868677959E+03  0.72111324233E+03  0.00000000000E+00 0.  1.
         22    1    1    2    0    0 -0.20968337517E+03 -0.82402525998E+02  0.65238956010E+03  0.69019521314E+03  0.00000000000E+00 0. -1.
<mgrwt>
<rscale>  0 0.51027500E+03</rscale>
<asrwt>0</asrwt>
<pdfrwt beam="1">  1        2 0.36107980E+00 0.51027500E+03</pdfrwt>
<pdfrwt beam="2">  1       -2 0.42669611E-02 0.51027500E+03</pdfrwt>
<totfact> 0.11820628E+03</totfact>
</mgrwt>
</event>
<event>
 6    1  0.1831439E-005  0.1281883E+04  0.7818608E-02  0.9044057E-01
          2   -1    0    0  501    0  0.00000000000E+00  0.00000000000E+00  0.92861272009E+03  0.92861272009E+03  0.00000000000E+00 0. -1.
         -2   -1    0    0    0  501 -0.00000000000E+00 -0.00000000000E+00 -0.44238692909E+03  0.44238692909E+03  0.00000000000E+00 0.  1.
         23    2    1    2    0    0  0.37108965262E+03  0.18928457669E+02 -0.31004018367E+03  0.49230441236E+03  0.90404104724E+02 0.  0.
         13    1    3    3    0    0  0.32526649315E+03  0.11628409802E+02 -0.22579976172E+03  0.39613008453E+03  0.00000000000E+00 0. -1.
        -13    1    3    3    0    0  0.45823159469E+02  0.73000478670E+01 -0.84240421954E+02  0.96174327830E+02  0.00000000000E+00 0.  1.
         22    1    1    2    0    0 -0.37108965262E+03 -0.18928457669E+02  0.79626597466E+03  0.87869523681E+03  0.00000000000E+00 0. -1.
<mgrwt>
<rscale>  0 0.12818832E+04</rscale>
<asrwt>0</asrwt>
<pdfrwt beam="1">  1        2 0.14286350E+00 0.12818832E+04</pdfrwt>
<pdfrwt beam="2">  1       -2 0.68059528E-01 0.12818832E+04</pdfrwt>
<totfact> 0.54424805E+01</totfact>
</mgrwt>
</event>
<event>
 6    1  0.1831439E-005  0.9002444E+03  0.7818608E-02  0.9425276E-01
          3   -1    0    0  501    0  0.00000000000E+00  0.00000000000E+00  0.79750657715E+03  0.79750657715E+03  0.00000000000E+00 0. -1.
         -3   -1    0    0    0  501 -0.00000000000E+00 -0.00000000000E+00 -0.25405433084E+03  0.25405433084E+03  0.00000000000E+00 0.  1.
         23    2    1    2    0    0  0.20924081173E+03  0.36151784671E+03  0.45484197799E+03  0.62456131732E+03  0.93374211457E+02 0.  0.
         11    1    3    3    0    0  0.18289514142E+03  0.26070881131E+03  0.38247226533E+03  0.49769945830E+03  0.00000000000E+00 0. -1.
        -11    1    3    3    0    0  0.26345670314E+02  0.10080903540E+03  0.72369712662E+02  0.12686185902E+03  0.00000000000E+00 0.  1.
         22    1    1    2    0    0 -0.20924081173E+03 -0.36151784671E+03  0.88610268323E+02  0.42699959068E+03  0.00000000000E+00 0.  1.
<mgrwt>
<rscale>  0 0.90024441E+03</rscale>
<asrwt>0</asrwt>
<pdfrwt beam="1">  1        3 0.12269332E+00 0.90024441E+03</pdfrwt>
<pdfrwt beam="2">  1       -3 0.39085282E-01 0.90024441E+03</pdfrwt>
<totfact> 0.91740854E+00</totfact>
</mgrwt>
</event>
<event>
 6    1  0.1831439E-005  0.1697995E+04  0.7818608E-02  0.8762509E-01
         -2   -1    0    0    0  501 -0.00000000000E+00  0.00000000000E+00  0.37832398718E+03  0.37832398718E+03  0.00000000000E+00 0.  1.
          2   -1    0    0  501    0  0.00000000000E+00 -0.00000000000E+00 -0.19052363720E+04  0.19052363720E+04  0.00000000000E+00 0. -1.
         23    2    1    2    0    0  0.74812904525E+03  0.25110185050E+03 -0.11779042124E+04  0.14206838257E+04  0.90194186467E+02 0.  0.
         13    1    3    3    0    0  0.71342346196E+02  0.53542763441E+02 -0.12727135167E+03  0.15541735692E+03  0.00000000000E+00 0.  1.
        -13    1    3    3    0    0  0.67678669905E+03  0.19755908706E+03 -0.10506328607E+04  0.12652664688E+04  0.00000000000E+00 0. -1.
         22    1    1    2    0    0 -0.74812904525E+03 -0.25110185050E+03 -0.34900817243E+03  0.86287653351E+03  0.00000000000E+00 0.  1.
<mgrwt>
<rscale>  0 0.16979948E+04</rscale>
<asrwt>0</asrwt>
<pdfrwt beam="1">  1        2 0.29311328E+00 0.16979948E+04</pdfrwt>
<pdfrwt beam="2">  1       -2 0.58203691E-01 0.16979948E+04</pdfrwt>
<totfact> 0.19823443E+01</totfact>
</mgrwt>
</event>
<event>
 6    1  0.1831439E-005  0.9049039E+03  0.7818608E-02  0.9419472E-01
          2   -1    0    0  501    0  0.00000000000E+00  0.00000000000E+00  0.13989276081E+04  0.13989276081E+04  0.00000000000E+00 0. -1.
         -2   -1    0    0    0  501 -0.00000000000E+00 -0.00000000000E+00 -0.14633549006E+03  0.14633549006E+03  0.00000000000E+00 0.  1.
         23    2    1    2    0    0 -0.22063849722E+03 -0.35367522811E+03  0.35285917995E+03  0.55365487244E+03  0.90865854297E+02 0.  0.
         11    1    3    3    0    0 -0.82675236296E+02 -0.21507340602E+03  0.17542476181E+03  0.28959560033E+03  0.00000000000E+00 0. -1.
        -11    1    3    3    0    0 -0.13796326092E+03 -0.13860182208E+03  0.17743441814E+03  0.26405927211E+03  0.00000000000E+00 0.  1.
         22    1    1    2    0    0  0.22063849722E+03  0.35367522811E+03  0.89973293807E+03  0.99160822571E+03  0.00000000000E+00 0. -1.
<mgrwt>
<rscale>  0 0.90490388E+03</rscale>
<asrwt>0</asrwt>
<pdfrwt beam="1">  1        2 0.21521962E+00 0.90490388E+03</pdfrwt>
<pdfrwt beam="2">  1       -2 0.22513153E-01 0.90490388E+03</pdfrwt>
<totfact> 0.25150578E+02</totfact>
</mgrwt>
</event>
<event>
 6    1  0.1831439E-005  0.1939359E+04  0.7818608E-02  0.8635509E-01
          2   -1    0    0  501    0  0.00000000000E+00  0.00000000000E+00  0.16293655902E+04  0.16293655902E+04  0.00000000000E+00 0. -1.
         -2   -1    0    0    0  501 -0.00000000000E+00 -0.00000000000E+00 -0.57708252054E+03  0.57708252054E+03  0.00000000000E+00 0.  1.
         23    2    1    2    0    0  0.62013279749E+03  0.23153906311E+02  0.13715812797E+04  0.15085569037E+04  0.96994509195E+02 0.  0.
         13    1    3    3    0    0  0.14809438562E+03  0.18739037520E+02  0.24244316896E+03  0.28471352050E+03  0.00000000000E+00 0.  1.
        -13    1    3    3    0    0  0.47203841187E+03  0.44148687910E+01  0.11291381108E+04  0.12238433832E+04  0.00000000000E+00 0. -1.
         22    1    1    2    0    0 -0.62013279749E+03 -0.23153906311E+02 -0.31929821010E+03  0.69789120704E+03  0.00000000000E+00 0.  1.
<mgrwt>
<rscale>  0 0.19393591E+04</rscale>
<asrwt>0</asrwt>
<pdfrwt beam="1">  1        2 0.25067163E+00 0.19393591E+04</pdfrwt>
<pdfrwt beam="2">  1       -2 0.88781927E-01 0.19393591E+04</pdfrwt>
<totfact> 0.10932908E+01</totfact>
</mgrwt>
</event>
<event>
 6    1  0.1831439E-005  0.4386562E+04  0.7818608E-02  0.7930803E-01
         -1   -1    0    0    0  501 -0.00000000000E+00  0.00000000000E+00  0.20970074274E+04  0.20970074274E+04  0.00000000000E+00 0. -1.
          1   -1    0    0  501    0  0.00000000000E+00 -0.00000000000E+00 -0.22939743913E+04  0.22939743913E+04  0.00000000000E+00 0.  1.
         23    2    1    2    0    0  0.92747499417E+03 -0.16636408782E+04  0.98802107177E+03  0.21477458791E+04  0.93358910930E+02 0.  0.
         13    1    3    3    0    0  0.25655491317E+03 -0.53988851802E+03  0.33150031617E+03  0.68351480963E+03  0.00000000000E+00 0.  1.
        -13    1    3    3    0    0  0.67092008100E+03 -0.11237523602E+04  0.65652075560E+03  0.14642310694E+04  0.00000000000E+00 0. -1.
         22    1    1    2    0    0 -0.92747499417E+03  0.16636408782E+04 -0.11849880356E+04  0.22432359397E+04  0.00000000000E+00 0.  1.
<mgrwt>
<rscale>  0 0.43865619E+04</rscale>
<asrwt>0</asrwt>
<pdfrwt beam="1">  1        1 0.35291914E+00 0.43865619E+04</pdfrwt>
<pdfrwt beam="2">  1       -1 0.32261653E+00 0.43865619E+04</pdfrwt>
<totfact> 0.33530348E-02</totfact>
</mgrwt>
</event>
<event>
 6    1  0.1831439E-005  0.1137558E+04  0.7818608E-02  0.9169339E-01
          2   -1    0    0  501    0  0.00000000000E+00  0.00000000000E+00  0.71592008955E+03  0.71592008955E+03  0.00000000000E+00 0.  1.
         -2   -1    0    0    0  501 -0.00000000000E+00 -0.00000000000E+00 -0.45187977622E+03  0.45187977622E+03  0.00000000000E+00 0. -1.
         23    2    1    2    0    0 -0.41453321997E+03  0.24548670203E+03 -0.16838302144E+03  0.52042713559E+03  0.10193159576E+03 0.  0.
         11    1    3    3    0    0 -0.16358680651E+03  0.11769075386E+03 -0.12041378772E+03  0.23475782645E+03  0.00000000000E+00 0. -1.
        -11    1    3    3    0    0 -0.25094641346E+03  0.12779594817E+03 -0.47969233719E+02  0.28566930913E+03  0.00000000000E+00 0.  1.
         22    1    1    2    0    0  0.41453321997E+03 -0.24548670203E+03  0.43242333477E+03  0.64737273018E+03  0.00000000000E+00 0.  1.
<mgrwt>
<rscale>  0 0.11375585E+04</rscale>
<asrwt>0</asrwt>
<pdfrwt beam="1">  1        2 0.11014155E+00 0.11375585E+04</pdfrwt>
<pdfrwt beam="2">  1       -2 0.69519965E-01 0.11375585E+04</pdfrwt>
<totfact> 0.74472970E+01</totfact>
</mgrwt>
</event>
<event>
 6    1  0.1831439E-005  0.2317971E+04  0.7818608E-02  0.8470869E-01
          2   -1    0    0  501    0  0.00000000000E+00  0.00000000000E+00  0.20886598527E+04  0.20886598527E+04  0.00000000000E+00 0. -1.
         -2   -1    0    0    0  501 -0.00000000000E+00 -0.00000000000E+00 -0.64311457220E+03  0.64311457220E+03  0.00000000000E+00 0.  1.
         23    2    1    2    0    0 -0.40814839093E+03 -0.85323762980E+03  0.15097069960E+04  0.17837679441E+04  0.89517053509E+02 0.  0.
         13    1    3    3    0    0 -0.11768635853E+03 -0.20723824295E+03  0.44870173074E+03  0.50806595191E+03  0.00000000000E+00 0. -1.
        -13    1    3    3    0    0 -0.29046203240E+03 -0.64599938685E+03  0.10610052652E+04  0.12757019922E+04  0.00000000000E+00 0.  1.
         22    1    1    2    0    0  0.40814839093E+03  0.85323762980E+03 -0.64161715436E+02  0.94800648081E+03  0.00000000000E+00 0.  1.
<mgrwt>
<rscale>  0 0.23179712E+04</rscale>
<asrwt>0</asrwt>
<pdfrwt beam="1">  1        2 0.32133228E+00 0.23179712E+04</pdfrwt>
<pdfrwt beam="2">  1       -2 0.98940705E-01 0.23179712E+04</pdfrwt>
<totfact> 0.45717611E+00</totfact>
</mgrwt>
</event>
<event>
 6    1  0.1831439E-005  0.2102463E+04  0.7818608E-02  0.8560159E-01
          1   -1    0    0  501    0  0.00000000000E+00  0.00000000000E+00  0.13394097563E+04  0.13394097563E+04  0.00000000000E+00 0. -1.
         -1   -1    0    0    0  501 -0.00000000000E+00 -0.00000000000E+00 -0.82505558687E+03  0.82505558687E+03  0.00000000000E+00 0.  1.
         23    2    1    2    0    0  0.49880069643E+03 -0.37446238221E+03  0.11260111156E+04  0.12908816722E+04  0.97212389282E+02 0.  0.
         13    1    3    3    0    0  0.14201130968E+03 -0.15636183016E+03  0.33229544496E+03  0.39374674189E+03  0.00000000000E+00 0. -1.
        -13    1    3    3    0    0  0.35678938675E+03 -0.21810055206E+03  0.79371567068E+03  0.89713493031E+03  0.00000000000E+00 0.  1.
         22    1    1    2    0    0 -0.49880069643E+03  0.37446238221E+03 -0.61165694617E+03  0.87358367100E+03  0.00000000000E+00 0.  1.
<mgrwt>
<rscale>  0 0.21024628E+04</rscale>
<asrwt>0</asrwt>
<pdfrwt beam="1">  1        1 0.20606304E+00 0.21024628E+04</pdfrwt>
<pdfrwt beam="2">  1       -1 0.12693163E+00 0.21024628E+04</pdfrwt>
<totfact> 0.41991440E+00</totfact>
</mgrwt>
</event>
<event>
 6    1  0.1831439E-005  0.2740511E+04  0.7818608E-02  0.8321979E-01
          2   -1    0    0  501    0  0.00000000000E+00  0.00000000000E+00  0.14480189556E+04  0.14480189556E+04  0.00000000000E+00 0. -1.
         -2   -1    0    0    0  501 -0.00000000000E+00 -0.00000000000E+00 -0.12966680892E+04  0.12966680892E+04  0.00000000000E+00 0.  1.
         23    2    1    2    0    0 -0.58976025232E+03 -0.49781397573E+03 -0.10563372251E+04  0.13114576717E+04  0.91853044623E+02 0.  0.
         11    1    3    3    0    0 -0.24947594651E+03 -0.26294269261E+03 -0.53125689473E+03  0.64312595631E+03  0.00000000000E+00 0.  1.
        -11    1    3    3    0    0 -0.34028430582E+03 -0.23487128312E+03 -0.52508033040E+03  0.66833171539E+03  0.00000000000E+00 0. -1.
         22    1    1    2    0    0  0.58976025232E+03  0.49781397573E+03  0.12076880915E+04  0.14332293731E+04  0.00000000000E+00 0. -1.
<mgrwt>
<rscale>  0 0.27405109E+04</rscale>
<asrwt>0</asrwt>
<pdfrwt beam="1">  1        2 0.22277215E+00 0.27405109E+04</pdfrwt>
<pdfrwt beam="2">  1       -2 0.19948740E+00 0.27405109E+04</pdfrwt>
<totfact> 0.15923696E+00</totfact>
</mgrwt>
</event>
<event>
 6    1  0.1831439E-005  0.2308390E+04  0.7818608E-02  0.8474620E-01
         -2   -1    0    0    0  501 -0.00000000000E+00  0.00000000000E+00  0.11051371482E+04  0.11051371482E+04  0.00000000000E+00 0.  1.
          2   -1    0    0  501    0  0.00000000000E+00 -0.00000000000E+00 -0.12054305692E+04  0.12054305692E+04  0.00000000000E+00 0. -1.
         23    2    1    2    0    0  0.10204908169E+03  0.18246957470E+03  0.10840861648E+04  0.11078773317E+04  0.91870608580E+02 0.  0.
         11    1    3    3    0    0  0.99431076599E+02  0.11019059867E+03  0.58287859064E+03  0.60147814462E+03  0.00000000000E+00 0.  1.
        -11    1    3    3    0    0  0.26180050901E+01  0.72278976030E+02  0.50120757415E+03  0.50639918712E+03  0.00000000000E+00 0. -1.
         22    1    1    2    0    0 -0.10204908169E+03 -0.18246957470E+03 -0.11843795857E+04  0.12026903857E+04  0.00000000000E+00 0. -1.
<mgrwt>
<rscale>  0 0.23083900E+04</rscale>
<asrwt>0</asrwt>
<pdfrwt beam="1">  1        2 0.18545086E+00 0.23083900E+04</pdfrwt>
<pdfrwt beam="2">  1       -2 0.17002110E+00 0.23083900E+04</pdfrwt>
<totfact> 0.36290228E+00</totfact>
</mgrwt>
</event>
<event>
 6    1  0.1831439E-005  0.1514165E+04  0.7818608E-02  0.8875088E-01
         -1   -1    0    0    0  501 -0.00000000000E+00  0.00000000000E+00  0.21033464559E+04  0.21033464559E+04  0.00000000000E+00 0.  1.
          1   -1    0    0  501    0  0.00000000000E+00 -0.00000000000E+00 -0.27250554332E+03  0.27250554332E+03  0.00000000000E+00 0. -1.
         23    2    1    2    0    0  0.42977399513E+03 -0.61855788883E+03  0.85439915034E+03  0.11426618015E+04  0.91425028058E+02 0.  0.
         13    1    3    3    0    0  0.25060656943E+03 -0.29568523124E+03  0.39729905548E+03  0.55504950059E+03  0.00000000000E+00 0.  1.
        -13    1    3    3    0    0  0.17916742570E+03 -0.32287265760E+03  0.45710009486E+03  0.58761230091E+03  0.00000000000E+00 0. -1.
         22    1    1    2    0    0 -0.42977399513E+03  0.61855788883E+03  0.97644176220E+03  0.12331901977E+04  0.00000000000E+00 0. -1.
<mgrwt>
<rscale>  0 0.15141645E+04</rscale>
<asrwt>0</asrwt>
<pdfrwt beam="1">  1        1 0.41923931E-01 0.15141645E+04</pdfrwt>
<pdfrwt beam="2">  1       -1 0.32359175E+00 0.15141645E+04</pdfrwt>
<totfact> 0.22349854E+00</totfact>
</mgrwt>
</event>
<event>
 6    1  0.1831439E-005  0.2397222E+04  0.7818608E-02  0.8440544E-01
         -2   -1    0    0    0  501 -0.00000000000E+00  0.00000000000E+00  0.69077089991E+03  0.69077089991E+03  0.00000000000E+00 0. -1.
          2   -1    0    0  501    0  0.00000000000E+00 -0.00000000000E+00 -0.20798050486E+04  0.20798050486E+04  0.00000000000E+00 0.  1.
         23    2    1    2    0    0 -0.10729368575E+04 -0.28651742763E+03 -0.12114186862E+04  0.16459280085E+04  0.90873754654E+02 0.  0.
         13    1    3    3    0    0 -0.64150404531E+03 -0.18988949288E+03 -0.78882870537E+03  0.10343288578E+04  0.00000000000E+00 0. -1.
        -13    1    3    3    0    0 -0.43143281221E+03 -0.96627934747E+02 -0.42258998081E+03  0.61159915067E+03  0.00000000000E+00 0.  1.
         22    1    1    2    0    0  0.10729368575E+04  0.28651742763E+03 -0.17761546252E+03  0.11246479401E+04  0.00000000000E+00 0.  1.
<mgrwt>
<rscale>  0 0.23972224E+04</rscale>
<asrwt>0</asrwt>
<pdfrwt beam="1">  1        2 0.31997000E+00 0.23972224E+04</pdfrwt>
<pdfrwt beam="2">  1       -2 0.10627245E+00 0.23972224E+04</pdfrwt>
<totfact> 0.38729997E+00</totfact>
</mgrwt>
</event>
<event>
 6    1  0.1831439E-005  0.7931995E+03  0.7818608E-02  0.9569913E-01
          2   -1    0    0  501    0  0.00000000000E+00  0.00000000000E+00  0.37943051090E+03  0.37943051090E+03  0.00000000000E+00 0. -1.
         -2   -1    0    0    0  501 -0.00000000000E+00 -0.00000000000E+00 -0.41454586341E+03  0.41454586341E+03  0.00000000000E+00 0.  1.
         23    2    1    2    0    0  0.15434805397E+03  0.35178803798E+03 -0.92606500470E+02  0.40553927834E+03  0.91148214031E+02 0.  0.
         11    1    3    3    0    0  0.12963177514E+03  0.18406443456E+03 -0.58497876453E+02  0.23260721130E+03  0.00000000000E+00 0. -1.
        -11    1    3    3    0    0  0.24716278834E+02  0.16772360341E+03 -0.34108624017E+02  0.17293206705E+03  0.00000000000E+00 0.  1.
         22    1    1    2    0    0 -0.15434805397E+03 -0.35178803798E+03  0.57491147961E+02  0.38843709597E+03  0.00000000000E+00 0. -1.
<mgrwt>
<rscale>  0 0.79319947E+03</rscale>
<asrwt>0</asrwt>
<pdfrwt beam="1">  1        2 0.58373925E-01 0.79319947E+03</pdfrwt>
<pdfrwt beam="2">  1       -2 0.63776286E-01 0.79319947E+03</pdfrwt>
<totfact> 0.19344769E+02</totfact>
</mgrwt>
</event>
<event>
 6    1  0.1831439E-005  0.1208987E+04  0.7818608E-02  0.9105026E-01
         -2   -1    0    0    0  501 -0.00000000000E+00  0.00000000000E+00  0.21374338584E+03  0.21374338584E+03  0.00000000000E+00 0.  1.
          2   -1    0    0  501    0  0.00000000000E+00 -0.00000000000E+00 -0.17095848738E+04  0.17095848738E+04  0.00000000000E+00 0. -1.
         23    2    1    2    0    0 -0.46998016864E+03  0.15047427937E+03 -0.20516828272E+03  0.54153189605E+03  0.87400815466E+02 0.  0.
         13    1    3    3    0    0 -0.10255591413E+03  0.71537911580E+02 -0.43014675962E+02  0.13223331904E+03  0.00000000000E+00 0.  1.
        -13    1    3    3    0    0 -0.36742425451E+03  0.78936367789E+02 -0.16215360676E+03  0.40929857701E+03  0.00000000000E+00 0. -1.
         22    1    1    2    0    0  0.46998016864E+03 -0.15047427937E+03 -0.12906732052E+04  0.13817963635E+04  0.00000000000E+00 0. -1.
<mgrwt>
<rscale>  0 0.12089871E+04</rscale>
<asrwt>0</asrwt>
<pdfrwt beam="1">  1        2 0.26301305E+00 0.12089871E+04</pdfrwt>
<pdfrwt beam="2">  1       -2 0.32883599E-01 0.12089871E+04</pdfrwt>
<totfact> 0.82412645E+01</totfact>
</mgrwt>
</event>
<event>
 6    1  0.1831439E-005  0.6320041E+03  0.7818608E-02  0.9841146E-01
         -2   -1    0    0    0  501 -0.00000000000E+00  0.00000000000E+00  0.84521315650E+02  0.84521315650E+02  0.00000000000E+00 0. -1.
          2   -1    0    0  501    0  0.00000000000E+00 -0.00000000000E+00 -0.11814452000E+04  0.11814452000E+04  0.00000000000E+00 0.  1.
         23    2    1    2    0    0  0.32789915653E+02 -0.24522656075E+03 -0.93234531344E+03  0.96881781440E+03  0.90160575310E+02 0.  0.
         13    1    3    3    0    0  0.28263640987E+02 -0.57624524340E+02 -0.38210277714E+03  0.38745574135E+03  0.00000000000E+00 0.  1.
        -13    1    3    3    0    0  0.45262746661E+01 -0.18760203641E+03 -0.55024253630E+03  0.58136207305E+03  0.00000000000E+00 0. -1.
         22    1    1    2    0    0 -0.32789915653E+02  0.24522656075E+03 -0.16457857096E+03  0.29714870130E+03  0.00000000000E+00 0. -1.
<mgrwt>
<rscale>  0 0.63200412E+03</rscale>
<asrwt>0</asrwt>
<pdfrwt beam="1">  1        2 0.18176079E+00 0.63200412E+03</pdfrwt>
<pdfrwt beam="2">  1       -2 0.13003280E-01 0.63200412E+03</pdfrwt>
<totfact> 0.87495554E+02</totfact>
</mgrwt>
</event>
<event>
 6    1  0.1831439E-005  0.1154072E+04  0.7818608E-02  0.9154035E-01
          2   -1    0    0  501    0  0.00000000000E+00  0.00000000000E+00  0.30311237757E+04  0.30311237757E+04  0.00000000000E+00 0. -1.
         -2   -1    0    0    0  501 -0.00000000000E+00 -0.00000000000E+00 -0.10985046099E+03  0.10985046099E+03  0.00000000000E+00 0.  1.
         23    2    1    2    0    0 -0.27651857717E+03  0.49647753863E+03  0.16733491447E+04  0.17697458808E+04  0.94607888984E+02 0.  0.
         11    1    3    3    0    0 -0.41264675722E+02  0.76292096013E+02  0.37682545972E+03  0.38667904581E+03  0.00000000000E+00 0. -1.
        -11    1    3    3    0    0 -0.23525390145E+03  0.42018544262E+03  0.12965236850E+04  0.13830668350E+04  0.00000000000E+00 0.  1.
         22    1    1    2    0    0  0.27651857717E+03 -0.49647753863E+03  0.12479241700E+04  0.13712283559E+04  0.00000000000E+00 0.  1.
<mgrwt>
<rscale>  0 0.11540717E+04</rscale>
<asrwt>0</asrwt>
<pdfrwt beam="1">  1        2 0.46632667E+00 0.11540717E+04</pdfrwt>
<pdfrwt beam="2">  1       -2 0.16900073E-01 0.11540717E+04</pdfrwt>
<totfact> 0.47994466E+01</totfact>
</mgrwt>
</event>
<event>
 6    1  0.1831439E-005  0.7854642E+03  0.7818608E-02  0.9581299E-01
         -1   -1    0    0    0  501 -0.00000000000E+00  0.00000000000E+00  0.10548101271E+04  0.10548101271E+04  0.00000000000E+00 0.  1.
          1   -1    0    0  501    0  0.00000000000E+00 -0.00000000000E+00 -0.14622396390E+03  0.14622396390E+03  0.00000000000E+00 0. -1.
         23    2    1    2    0    0 -0.26144723451E+03 -0.13481311333E+03  0.74289490685E+02  0.31639847690E+03  0.89776588242E+02 0.  0.
         13    1    3    3    0    0 -0.15258530355E+03 -0.28646708460E+02  0.43807960040E+02  0.16131350262E+03  0.00000000000E+00 0. -1.
        -13    1    3    3    0    0 -0.10886193097E+03 -0.10616640487E+03  0.30481530645E+02  0.15508497428E+03  0.00000000000E+00 0.  1.
         22    1    1    2    0    0  0.26144723451E+03  0.13481311333E+03  0.83429667249E+03  0.88463561408E+03  0.00000000000E+00 0.  1.
<mgrwt>
<rscale>  0 0.78546424E+03</rscale>
<asrwt>0</asrwt>
<pdfrwt beam="1">  1        1 0.22495995E-01 0.78546424E+03</pdfrwt>
<pdfrwt beam="2">  1       -1 0.16227848E+00 0.78546424E+03</pdfrwt>
<totfact> 0.64070282E+01</totfact>
</mgrwt>
</event>
<event>
 6    1  0.2182936E-005  0.3136966E+04  0.7818608E-02  0.8205665E-01
          2   -1    0    0  501    0  0.00000000000E+00  0.00000000000E+00  0.18020448227E+04  0.18020448227E+04  0.00000000000E+00 0. -1.
         -2   -1    0    0    0  501 -0.00000000000E+00 -0.00000000000E+00 -0.13651932269E+04  0.13651932269E+04  0.00000000000E+00 0.  1.
         23    2    1    2    0    0 -0.29440801534E+03  0.11489435260E+04  0.12530519234E+04  0.17274706101E+04  0.85254210979E+02 0.  0.
         11    1    3    3    0    0 -0.85259741389E+02  0.23320686967E+03  0.22757165398E+03  0.33681378425E+03  0.00000000000E+00 0.  1.
        -11    1    3    3    0    0 -0.20914827395E+03  0.91573665630E+03  0.10254802694E+04  0.13906568258E+04  0.00000000000E+00 0. -1.
         22    1    1    2    0    0  0.29440801534E+03 -0.11489435260E+04 -0.81620032752E+03  0.14397674396E+04  0.00000000000E+00 0.  1.
<mgrwt>
<rscale>  0 0.31369663E+04</rscale>
<asrwt>0</asrwt>
<pdfrwt beam="1">  1        2 0.27723767E+00 0.31369663E+04</pdfrwt>
<pdfrwt beam="2">  1       -2 0.21002973E+00 0.31369663E+04</pdfrwt>
<totfact> 0.83388045E-01</totfact>
</mgrwt>
</event>
<event>
 6    1  0.1831439E-005  0.2629017E+04  0.7818608E-02  0.8358411E-01
          2   -1    0    0  501    0  0.00000000000E+00  0.00000000000E+00  0.85782979088E+03  0.85782979088E+03  0.00000000000E+00 0. -1.
         -2   -1    0    0    0  501 -0.00000000000E+00 -0.00000000000E+00 -0.20143073605E+04  0.20143073605E+04  0.00000000000E+00 0.  1.
         23    2    1    2    0    0  0.39663576352E+03 -0.11102152405E+04  0.52348986262E+02  0.11835994849E+04  0.90936874588E+02 0.  0.
         13    1    3    3    0    0  0.30526274862E+03 -0.86676241933E+03  0.78280442935E+02  0.92227450632E+03  0.00000000000E+00 0.  1.
        -13    1    3    3    0    0  0.91373014896E+02 -0.24345282112E+03 -0.25931456673E+02  0.26132497854E+03  0.00000000000E+00 0. -1.
         22    1    1    2    0    0 -0.39663576352E+03  0.11102152405E+04 -0.12088265559E+04  0.16885376665E+04  0.00000000000E+00 0.  1.
<mgrwt>
<rscale>  0 0.26290172E+04</rscale>
<asrwt>0</asrwt>
<pdfrwt beam="1">  1        2 0.13197382E+00 0.26290172E+04</pdfrwt>
<pdfrwt beam="2">  1       -2 0.30989344E+00 0.26290172E+04</pdfrwt>
<totfact> 0.76446399E-01</totfact>
</mgrwt>
</event>
<event>
 6    1  0.1831439E-005  0.1568919E+04  0.7818608E-02  0.8839873E-01
         -2   -1    0    0    0  501 -0.00000000000E+00  0.00000000000E+00  0.25951495354E+03  0.25951495354E+03  0.00000000000E+00 0.  1.
          2   -1    0    0  501    0  0.00000000000E+00 -0.00000000000E+00 -0.23712564756E+04  0.23712564756E+04  0.00000000000E+00 0. -1.
         23    2    1    2    0    0 -0.60466805555E+03  0.17114651849E+03 -0.18392077226E+04  0.19457975172E+04  0.92349026535E+02 0.  0.
         13    1    3    3    0    0 -0.39616548692E+03  0.12999137835E+03 -0.10897935771E+04  0.11668311326E+04  0.00000000000E+00 0.  1.
        -13    1    3    3    0    0 -0.20850256863E+03  0.41155140145E+02 -0.74941414556E+03  0.77896638455E+03  0.00000000000E+00 0. -1.
         22    1    1    2    0    0  0.60466805555E+03 -0.17114651849E+03 -0.27253379941E+03  0.68497391192E+03  0.00000000000E+00 0.  1.
<mgrwt>
<rscale>  0 0.15689188E+04</rscale>
<asrwt>0</asrwt>
<pdfrwt beam="1">  1        2 0.36480870E+00 0.15689188E+04</pdfrwt>
<pdfrwt beam="2">  1       -2 0.39925376E-01 0.15689188E+04</pdfrwt>
<totfact> 0.23596834E+01</totfact>
</mgrwt>
</event>
<event>
 6    1  0.1831439E-005  0.2124432E+04  0.7818608E-02  0.8550557E-01
         -1   -1    0    0    0  501 -0.00000000000E+00  0.00000000000E+00  0.73494815076E+03  0.73494815076E+03  0.00000000000E+00 0.  1.
          1   -1    0    0  501    0  0.00000000000E+00 -0.00000000000E+00 -0.15352138919E+04  0.15352138919E+04  0.00000000000E+00 0. -1.
         23    2    1    2    0    0  0.42443052207E+03  0.14904298950E+03 -0.14267450823E+04  0.14989088769E+04  0.93654742364E+02 0.  0.
         11    1    3    3    0    0  0.14191902613E+03  0.33251967866E+02 -0.60397255516E+03  0.62131276401E+03  0.00000000000E+00 0.  1.
        -11    1    3    3    0    0  0.28251149594E+03  0.11579102163E+03 -0.82277252713E+03  0.87759611293E+03  0.00000000000E+00 0. -1.
         22    1    1    2    0    0 -0.42443052207E+03 -0.14904298950E+03  0.62647934113E+03  0.77125316573E+03  0.00000000000E+00 0.  1.
<mgrwt>
<rscale>  0 0.21244318E+04</rscale>
<asrwt>0</asrwt>
<pdfrwt beam="1">  1        1 0.23618675E+00 0.21244318E+04</pdfrwt>
<pdfrwt beam="2">  1       -1 0.11306895E+00 0.21244318E+04</pdfrwt>
<totfact> 0.40569730E+00</totfact>
</mgrwt>
</event>
<event>
 6    1  0.1831439E-005  0.2128326E+04  0.7818608E-02  0.8548867E-01
          1   -1    0    0  501    0  0.00000000000E+00  0.00000000000E+00  0.10708144107E+04  0.10708144107E+04  0.00000000000E+00 0. -1.
         -1   -1    0    0    0  501 -0.00000000000E+00 -0.00000000000E+00 -0.10575533121E+04  0.10575533121E+04  0.00000000000E+00 0.  1.
         23    2    1    2    0    0 -0.74383886575E+03 -0.56448168164E+03 -0.49966287460E+03  0.10629913436E+04  0.91388080239E+02 0.  0.
         13    1    3    3    0    0 -0.58774443377E+03 -0.42436410085E+03 -0.34791441819E+03  0.80409753880E+03  0.00000000000E+00 0.  1.
        -13    1    3    3    0    0 -0.15609443198E+03 -0.14011758079E+03 -0.15174845642E+03  0.25889380480E+03  0.00000000000E+00 0. -1.
         22    1    1    2    0    0  0.74383886575E+03  0.56448168164E+03  0.51292397316E+03  0.10653763792E+04  0.00000000000E+00 0. -1.
<mgrwt>
<rscale>  0 0.21283264E+04</rscale>
<asrwt>0</asrwt>
<pdfrwt beam="1">  1        1 0.16474068E+00 0.21283264E+04</pdfrwt>
<pdfrwt beam="2">  1       -1 0.16270051E+00 0.21283264E+04</pdfrwt>
<totfact> 0.34129997E+00</totfact>
</mgrwt>
</event>
<event>
 6    1  0.1831439E-005  0.3891034E+04  0.7818608E-02  0.8026897E-01
         -1   -1    0    0    0  501 -0.00000000000E+00  0.00000000000E+00  0.14821781369E+04  0.14821781369E+04  0.00000000000E+00 0.  1.
          1   -1    0    0  501    0  0.00000000000E+00 -0.00000000000E+00 -0.25536988833E+04  0.25536988833E+04  0.00000000000E+00 0. -1.
         23    2    1    2    0    0 -0.18979559843E+03 -0.15334037761E+04 -0.17605673052E+04  0.23440925570E+04  0.88448682571E+02 0.  0.
         11    1    3    3    0    0 -0.38454873368E+02 -0.66631630389E+03 -0.75438363211E+03  0.10072491541E+04  0.00000000000E+00 0. -1.
        -11    1    3    3    0    0 -0.15134072506E+03 -0.86708747226E+03 -0.10061836731E+04  0.13368434028E+04  0.00000000000E+00 0.  1.
         22    1    1    2    0    0  0.18979559843E+03  0.15334037761E+04  0.68904655877E+03  0.16917844632E+04  0.00000000000E+00 0.  1.
<mgrwt>
<rscale>  0 0.38910341E+04</rscale>
<asrwt>0</asrwt>
<pdfrwt beam="1">  1        1 0.39287674E+00 0.38910341E+04</pdfrwt>
<pdfrwt beam="2">  1       -1 0.22802741E+00 0.38910341E+04</pdfrwt>
<totfact> 0.95488803E-02</totfact>
</mgrwt>
</event>
<event>
 6    1  0.1831439E-005  0.9740994E+03  0.7818608E-02  0.9337417E-01
         -3   -1    0    0    0  501 -0.00000000000E+00  0.00000000000E+00  0.16460414613E+03  0.16460414613E+03  0.00000000000E+00 0.  1.
          3   -1    0    0  501    0  0.00000000000E+00 -0.00000000000E+00 -0.14411388604E+04  0.14411388604E+04  0.00000000000E+00 0. -1.
         23    2    1    2    0    0 -0.31395721881E+03  0.16203263908E+03 -0.11860813423E+04  0.12410437827E+04  0.92612141549E+02 0.  0.
         13    1    3    3    0    0 -0.23089840137E+03  0.10098043265E+03 -0.69554207291E+03  0.73979043973E+03  0.00000000000E+00 0. -1.
        -13    1    3    3    0    0 -0.83058817435E+02  0.61052206426E+02 -0.49053926935E+03  0.50125334297E+03  0.00000000000E+00 0.  1.
         22    1    1    2    0    0  0.31395721881E+03 -0.16203263908E+03 -0.90453372032E+02  0.36469922386E+03  0.00000000000E+00 0.  1.
<mgrwt>
<rscale>  0 0.97409944E+03</rscale>
<asrwt>0</asrwt>
<pdfrwt beam="1">  1        3 0.22171367E+00 0.97409944E+03</pdfrwt>
<pdfrwt beam="2">  1       -3 0.25323715E-01 0.97409944E+03</pdfrwt>
<totfact> 0.42549792E+00</totfact>
</mgrwt>
</event>
<event>
 6    1  0.1831439E-005  0.7755475E+04  0.7818608E-02  0.7504174E-01
         -1   -1    0    0    0  501 -0.00000000000E+00  0.00000000000E+00  0.38108814880E+04  0.38108814880E+04  0.00000000000E+00 0.  1.
          1   -1    0    0  501    0  0.00000000000E+00 -0.00000000000E+00 -0.39457664956E+04  0.39457664956E+04  0.00000000000E+00 0. -1.
         23    2    1    2    0    0 -0.67049644665E+03  0.34919156213E+04  0.14786229488E+04  0.38519779441E+04  0.91477132072E+02 0.  0.
         11    1    3    3    0    0 -0.30367653042E+03  0.17937910503E+04  0.78030411285E+03  0.19795909365E+04  0.00000000000E+00 0. -1.
        -11    1    3    3    0    0 -0.36681991623E+03  0.16981245710E+04  0.69831883596E+03  0.18723870076E+04  0.00000000000E+00 0.  1.
         22    1    1    2    0    0  0.67049644665E+03 -0.34919156213E+04 -0.16135079565E+04  0.39046700395E+04  0.00000000000E+00 0. -1.
<mgrwt>
<rscale>  0 0.77554751E+04</rscale>
<asrwt>0</asrwt>
<pdfrwt beam="1">  1        1 0.60704100E+00 0.77554751E+04</pdfrwt>
<pdfrwt beam="2">  1       -1 0.58628946E+00 0.77554751E+04</pdfrwt>
<totfact> 0.32484804E-05</totfact>
</mgrwt>
</event>
<event>
 6    1  0.1831439E-005  0.2629904E+04  0.7818608E-02  0.8358114E-01
         -2   -1    0    0    0  501 -0.00000000000E+00  0.00000000000E+00  0.58369074847E+03  0.58369074847E+03  0.00000000000E+00 0.  1.
          2   -1    0    0  501    0  0.00000000000E+00 -0.00000000000E+00 -0.29623539839E+04  0.29623539839E+04  0.00000000000E+00 0. -1.
         23    2    1    2    0    0 -0.74108571434E+03  0.21113083884E+03 -0.26247944845E+04  0.27371165162E+04  0.92067749115E+02 0.  0.
         11    1    3    3    0    0 -0.36252682931E+03  0.12342387070E+03 -0.14502194918E+04  0.14999319078E+04  0.00000000000E+00 0. -1.
        -11    1    3    3    0    0 -0.37855888503E+03  0.87706968133E+02 -0.11745749927E+04  0.12371846084E+04  0.00000000000E+00 0.  1.
         22    1    1    2    0    0  0.74108571434E+03 -0.21113083884E+03  0.24613124906E+03  0.80892821614E+03  0.00000000000E+00 0.  1.
<mgrwt>
<rscale>  0 0.26299039E+04</rscale>
<asrwt>0</asrwt>
<pdfrwt beam="1">  1        2 0.45574676E+00 0.26299039E+04</pdfrwt>
<pdfrwt beam="2">  1       -2 0.89798579E-01 0.26299039E+04</pdfrwt>
<totfact> 0.17226357E+00</totfact>
</mgrwt>
</event>
<event>
 6    1  0.1831439E-005  0.8762835E+03  0.7818608E-02  0.9455724E-01
         -2   -1    0    0    0  501 -0.00000000000E+00  0.00000000000E+00  0.87718276837E+03  0.87718276837E+03  0.00000000000E+00 0. -1.
          2   -1    0    0  501    0  0.00000000000E+00 -0.00000000000E+00 -0.21884627747E+03  0.21884627747E+03  0.00000000000E+00 0.  1.
         23    2    1    2    0    0 -0.15508264593E+03  0.37388373058E+03  0.14113765586E+03  0.43926858264E+03  0.95902965173E+02 0.  0.
         13    1    3    3    0    0 -0.77633906532E+02  0.99196269970E+02  0.73959623963E+02  0.14607172689E+03  0.00000000000E+00 0.  1.
        -13    1    3    3    0    0 -0.77448739394E+02  0.27468746061E+03  0.67178031896E+02  0.29319685575E+03  0.00000000000E+00 0. -1.
         22    1    1    2    0    0  0.15508264593E+03 -0.37388373058E+03  0.51719883504E+03  0.65676046321E+03  0.00000000000E+00 0. -1.
<mgrwt>
<rscale>  0 0.87628348E+03</rscale>
<asrwt>0</asrwt>
<pdfrwt beam="1">  1        2 0.33668659E-01 0.87628348E+03</pdfrwt>
<pdfrwt beam="2">  1       -2 0.13495119E+00 0.87628348E+03</pdfrwt>
<totfact> 0.61942566E+01</totfact>
</mgrwt>
</event>
<event>
 6    1  0.1831439E-005  0.1421863E+04  0.7818608E-02  0.8938143E-01
          2   -1    0    0  501    0  0.00000000000E+00  0.00000000000E+00  0.90817031658E+03  0.90817031658E+03  0.00000000000E+00 0.  1.
         -2   -1    0    0    0  501 -0.00000000000E+00 -0.00000000000E+00 -0.55652962258E+03  0.55652962258E+03  0.00000000000E+00 0. -1.
         23    2    1    2    0    0  0.15604255690E+03  0.42506812105E+03 -0.38421483538E+03  0.60068862719E+03  0.90407964317E+02 0.  0.
         13    1    3    3    0    0  0.97321308984E+02  0.14986797923E+03 -0.17427946575E+03  0.24961005702E+03  0.00000000000E+00 0. -1.
        -13    1    3    3    0    0  0.58721247915E+02  0.27520014181E+03 -0.20993536963E+03  0.35107857017E+03  0.00000000000E+00 0.  1.
         22    1    1    2    0    0 -0.15604255690E+03 -0.42506812105E+03  0.73585552938E+03  0.86401131197E+03  0.00000000000E+00 0.  1.
<mgrwt>
<rscale>  0 0.14218631E+04</rscale>
<asrwt>0</asrwt>
<pdfrwt beam="1">  1        2 0.13971851E+00 0.14218631E+04</pdfrwt>
<pdfrwt beam="2">  1       -2 0.85619942E-01 0.14218631E+04</pdfrwt>
<totfact> 0.33351287E+01</totfact>
</mgrwt>
</event>
<event>
 6    1  0.1831439E-005  0.8108584E+03  0.7818608E-02  0.9544432E-01
          1   -1    0    0  501    0  0.00000000000E+00  0.00000000000E+00  0.36342970056E+03  0.36342970056E+03  0.00000000000E+00 0. -1.
         -1   -1    0    0    0  501 -0.00000000000E+00 -0.00000000000E+00 -0.45228238835E+03  0.45228238835E+03  0.00000000000E+00 0.  1.
         23    2    1    2    0    0 -0.25250722410E+02  0.13862700353E+03 -0.42161667895E+03  0.45434396787E+03  0.93876365909E+02 0.  0.
         11    1    3    3    0    0 -0.52766907452E+02  0.93993776262E+02 -0.34543071568E+03  0.36185847487E+03  0.00000000000E+00 0. -1.
        -11    1    3    3    0    0  0.27516185042E+02  0.44633227265E+02 -0.76185963267E+02  0.92485492994E+02  0.00000000000E+00 0.  1.
         22    1    1    2    0    0  0.25250722410E+02 -0.13862700353E+03  0.33276399117E+03  0.36136812105E+03  0.00000000000E+00 0. -1.
<mgrwt>
<rscale>  0 0.81085844E+03</rscale>
<asrwt>0</asrwt>
<pdfrwt beam="1">  1        1 0.55912261E-01 0.81085844E+03</pdfrwt>
<pdfrwt beam="2">  1       -1 0.69581906E-01 0.81085844E+03</pdfrwt>
<totfact> 0.14405403E+02</totfact>
</mgrwt>
</event>
<event>
 6    1  0.1831439E-005  0.6639022E+03  0.7818608E-02  0.9781037E-01
         -2   -1    0    0    0  501 -0.00000000000E+00  0.00000000000E+00  0.97715513479E+02  0.97715513479E+02  0.00000000000E+00 0.  1.
          2   -1    0    0  501    0  0.00000000000E+00 -0.00000000000E+00 -0.11276769622E+04  0.11276769622E+04  0.00000000000E+00 0. -1.
         23    2    1    2    0    0  0.16451395315E+03  0.14208973142E+03 -0.77266609166E+02  0.24821194483E+03  0.91568051795E+02 0.  0.
         11    1    3    3    0    0  0.12478752215E+03  0.12906690709E+03 -0.24965399234E+02  0.18125524364E+03  0.00000000000E+00 0.  1.
        -11    1    3    3    0    0  0.39726431003E+02  0.13022824329E+02 -0.52301209931E+02  0.66956701188E+02  0.00000000000E+00 0. -1.
         22    1    1    2    0    0 -0.16451395315E+03 -0.14208973142E+03 -0.95269483958E+03  0.97718053088E+03  0.00000000000E+00 0. -1.
<mgrwt>
<rscale>  0 0.66390220E+03</rscale>
<asrwt>0</asrwt>
<pdfrwt beam="1">  1        2 0.17348876E+00 0.66390220E+03</pdfrwt>
<pdfrwt beam="2">  1       -2 0.15033156E-01 0.66390220E+03</pdfrwt>
<totfact> 0.73800388E+02</totfact>
</mgrwt>
</event>
<event>
 6    1  0.1831439E-005  0.5013818E+04  0.7818608E-02  0.7826379E-01
         -2   -1    0    0    0  501 -0.00000000000E+00  0.00000000000E+00  0.24789245159E+04  0.24789245159E+04  0.00000000000E+00 0.  1.
          2   -1    0    0  501    0  0.00000000000E+00 -0.00000000000E+00 -0.25352091764E+04  0.25352091764E+04  0.00000000000E+00 0. -1.
         23    2    1    2    0    0  0.13610766468E+03 -0.59707349758E+03  0.24021367490E+04  0.24805871889E+04  0.89609055573E+02 0.  0.
         11    1    3    3    0    0  0.12555054380E+03 -0.35397245960E+03  0.14613877883E+04  0.15088782949E+04  0.00000000000E+00 0. -1.
        -11    1    3    3    0    0  0.10557120880E+02 -0.24310103798E+03  0.94074896078E+03  0.97170889400E+03  0.00000000000E+00 0.  1.
         22    1    1    2    0    0 -0.13610766468E+03  0.59707349758E+03 -0.24584214095E+04  0.25335465033E+04  0.00000000000E+00 0. -1.
<mgrwt>
<rscale>  0 0.50138178E+04</rscale>
<asrwt>0</asrwt>
<pdfrwt beam="1">  1        2 0.39003218E+00 0.50138178E+04</pdfrwt>
<pdfrwt beam="2">  1       -2 0.38137300E+00 0.50138178E+04</pdfrwt>
<totfact> 0.23699661E-02</totfact>
</mgrwt>
</event>
<event>
 6    1  0.1831439E-005  0.9062292E+03  0.7818608E-02  0.9417828E-01
          2   -1    0    0  501    0  0.00000000000E+00  0.00000000000E+00  0.39302433159E+03  0.39302433159E+03  0.00000000000E+00 0. -1.
         -2   -1    0    0    0  501 -0.00000000000E+00 -0.00000000000E+00 -0.52239222937E+03  0.52239222937E+03  0.00000000000E+00 0.  1.
         23    2    1    2    0    0  0.23701713823E+03  0.24809644897E+03 -0.35726956938E+03  0.50350862983E+03  0.90279694863E+02 0.  0.
         13    1    3    3    0    0  0.54702868231E+02  0.64469131239E+02 -0.14910704410E+03  0.17141056933E+03  0.00000000000E+00 0.  1.
        -13    1    3    3    0    0  0.18231427000E+03  0.18362731773E+03 -0.20816252527E+03  0.33209806050E+03  0.00000000000E+00 0. -1.
         22    1    1    2    0    0 -0.23701713823E+03 -0.24809644897E+03  0.22790167160E+03  0.41190793112E+03  0.00000000000E+00 0. -1.
<mgrwt>
<rscale>  0 0.90622924E+03</rscale>
<asrwt>0</asrwt>
<pdfrwt beam="1">  1        2 0.60465282E-01 0.90622924E+03</pdfrwt>
<pdfrwt beam="2">  1       -2 0.80368035E-01 0.90622924E+03</pdfrwt>
<totfact> 0.11137798E+02</totfact>
</mgrwt>
</event>
<event>
 6    1  0.1831439E-005  0.2453064E+04  0.7818608E-02  0.8419900E-01
         -1   -1    0    0    0  501 -0.00000000000E+00  0.00000000000E+00  0.75504655723E+03  0.75504655723E+03  0.00000000000E+00 0.  1.
          1   -1    0    0  501    0  0.00000000000E+00 -0.00000000000E+00 -0.19924339752E+04  0.19924339752E+04  0.00000000000E+00 0. -1.
         23    2    1    2    0    0 -0.48931509484E+03 -0.67512754360E+03  0.38547881798E+03  0.92294736421E+03  0.89506736105E+02 0.  0.
         13    1    3    3    0    0 -0.19422818985E+03 -0.19997616271E+03  0.11338611207E+03  0.30095093586E+03  0.00000000000E+00 0.  1.
        -13    1    3    3    0    0 -0.29508690499E+03 -0.47515138090E+03  0.27209270592E+03  0.62199642835E+03  0.00000000000E+00 0. -1.
         22    1    1    2    0    0  0.48931509484E+03  0.67512754360E+03 -0.16228662359E+04  0.18245331682E+04  0.00000000000E+00 0. -1.
<mgrwt>
<rscale>  0 0.24530637E+04</rscale>
<asrwt>0</asrwt>
<pdfrwt beam="1">  1        1 0.30652831E+00 0.24530637E+04</pdfrwt>
<pdfrwt beam="2">  1       -1 0.11616101E+00 0.24530637E+04</pdfrwt>
<totfact> 0.18018905E+00</totfact>
</mgrwt>
</event>
<event>
 6    1  0.1831439E-005  0.5297193E+04  0.7818608E-02  0.7784229E-01
          2   -1    0    0  501    0  0.00000000000E+00  0.00000000000E+00  0.22134723599E+04  0.22134723599E+04  0.00000000000E+00 0. -1.
         -2   -1    0    0    0  501 -0.00000000000E+00 -0.00000000000E+00 -0.31692578777E+04  0.31692578777E+04  0.00000000000E+00 0.  1.
         23    2    1    2    0    0 -0.10998314979E+04 -0.22380304710E+04  0.42661884904E+03  0.25315109289E+04  0.90189955621E+02 0.  0.
         11    1    3    3    0    0 -0.36241408842E+03 -0.80549331246E+03  0.11966544934E+03  0.89133790880E+03  0.00000000000E+00 0. -1.
        -11    1    3    3    0    0 -0.73741740946E+03 -0.14325371585E+04  0.30695339971E+03  0.16401730201E+04  0.00000000000E+00 0.  1.
         22    1    1    2    0    0  0.10998314979E+04  0.22380304710E+04 -0.13824043669E+04  0.28512193087E+04  0.00000000000E+00 0.  1.
<mgrwt>
<rscale>  0 0.52971935E+04</rscale>
<asrwt>0</asrwt>
<pdfrwt beam="1">  1        2 0.34053421E+00 0.52971935E+04</pdfrwt>
<pdfrwt beam="2">  1       -2 0.48757814E+00 0.52971935E+04</pdfrwt>
<totfact> 0.71754442E-03</totfact>
</mgrwt>
</event>
<event>
 6    1  0.1831439E-005  0.9964995E+03  0.7818608E-02  0.9312392E-01
          2   -1    0    0  501    0  0.00000000000E+00  0.00000000000E+00  0.41427682224E+03  0.41427682224E+03  0.00000000000E+00 0. -1.
         -2   -1    0    0    0  501 -0.00000000000E+00 -0.00000000000E+00 -0.59924379649E+03  0.59924379649E+03  0.00000000000E+00 0.  1.
         23    2    1    2    0    0 -0.16313093078E+03  0.30995712577E+03  0.26085535435E+03  0.44656147640E+03  0.93201480224E+02 0.  0.
         13    1    3    3    0    0 -0.11443778885E+03  0.19532479985E+03  0.21951912603E+03  0.31533542720E+03  0.00000000000E+00 0. -1.
        -13    1    3    3    0    0 -0.48693141926E+02  0.11463232592E+03  0.41336228325E+02  0.13122604920E+03  0.00000000000E+00 0.  1.
         22    1    1    2    0    0  0.16313093078E+03 -0.30995712577E+03 -0.44582232861E+03  0.56695914234E+03  0.00000000000E+00 0.  1.
<mgrwt>
<rscale>  0 0.99649950E+03</rscale>
<asrwt>0</asrwt>
<pdfrwt beam="1">  1        2 0.63734896E-01 0.99649950E+03</pdfrwt>
<pdfrwt beam="2">  1       -2 0.92191353E-01 0.99649950E+03</pdfrwt>
<totfact> 0.76316239E+01</totfact>
</mgrwt>
</event>
<event>
 6    1  0.1831439E-005  0.2804883E+04  0.7818608E-02  0.8301754E-01
         -1   -1    0    0    0  501 -0.00000000000E+00  0.00000000000E+00  0.13758797497E+04  0.13758797497E+04  0.00000000000E+00 0.  1.
          1   -1    0    0  501    0  0.00000000000E+00 -0.00000000000E+00 -0.14295161581E+04  0.14295161581E+04  0.00000000000E+00 0. -1.
         23    2    1    2    0    0 -0.33075730259E+03  0.13366950522E+04  0.23088939916E+03  0.13992988305E+04  0.92591828662E+02 0.  0.
         11    1    3    3    0    0 -0.27020139522E+03  0.11884869070E+04  0.18520254027E+03  0.12328057036E+04  0.00000000000E+00 0. -1.
        -11    1    3    3    0    0 -0.60555907376E+02  0.14820814523E+03  0.45686858897E+02  0.16649312690E+03  0.00000000000E+00 0.  1.
         22    1    1    2    0    0  0.33075730259E+03 -0.13366950522E+04 -0.28452580756E+03  0.14060970774E+04  0.00000000000E+00 0.  1.
<mgrwt>
<rscale>  0 0.28048831E+04</rscale>
<asrwt>0</asrwt>
<pdfrwt beam="1">  1        1 0.21992556E+00 0.28048831E+04</pdfrwt>
<pdfrwt beam="2">  1       -1 0.21167381E+00 0.28048831E+04</pdfrwt>
<totfact> 0.79390328E-01</totfact>
</mgrwt>
</event>
<event>
 6    1  0.1831439E-005  0.1425741E+04  0.7818608E-02  0.8935394E-01
         -2   -1    0    0    0  501 -0.00000000000E+00  0.00000000000E+00  0.39809353034E+03  0.39809353034E+03  0.00000000000E+00 0.  1.
          2   -1    0    0  501    0  0.00000000000E+00 -0.00000000000E+00 -0.12765448821E+04  0.12765448821E+04  0.00000000000E+00 0. -1.
         23    2    1    2    0    0  0.12966760707E+03 -0.50052746819E+03 -0.10124946217E+04  0.11404951424E+04  0.90787532541E+02 0.  0.
         11    1    3    3    0    0  0.22947837444E+02 -0.85830554655E+02 -0.25913730333E+03  0.27394457347E+03  0.00000000000E+00 0.  1.
        -11    1    3    3    0    0  0.10671976963E+03 -0.41469691354E+03 -0.75335731839E+03  0.86655056892E+03  0.00000000000E+00 0. -1.
         22    1    1    2    0    0 -0.12966760707E+03  0.50052746819E+03  0.13404326995E+03  0.53414327007E+03  0.00000000000E+00 0.  1.
<mgrwt>
<rscale>  0 0.14257409E+04</rscale>
<asrwt>0</asrwt>
<pdfrwt beam="1">  1        2 0.19639152E+00 0.14257409E+04</pdfrwt>
<pdfrwt beam="2">  1       -2 0.61245159E-01 0.14257409E+04</pdfrwt>
<totfact> 0.41098945E+01</totfact>
</mgrwt>
</event>
<event>
 6    1  0.1831439E-005  0.1359530E+04  0.7818608E-02  0.8983645E-01
         -1   -1    0    0    0  501 -0.00000000000E+00  0.00000000000E+00  0.52544067780E+03  0.52544067780E+03  0.00000000000E+00 0.  1.
          1   -1    0    0  501    0  0.00000000000E+00 -0.00000000000E+00 -0.87941561645E+03  0.87941561645E+03  0.00000000000E+00 0. -1.
         23    2    1    2    0    0  0.22592829321E+02 -0.16279926956E+03  0.49796405655E+03  0.53720769622E+03  0.11666134386E+03 0.  0.
         11    1    3    3    0    0 -0.14782627837E+02 -0.13597435310E+03  0.24959853738E+03  0.28461725290E+03  0.00000000000E+00 0. -1.
        -11    1    3    3    0    0  0.37375457158E+02 -0.26824916463E+02  0.24836551917E+03  0.25259044331E+03  0.00000000000E+00 0.  1.
         22    1    1    2    0    0 -0.22592829321E+02  0.16279926956E+03 -0.85193899521E+03  0.86764859803E+03  0.00000000000E+00 0. -1.
<mgrwt>
<rscale>  0 0.13595304E+04</rscale>
<asrwt>0</asrwt>
<pdfrwt beam="1">  1        1 0.13529471E+00 0.13595304E+04</pdfrwt>
<pdfrwt beam="2">  1       -1 0.80837028E-01 0.13595304E+04</pdfrwt>
<totfact> 0.28246776E+01</totfact>
</mgrwt>
</event>
<event>
 6    1  0.1831439E-005  0.1679885E+04  0.7818608E-02  0.8772920E-01
          2   -1    0    0  501    0  0.00000000000E+00  0.00000000000E+00  0.14821286500E+04  0.14821286500E+04  0.00000000000E+00 0.  1.
         -2   -1    0    0    0  501 -0.00000000000E+00 -0.00000000000E+00 -0.47600701431E+03  0.47600701431E+03  0.00000000000E+00 0. -1.
         23    2    1    2    0    0 -0.74590434112E+03 -0.16638822196E+02  0.59155549066E+02  0.75256737271E+03  0.78791718967E+02 0.  0.
         11    1    3    3    0    0 -0.67291812758E+03 -0.37799226964E+02  0.59219197260E+02  0.67657556955E+03  0.00000000000E+00 0.  1.
        -11    1    3    3    0    0 -0.72986213544E+02  0.21160404769E+02 -0.63648194151E-01  0.75991803167E+02  0.00000000000E+00 0. -1.
         22    1    1    2    0    0  0.74590434112E+03  0.16638822196E+02  0.94696608664E+03  0.12055682916E+04  0.00000000000E+00 0.  1.
<mgrwt>
<rscale>  0 0.16798853E+04</rscale>
<asrwt>0</asrwt>
<pdfrwt beam="1">  1        2 0.22801979E+00 0.16798853E+04</pdfrwt>
<pdfrwt beam="2">  1       -2 0.73231849E-01 0.16798853E+04</pdfrwt>
<totfact> 0.20844405E+01</totfact>
</mgrwt>
</event>
<event>
 6    1  0.1831439E-005  0.3658202E+04  0.7818608E-02  0.8077288E-01
         -2   -1    0    0    0  501 -0.00000000000E+00  0.00000000000E+00  0.16534244867E+04  0.16534244867E+04  0.00000000000E+00 0. -1.
          2   -1    0    0  501    0  0.00000000000E+00 -0.00000000000E+00 -0.20234432117E+04  0.20234432117E+04  0.00000000000E+00 0.  1.
         23    2    1    2    0    0  0.38045766041E+03  0.14062831734E+04 -0.12948648373E+04  0.19512603483E+04  0.91441811995E+02 0.  0.
         13    1    3    3    0    0  0.22404216480E+03  0.65451333452E+03 -0.62089664690E+03  0.92956723416E+03  0.00000000000E+00 0.  1.
        -13    1    3    3    0    0  0.15641549562E+03  0.75176983887E+03 -0.67396819035E+03  0.10216931142E+04  0.00000000000E+00 0. -1.
         22    1    1    2    0    0 -0.38045766041E+03 -0.14062831734E+04  0.92484611223E+03  0.17256073500E+04  0.00000000000E+00 0. -1.
<mgrwt>
<rscale>  0 0.36582020E+04</rscale>
<asrwt>0</asrwt>
<pdfrwt beam="1">  1        2 0.31129896E+00 0.36582020E+04</pdfrwt>
<pdfrwt beam="2">  1       -2 0.25437300E+00 0.36582020E+04</pdfrwt>
<totfact> 0.31769487E-01</totfact>
</mgrwt>
</event>
<event>
 6    1  0.1831439E-005  0.2095650E+04  0.7818608E-02  0.8563162E-01
         -2   -1    0    0    0  501 -0.00000000000E+00  0.00000000000E+00  0.49106662084E+03  0.49106662084E+03  0.00000000000E+00 0.  1.
          2   -1    0    0  501    0  0.00000000000E+00 -0.00000000000E+00 -0.22358220913E+04  0.22358220913E+04  0.00000000000E+00 0. -1.
         23    2    1    2    0    0 -0.14343894866E+02  0.14263964003E+03 -0.22221619716E+04  0.22284222825E+04  0.85499863799E+02 0.  0.
         13    1    3    3    0    0  0.55276787311E+01  0.89657805393E+02 -0.18295089841E+04  0.18317129142E+04  0.00000000000E+00 0. -1.
        -13    1    3    3    0    0 -0.19871573597E+02  0.52981834640E+02 -0.39265298754E+03  0.39670936825E+03  0.00000000000E+00 0.  1.
         22    1    1    2    0    0  0.14343894866E+02 -0.14263964003E+03  0.47740650112E+03  0.49846642970E+03  0.00000000000E+00 0.  1.
<mgrwt>
<rscale>  0 0.20956504E+04</rscale>
<asrwt>0</asrwt>
<pdfrwt beam="1">  1        2 0.34397263E+00 0.20956504E+04</pdfrwt>
<pdfrwt beam="2">  1       -2 0.75548710E-01 0.20956504E+04</pdfrwt>
<totfact> 0.71393103E+00</totfact>
</mgrwt>
</event>
<event>
 6    1  0.1831439E-005  0.2368111E+04  0.7818608E-02  0.8451540E-01
          1   -1    0    0  501    0  0.00000000000E+00  0.00000000000E+00  0.54263629955E+03  0.54263629955E+03  0.00000000000E+00 0. -1.
         -1   -1    0    0    0  501 -0.00000000000E+00 -0.00000000000E+00 -0.25836586704E+04  0.25836586704E+04  0.00000000000E+00 0.  1.
         23    2    1    2    0    0  0.63351961548E+03  0.78949535774E+03 -0.21552912066E+03  0.10389340453E+04  0.91000690185E+02 0.  0.
         13    1    3    3    0    0  0.43556891940E+03  0.59613038314E+03 -0.18011655052E+03  0.75995637310E+03  0.00000000000E+00 0. -1.
        -13    1    3    3    0    0  0.19795069607E+03  0.19336497460E+03 -0.35412570138E+02  0.27897767223E+03  0.00000000000E+00 0.  1.
         22    1    1    2    0    0 -0.63351961548E+03 -0.78949535774E+03 -0.18254932502E+04  0.20873609246E+04  0.00000000000E+00 0.  1.
<mgrwt>
<rscale>  0 0.23681106E+04</rscale>
<asrwt>0</asrwt>
<pdfrwt beam="1">  1        1 0.83482505E-01 0.23681106E+04</pdfrwt>
<pdfrwt beam="2">  1       -1 0.39748596E+00 0.23681106E+04</pdfrwt>
<totfact> 0.26452069E-01</totfact>
</mgrwt>
</event>
<event>
 6    1  0.1831439E-005  0.4082665E+04  0.7818608E-02  0.7988075E-01
          1   -1    0    0  501    0  0.00000000000E+00  0.00000000000E+00  0.28715551511E+04  0.28715551511E+04  0.00000000000E+00 0. -1.
         -1   -1    0    0    0  501 -0.00000000000E+00 -0.00000000000E+00 -0.14511435820E+04  0.14511435820E+04  0.00000000000E+00 0.  1.
         23    2    1    2    0    0 -0.15125068191E+04 -0.38249813549E+03 -0.68195956573E+03  0.17046945143E+04  0.83263653699E+02 0.  0.
         13    1    3    3    0    0 -0.40531029954E+03 -0.80243422277E+02 -0.14837296024E+03  0.43901022888E+03  0.00000000000E+00 0. -1.
        -13    1    3    3    0    0 -0.11071965196E+04 -0.30225471322E+03 -0.53358660549E+03  0.12656842854E+04  0.00000000000E+00 0.  1.
         22    1    1    2    0    0  0.15125068191E+04  0.38249813549E+03  0.21023711347E+04  0.26180042188E+04  0.00000000000E+00 0. -1.
<mgrwt>
<rscale>  0 0.40826652E+04</rscale>
<asrwt>0</asrwt>
<pdfrwt beam="1">  1        1 0.44177772E+00 0.40826652E+04</pdfrwt>
<pdfrwt beam="2">  1       -1 0.22325286E+00 0.40826652E+04</pdfrwt>
<totfact> 0.60246420E-02</totfact>
</mgrwt>
</event>
<event>
 6    1  0.1831439E-005  0.2265777E+04  0.7818608E-02  0.8491538E-01
         -2   -1    0    0    0  501 -0.00000000000E+00  0.00000000000E+00  0.92219217247E+03  0.92219217247E+03  0.00000000000E+00 0.  1.
          2   -1    0    0  501    0  0.00000000000E+00 -0.00000000000E+00 -0.13917236219E+04  0.13917236219E+04  0.00000000000E+00 0. -1.
         23    2    1    2    0    0  0.26841107939E+03  0.53018108186E+03 -0.12179481245E+04  0.13582673199E+04  0.91411111476E+02 0.  0.
         13    1    3    3    0    0  0.22195243590E+03  0.36880309850E+03 -0.93321634096E+03  0.10277019745E+04  0.00000000000E+00 0. -1.
        -13    1    3    3    0    0  0.46458643495E+02  0.16137798335E+03 -0.28473178355E+03  0.33056534548E+03  0.00000000000E+00 0.  1.
         22    1    1    2    0    0 -0.26841107939E+03 -0.53018108186E+03  0.74841667510E+03  0.95564847442E+03  0.00000000000E+00 0.  1.
<mgrwt>
<rscale>  0 0.22657772E+04</rscale>
<asrwt>0</asrwt>
<pdfrwt beam="1">  1        2 0.21411133E+00 0.22657772E+04</pdfrwt>
<pdfrwt beam="2">  1       -2 0.14187572E+00 0.22657772E+04</pdfrwt>
<totfact> 0.46149489E+00</totfact>
</mgrwt>
</event>
<event>
 6    1  0.1831439E-005  0.2419716E+04  0.7818608E-02  0.8432159E-01
          2   -1    0    0  501    0  0.00000000000E+00  0.00000000000E+00  0.77510727269E+03  0.77510727269E+03  0.00000000000E+00 0.  1.
         -2   -1    0    0    0  501 -0.00000000000E+00 -0.00000000000E+00 -0.18884569303E+04  0.18884569303E+04  0.00000000000E+00 0. -1.
         23    2    1    2    0    0  0.86071059592E+03 -0.76278403534E+03 -0.15026544909E+03  0.11634997353E+04  0.92139646091E+02 0.  0.
         11    1    3    3    0    0  0.64439806293E+03 -0.56460382660E+03 -0.71457811565E+02  0.85972819156E+03  0.00000000000E+00 0.  1.
        -11    1    3    3    0    0  0.21631253299E+03 -0.19818020874E+03 -0.78807637523E+02  0.30377154376E+03  0.00000000000E+00 0. -1.
         22    1    1    2    0    0 -0.86071059592E+03  0.76278403534E+03 -0.96308420852E+03  0.15000644677E+04  0.00000000000E+00 0. -1.
<mgrwt>
<rscale>  0 0.24197163E+04</rscale>
<asrwt>0</asrwt>
<pdfrwt beam="1">  1        2 0.11924727E+00 0.24197163E+04</pdfrwt>
<pdfrwt beam="2">  1       -2 0.29053184E+00 0.24197163E+04</pdfrwt>
<totfact> 0.11713244E+00</totfact>
</mgrwt>
</event>
<event>
 6    1  0.1831439E-005  0.3804918E+04  0.7818608E-02  0.8045100E-01
          2   -1    0    0  501    0  0.00000000000E+00  0.00000000000E+00  0.21934396703E+04  0.21934396703E+04  0.00000000000E+00 0. -1.
         -2   -1    0    0    0  501 -0.00000000000E+00 -0.00000000000E+00 -0.16500794063E+04  0.16500794063E+04  0.00000000000E+00 0.  1.
         23    2    1    2    0    0  0.18090324036E+04 -0.51323483835E+03 -0.12562472774E+02  0.18826370491E+04  0.90311716893E+02 0.  0.
         13    1    3    3    0    0  0.13332546804E+04 -0.37820736421E+03 -0.49026946660E+02  0.13867272604E+04  0.00000000000E+00 0. -1.
        -13    1    3    3    0    0  0.47577772321E+03 -0.13502747414E+03  0.36464473887E+02  0.49590978870E+03  0.00000000000E+00 0.  1.
         22    1    1    2    0    0 -0.18090324036E+04  0.51323483835E+03  0.55592273680E+03  0.19608820275E+04  0.00000000000E+00 0. -1.
<mgrwt>
<rscale>  0 0.38049177E+04</rscale>
<asrwt>0</asrwt>
<pdfrwt beam="1">  1        2 0.33745226E+00 0.38049177E+04</pdfrwt>
<pdfrwt beam="2">  1       -2 0.25385837E+00 0.38049177E+04</pdfrwt>
<totfact> 0.25399310E-01</totfact>
</mgrwt>
</event>
<event>
 6    1  0.1831439E-005  0.8751277E+03  0.7818608E-02  0.9457218E-01
          1   -1    0    0  501    0  0.00000000000E+00  0.00000000000E+00  0.24695302493E+03  0.24695302493E+03  0.00000000000E+00 0. -1.
         -1   -1    0    0    0  501 -0.00000000000E+00 -0.00000000000E+00 -0.77529769349E+03  0.77529769349E+03  0.00000000000E+00 0.  1.
         23    2    1    2    0    0  0.34139111922E+03 -0.71735711836E+02 -0.56569786952E+03  0.67141005621E+03  0.95307268172E+02 0.  0.
         13    1    3    3    0    0  0.19466685021E+03 -0.87616336029E+02 -0.35291013720E+03  0.41245286985E+03  0.00000000000E+00 0. -1.
        -13    1    3    3    0    0  0.14672426901E+03  0.15880624193E+02 -0.21278773232E+03  0.25895718636E+03  0.00000000000E+00 0.  1.
         22    1    1    2    0    0 -0.34139111922E+03  0.71735711836E+02  0.37353200955E+02  0.35084066221E+03  0.00000000000E+00 0. -1.
<mgrwt>
<rscale>  0 0.87512767E+03</rscale>
<asrwt>0</asrwt>
<pdfrwt beam="1">  1        1 0.37992773E-01 0.87512767E+03</pdfrwt>
<pdfrwt beam="2">  1       -1 0.11927657E+00 0.87512767E+03</pdfrwt>
<totfact> 0.71686537E+01</totfact>
</mgrwt>
</event>
<event>
 6    1  0.1831439E-005  0.4740862E+04  0.7818608E-02  0.7869774E-01
         -1   -1    0    0    0  501 -0.00000000000E+00  0.00000000000E+00  0.22979829606E+04  0.22979829606E+04  0.00000000000E+00 0.  1.
          1   -1    0    0  501    0  0.00000000000E+00 -0.00000000000E+00 -0.24451626209E+04  0.24451626209E+04  0.00000000000E+00 0. -1.
         23    2    1    2    0    0 -0.82850238222E+03  0.10904096195E+04 -0.20087184511E+04  0.24321423350E+04  0.70407289689E+02 0.  0.
         11    1    3    3    0    0 -0.64324188222E+03  0.82014945287E+03 -0.14821915183E+04  0.18119870146E+04  0.00000000000E+00 0.  1.
        -11    1    3    3    0    0 -0.18526050000E+03  0.27026016667E+03 -0.52652693279E+03  0.62015532046E+03  0.00000000000E+00 0. -1.
         22    1    1    2    0    0  0.82850238222E+03 -0.10904096195E+04  0.18615387907E+04  0.23110032464E+04  0.00000000000E+00 0.  1.
<mgrwt>
<rscale>  0 0.47408615E+04</rscale>
<asrwt>0</asrwt>
<pdfrwt beam="1">  1        1 0.37617887E+00 0.47408615E+04</pdfrwt>
<pdfrwt beam="2">  1       -1 0.35353584E+00 0.47408615E+04</pdfrwt>
<totfact> 0.16040621E-02</totfact>
</mgrwt>
</event>
<event>
 6    1  0.1831439E-005  0.3605317E+04  0.7818608E-02  0.8089275E-01
         -1   -1    0    0    0  501 -0.00000000000E+00  0.00000000000E+00  0.31309798287E+04  0.31309798287E+04  0.00000000000E+00 0.  1.
          1   -1    0    0  501    0  0.00000000000E+00 -0.00000000000E+00 -0.10378787221E+04  0.10378787221E+04  0.00000000000E+00 0. -1.
         23    2    1    2    0    0 -0.68205718470E+03  0.42775789244E+03 -0.81636219691E+03  0.11500582042E+04  0.89486416587E+02 0.  0.
         13    1    3    3    0    0 -0.38807814962E+03  0.20137459600E+03 -0.47959182233E+03  0.64897202880E+03  0.00000000000E+00 0. -1.
        -13    1    3    3    0    0 -0.29397903509E+03  0.22638329644E+03 -0.33677037457E+03  0.50108617539E+03  0.00000000000E+00 0.  1.
         22    1    1    2    0    0  0.68205718470E+03 -0.42775789244E+03  0.29094633035E+04  0.30188003466E+04  0.00000000000E+00 0.  1.
<mgrwt>
<rscale>  0 0.36053168E+04</rscale>
<asrwt>0</asrwt>
<pdfrwt beam="1">  1        1 0.15967365E+00 0.36053168E+04</pdfrwt>
<pdfrwt beam="2">  1       -1 0.48168920E+00 0.36053168E+04</pdfrwt>
<totfact> 0.22485812E-02</totfact>
</mgrwt>
</event>
<event>
 6    1  0.1831439E-005  0.3971394E+04  0.7818608E-02  0.8010342E-01
         -2   -1    0    0    0  501 -0.00000000000E+00  0.00000000000E+00  0.14998595004E+04  0.14998595004E+04  0.00000000000E+00 0.  1.
          2   -1    0    0  501    0  0.00000000000E+00 -0.00000000000E+00 -0.26289076795E+04  0.26289076795E+04  0.00000000000E+00 0. -1.
         23    2    1    2    0    0 -0.22509828224E+03 -0.92972470270E+03  0.12428900890E+04  0.15712002878E+04  0.94006976316E+02 0.  0.
         13    1    3    3    0    0 -0.22868988578E+01 -0.57337349867E+02  0.11015987192E+03  0.12420949633E+03  0.00000000000E+00 0. -1.
        -13    1    3    3    0    0 -0.22281138338E+03 -0.87238735283E+03  0.11327302171E+04  0.14469907915E+04  0.00000000000E+00 0.  1.
         22    1    1    2    0    0  0.22509828224E+03  0.92972470270E+03 -0.23719382682E+04  0.25575668921E+04  0.00000000000E+00 0. -1.
<mgrwt>
<rscale>  0 0.39713938E+04</rscale>
<asrwt>0</asrwt>
<pdfrwt beam="1">  1        2 0.40444733E+00 0.39713938E+04</pdfrwt>
<pdfrwt beam="2">  1       -2 0.23074762E+00 0.39713938E+04</pdfrwt>
<totfact> 0.19568770E-01</totfact>
</mgrwt>
</event>
<event>
 6    1  0.1831439E-005  0.1574674E+04  0.7818608E-02  0.8836259E-01
         -2   -1    0    0    0  501 -0.00000000000E+00  0.00000000000E+00  0.28137223474E+03  0.28137223474E+03  0.00000000000E+00 0.  1.
          2   -1    0    0  501    0  0.00000000000E+00 -0.00000000000E+00 -0.22031309389E+04  0.22031309389E+04  0.00000000000E+00 0. -1.
         23    2    1    2    0    0  0.10918242125E+03 -0.55807360962E+03 -0.11139796555E+03  0.58693289595E+03  0.93347537529E+02 0.  0.
         11    1    3    3    0    0  0.88972293633E+02 -0.31197236379E+03 -0.25192740440E+02  0.32538822808E+03  0.00000000000E+00 0.  1.
        -11    1    3    3    0    0  0.20210127618E+02 -0.24610124582E+03 -0.86205225113E+02  0.26154466787E+03  0.00000000000E+00 0. -1.
         22    1    1    2    0    0 -0.10918242125E+03  0.55807360962E+03 -0.18103607386E+04  0.18975702776E+04  0.00000000000E+00 0. -1.
<mgrwt>
<rscale>  0 0.15746744E+04</rscale>
<asrwt>0</asrwt>
<pdfrwt beam="1">  1        2 0.33894321E+00 0.15746744E+04</pdfrwt>
<pdfrwt beam="2">  1       -2 0.43288037E-01 0.15746744E+04</pdfrwt>
<totfact> 0.25024252E+01</totfact>
</mgrwt>
</event>
<event>
 6    1  0.1831439E-005  0.2624531E+03  0.7818608E-02  0.1105678E+00
          2   -1    0    0  501    0  0.00000000000E+00  0.00000000000E+00  0.12419443524E+03  0.12419443524E+03  0.00000000000E+00 0. -1.
         -2   -1    0    0    0  501 -0.00000000000E+00 -0.00000000000E+00 -0.13865678628E+03  0.13865678628E+03  0.00000000000E+00 0.  1.
         23    2    1    2    0    0 -0.49549838989E+02 -0.10319735379E+03 -0.26578487423E+02  0.14773527504E+03  0.89523265824E+02 0.  0.
         11    1    3    3    0    0 -0.35183703842E+02 -0.53504822121E+02 -0.58680135009E+02  0.86856302310E+02  0.00000000000E+00 0.  1.
        -11    1    3    3    0    0 -0.14366135147E+02 -0.49692531671E+02  0.32101647586E+02  0.60878972730E+02  0.00000000000E+00 0. -1.
         22    1    1    2    0    0  0.49549838989E+02  0.10319735379E+03  0.12116136387E+02  0.11511594648E+03  0.00000000000E+00 0. -1.
<mgrwt>
<rscale>  0 0.26245305E+03</rscale>
<asrwt>0</asrwt>
<pdfrwt beam="1">  1        2 0.19106836E-01 0.26245305E+03</pdfrwt>
<pdfrwt beam="2">  1       -2 0.21331813E-01 0.26245305E+03</pdfrwt>
<totfact> 0.54506182E+03</totfact>
</mgrwt>
</event>
<event>
 6    1  0.1831439E-005  0.1577621E+04  0.7818608E-02  0.8834415E-01
         -1   -1    0    0    0  501 -0.00000000000E+00  0.00000000000E+00  0.51804063102E+03  0.51804063102E+03  0.00000000000E+00 0.  1.
          1   -1    0    0  501    0  0.00000000000E+00 -0.00000000000E+00 -0.12011068041E+04  0.12011068041E+04  0.00000000000E+00 0. -1.
         23    2    1    2    0    0  0.42996286061E+03  0.16113600775E+03 -0.10382099141E+04  0.11386649192E+04  0.88572558042E+02 0.  0.
         11    1    3    3    0    0  0.21497608279E+03  0.49500823812E+02 -0.57648165785E+03  0.61724885546E+03  0.00000000000E+00 0.  1.
        -11    1    3    3    0    0  0.21498677783E+03  0.11163518394E+03 -0.46172825625E+03  0.52141606376E+03  0.00000000000E+00 0. -1.
         22    1    1    2    0    0 -0.42996286061E+03 -0.16113600775E+03  0.35514374101E+03  0.58048251591E+03  0.00000000000E+00 0.  1.
<mgrwt>
<rscale>  0 0.15776212E+04</rscale>
<asrwt>0</asrwt>
<pdfrwt beam="1">  1        1 0.18478566E+00 0.15776212E+04</pdfrwt>
<pdfrwt beam="2">  1       -1 0.79698559E-01 0.15776212E+04</pdfrwt>
<totfact> 0.16124089E+01</totfact>
</mgrwt>
</event>
<event>
 6    1  0.1831439E-005  0.2777345E+04  0.7818608E-02  0.8310337E-01
          1   -1    0    0  501    0  0.00000000000E+00  0.00000000000E+00  0.23571879391E+04  0.23571879391E+04  0.00000000000E+00 0. -1.
         -1   -1    0    0    0  501 -0.00000000000E+00 -0.00000000000E+00 -0.81809796186E+03  0.81809796186E+03  0.00000000000E+00 0.  1.
         23    2    1    2    0    0 -0.13626867219E+04  0.38036714316E+02  0.10635648934E+04  0.17315109881E+04  0.92726079165E+02 0.  0.
         11    1    3    3    0    0 -0.87749456578E+03  0.48456166633E+02  0.73205957610E+03  0.11437901626E+04  0.00000000000E+00 0. -1.
        -11    1    3    3    0    0 -0.48519215613E+03 -0.10419452317E+02  0.33150531727E+03  0.58772082550E+03  0.00000000000E+00 0.  1.
         22    1    1    2    0    0  0.13626867219E+04 -0.38036714316E+02  0.47552508390E+03  0.14437749129E+04  0.00000000000E+00 0.  1.
<mgrwt>
<rscale>  0 0.27773445E+04</rscale>
<asrwt>0</asrwt>
<pdfrwt beam="1">  1        1 0.36264430E+00 0.27773445E+04</pdfrwt>
<pdfrwt beam="2">  1       -1 0.12586123E+00 0.27773445E+04</pdfrwt>
<totfact> 0.81105162E-01</totfact>
</mgrwt>
</event>
<event>
 6    1  0.1831439E-005  0.1951134E+04  0.7818608E-02  0.8629814E-01
         -2   -1    0    0    0  501 -0.00000000000E+00  0.00000000000E+00  0.38463893900E+03  0.38463893900E+03  0.00000000000E+00 0. -1.
          2   -1    0    0  501    0  0.00000000000E+00 -0.00000000000E+00 -0.24743477438E+04  0.24743477438E+04  0.00000000000E+00 0.  1.
         23    2    1    2    0    0 -0.95028538788E+03 -0.19357355277E+03 -0.11703125997E+04  0.15226474966E+04  0.91163474094E+02 0.  0.
         11    1    3    3    0    0 -0.49768651875E+03 -0.12716290502E+03 -0.55967087774E+03  0.75966687880E+03  0.00000000000E+00 0. -1.
        -11    1    3    3    0    0 -0.45259886913E+03 -0.66410647753E+02 -0.61064172199E+03  0.76298061778E+03  0.00000000000E+00 0.  1.
         22    1    1    2    0    0  0.95028538788E+03  0.19357355277E+03 -0.91939620511E+03  0.13363391863E+04  0.00000000000E+00 0.  1.
<mgrwt>
<rscale>  0 0.19511335E+04</rscale>
<asrwt>0</asrwt>
<pdfrwt beam="1">  1        2 0.38066888E+00 0.19511335E+04</pdfrwt>
<pdfrwt beam="2">  1       -2 0.59175222E-01 0.19511335E+04</pdfrwt>
<totfact> 0.89660035E+00</totfact>
</mgrwt>
</event>
<event>
 6    1  0.1831439E-005  0.9057230E+03  0.7818608E-02  0.9418456E-01
          2   -1    0    0  501    0  0.00000000000E+00  0.00000000000E+00  0.49212180516E+03  0.49212180516E+03  0.00000000000E+00 0. -1.
         -2   -1    0    0    0  501 -0.00000000000E+00 -0.00000000000E+00 -0.41673329320E+03  0.41673329320E+03  0.00000000000E+00 0.  1.
         23    2    1    2    0    0  0.31861218820E+03  0.16609802247E+03 -0.23085873089E+03  0.43674319076E+03  0.91359627354E+02 0.  0.
         13    1    3    3    0    0  0.84357565096E+02  0.60948594339E+02 -0.23483207872E+02  0.10668828892E+03  0.00000000000E+00 0.  1.
        -13    1    3    3    0    0  0.23425462310E+03  0.10514942813E+03 -0.20737552302E+03  0.33005490184E+03  0.00000000000E+00 0. -1.
         22    1    1    2    0    0 -0.31861218820E+03 -0.16609802247E+03  0.30624724286E+03  0.47211190760E+03  0.00000000000E+00 0. -1.
<mgrwt>
<rscale>  0 0.90572301E+03</rscale>
<asrwt>0</asrwt>
<pdfrwt beam="1">  1        2 0.75711048E-01 0.90572301E+03</pdfrwt>
<pdfrwt beam="2">  1       -2 0.64112814E-01 0.90572301E+03</pdfrwt>
<totfact> 0.14157712E+02</totfact>
</mgrwt>
</event>
<event>
 6    1  0.1831439E-005  0.1466233E+04  0.7818608E-02  0.8907223E-01
          1   -1    0    0  501    0  0.00000000000E+00  0.00000000000E+00  0.47395224083E+03  0.47395224083E+03  0.00000000000E+00 0. -1.
         -1   -1    0    0    0  501 -0.00000000000E+00 -0.00000000000E+00 -0.11339962179E+04  0.11339962179E+04  0.00000000000E+00 0.  1.
         23    2    1    2    0    0  0.58460439025E+03  0.39398829100E+03 -0.54011306135E+03  0.89284532554E+03  0.91986899963E+02 0.  0.
         11    1    3    3    0    0  0.34335812908E+03  0.27855278375E+03 -0.30943392934E+03  0.53966268610E+03  0.00000000000E+00 0. -1.
        -11    1    3    3    0    0  0.24124626117E+03  0.11543550725E+03 -0.23067913201E+03  0.35318263944E+03  0.00000000000E+00 0.  1.
         22    1    1    2    0    0 -0.58460439025E+03 -0.39398829100E+03 -0.11993091571E+03  0.71510313318E+03  0.00000000000E+00 0. -1.
<mgrwt>
<rscale>  0 0.14662333E+04</rscale>
<asrwt>0</asrwt>
<pdfrwt beam="1">  1        1 0.72915730E-01 0.14662333E+04</pdfrwt>
<pdfrwt beam="2">  1       -1 0.17446095E+00 0.14662333E+04</pdfrwt>
<totfact> 0.10561130E+01</totfact>
</mgrwt>
</event>
<event>
 6    1  0.1831439E-005  0.4601206E+04  0.7818608E-02  0.7893154E-01
          2   -1    0    0  501    0  0.00000000000E+00  0.00000000000E+00  0.27248445290E+04  0.27248445290E+04  0.00000000000E+00 0. -1.
         -2   -1    0    0    0  501 -0.00000000000E+00 -0.00000000000E+00 -0.19424130831E+04  0.19424130831E+04  0.00000000000E+00 0.  1.
         23    2    1    2    0    0 -0.19060426006E+04  0.39892605623E+03  0.16322782290E+04  0.25425505856E+04  0.89949263096E+02 0.  0.
         11    1    3    3    0    0 -0.71256630064E+03  0.10610348806E+03  0.61700691668E+03  0.94852844882E+03  0.00000000000E+00 0. -1.
        -11    1    3    3    0    0 -0.11934762999E+04  0.29282256817E+03  0.10152713123E+04  0.15940221368E+04  0.00000000000E+00 0.  1.
         22    1    1    2    0    0  0.19060426006E+04 -0.39892605623E+03 -0.84984678310E+03  0.21247070265E+04  0.00000000000E+00 0.  1.
<mgrwt>
<rscale>  0 0.46012058E+04</rscale>
<asrwt>0</asrwt>
<pdfrwt beam="1">  1        2 0.41920685E+00 0.46012058E+04</pdfrwt>
<pdfrwt beam="2">  1       -2 0.29883278E+00 0.46012058E+04</pdfrwt>
<totfact> 0.62309766E-02</totfact>
</mgrwt>
</event>
<event>
 6    1  0.1831439E-005  0.3255697E+04  0.7818608E-02  0.8174261E-01
          2   -1    0    0  501    0  0.00000000000E+00  0.00000000000E+00  0.27456148938E+04  0.27456148938E+04  0.00000000000E+00 0. -1.
         -2   -1    0    0    0  501 -0.00000000000E+00 -0.00000000000E+00 -0.96513537758E+03  0.96513537758E+03  0.00000000000E+00 0.  1.
         23    2    1    2    0    0  0.11430802569E+04 -0.60591533025E+02 -0.42619280426E+03  0.12248487171E+04  0.91160659228E+02 0.  0.
         13    1    3    3    0    0  0.28509087741E+03 -0.51747247477E+02 -0.91593880843E+02  0.30388159703E+03  0.00000000000E+00 0. -1.
        -13    1    3    3    0    0  0.85798937949E+03 -0.88442855476E+01 -0.33459892342E+03  0.92096712008E+03  0.00000000000E+00 0.  1.
         22    1    1    2    0    0 -0.11430802569E+04  0.60591533025E+02  0.22066723205E+04  0.24859015543E+04  0.00000000000E+00 0. -1.
<mgrwt>
<rscale>  0 0.32556966E+04</rscale>
<asrwt>0</asrwt>
<pdfrwt beam="1">  1        2 0.42240229E+00 0.32556966E+04</pdfrwt>
<pdfrwt beam="2">  1       -2 0.14848237E+00 0.32556966E+04</pdfrwt>
<totfact> 0.64313855E-01</totfact>
</mgrwt>
</event>
<event>
 6    1  0.1831439E-005  0.3074832E+04  0.7818608E-02  0.8222679E-01
          2   -1    0    0  501    0  0.00000000000E+00  0.00000000000E+00  0.29464934524E+04  0.29464934524E+04  0.00000000000E+00 0. -1.
         -2   -1    0    0    0  501 -0.00000000000E+00 -0.00000000000E+00 -0.80219009678E+03  0.80219009678E+03  0.00000000000E+00 0.  1.
         23    2    1    2    0    0  0.51264256131E+03  0.46216734280E+02 -0.69154313793E+03  0.86650317363E+03  0.87506891732E+02 0.  0.
         13    1    3    3    0    0  0.46462715122E+03  0.18583898936E+02 -0.59442284464E+03  0.75469349353E+03  0.00000000000E+00 0. -1.
        -13    1    3    3    0    0  0.48015410096E+02  0.27632835344E+02 -0.97120293288E+02  0.11180968010E+03  0.00000000000E+00 0.  1.
         22    1    1    2    0    0 -0.51264256131E+03 -0.46216734280E+02  0.28358464935E+04  0.28821803755E+04  0.00000000000E+00 0. -1.
<mgrwt>
<rscale>  0 0.30748319E+04</rscale>
<asrwt>0</asrwt>
<pdfrwt beam="1">  1        2 0.45330668E+00 0.30748319E+04</pdfrwt>
<pdfrwt beam="2">  1       -2 0.12341386E+00 0.30748319E+04</pdfrwt>
<totfact> 0.79153968E-01</totfact>
</mgrwt>
</event>
<event>
 6    1  0.1831439E-005  0.7837310E+03  0.7818608E-02  0.9583869E-01
         -1   -1    0    0    0  501 -0.00000000000E+00  0.00000000000E+00  0.13834448507E+03  0.13834448507E+03  0.00000000000E+00 0.  1.
          1   -1    0    0  501    0  0.00000000000E+00 -0.00000000000E+00 -0.11099723851E+04  0.11099723851E+04  0.00000000000E+00 0. -1.
         23    2    1    2    0    0  0.30356348594E+03  0.20271478797E+03 -0.28945612562E+03  0.47462287055E+03  0.90763127595E+02 0.  0.
         11    1    3    3    0    0  0.16195046355E+03  0.12865428496E+03 -0.21494139750E+03  0.29829462289E+03  0.00000000000E+00 0. -1.
        -11    1    3    3    0    0  0.14161302240E+03  0.74060503010E+02 -0.74514728114E+02  0.17632824766E+03  0.00000000000E+00 0.  1.
         22    1    1    2    0    0 -0.30356348594E+03 -0.20271478797E+03 -0.68217177444E+03  0.77369399966E+03  0.00000000000E+00 0. -1.
<mgrwt>
<rscale>  0 0.78373097E+03</rscale>
<asrwt>0</asrwt>
<pdfrwt beam="1">  1        1 0.17076497E+00 0.78373097E+03</pdfrwt>
<pdfrwt beam="2">  1       -1 0.21283768E-01 0.78373097E+03</pdfrwt>
<totfact> 0.23208331E+02</totfact>
</mgrwt>
</event>
<event>
 6    1  0.1831439E-005  0.6247732E+03  0.7818608E-02  0.9855302E-01
         -2   -1    0    0    0  501 -0.00000000000E+00  0.00000000000E+00  0.88565804906E+02  0.88565804906E+02  0.00000000000E+00 0.  1.
          2   -1    0    0  501    0  0.00000000000E+00 -0.00000000000E+00 -0.11018403730E+04  0.11018403730E+04  0.00000000000E+00 0. -1.
         23    2    1    2    0    0  0.27396363193E+03 -0.22405552357E+02 -0.77346645692E+03  0.82562403666E+03  0.88581090236E+02 0.  0.
         11    1    3    3    0    0  0.74646527765E+02  0.27721466179E+02 -0.27913137222E+03  0.29026695774E+03  0.00000000000E+00 0.  1.
        -11    1    3    3    0    0  0.19931710416E+03 -0.50127018536E+02 -0.49433508469E+03  0.53535707893E+03  0.00000000000E+00 0. -1.
         22    1    1    2    0    0 -0.27396363193E+03  0.22405552357E+02 -0.23980811123E+03  0.36478214129E+03  0.00000000000E+00 0.  1.
<mgrwt>
<rscale>  0 0.62477317E+03</rscale>
<asrwt>0</asrwt>
<pdfrwt beam="1">  1        2 0.16951389E+00 0.62477317E+03</pdfrwt>
<pdfrwt beam="2">  1       -2 0.13625509E-01 0.62477317E+03</pdfrwt>
<totfact> 0.90362533E+02</totfact>
</mgrwt>
</event>
<event>
 6    1  0.1831439E-005  0.1992288E+04  0.7818608E-02  0.8610235E-01
         -2   -1    0    0    0  501 -0.00000000000E+00  0.00000000000E+00  0.67475555427E+03  0.67475555427E+03  0.00000000000E+00 0. -1.
          2   -1    0    0  501    0  0.00000000000E+00 -0.00000000000E+00 -0.14706111753E+04  0.14706111753E+04  0.00000000000E+00 0.  1.
         23    2    1    2    0    0  0.27544868652E+03  0.90390701948E+03 -0.73029288924E+03  0.11981506241E+04  0.96526344233E+02 0.  0.
         11    1    3    3    0    0  0.60848620390E+02  0.27672285136E+03 -0.17173351425E+03  0.33131630051E+03  0.00000000000E+00 0.  1.
        -11    1    3    3    0    0  0.21460006613E+03  0.62718416813E+03 -0.55855937499E+03  0.86683432357E+03  0.00000000000E+00 0. -1.
         22    1    1    2    0    0 -0.27544868652E+03 -0.90390701948E+03 -0.65562731831E+02  0.94721610553E+03  0.00000000000E+00 0. -1.
<mgrwt>
<rscale>  0 0.19922882E+04</rscale>
<asrwt>0</asrwt>
<pdfrwt beam="1">  1        2 0.22624787E+00 0.19922882E+04</pdfrwt>
<pdfrwt beam="2">  1       -2 0.10380855E+00 0.19922882E+04</pdfrwt>
<totfact> 0.92648215E+00</totfact>
</mgrwt>
</event>
<event>
 6    1  0.1831439E-005  0.3328512E+04  0.7818608E-02  0.8155678E-01
          1   -1    0    0  501    0  0.00000000000E+00  0.00000000000E+00  0.16288645958E+04  0.16288645958E+04  0.00000000000E+00 0. -1.
         -1   -1    0    0    0  501 -0.00000000000E+00 -0.00000000000E+00 -0.17004159753E+04  0.17004159753E+04  0.00000000000E+00 0.  1.
         23    2    1    2    0    0 -0.16673442966E+03  0.16078454740E+04 -0.42650316271E+03  0.16743007506E+04  0.91709417990E+02 0.  0.
         11    1    3    3    0    0 -0.11509035817E+03  0.96612354636E+03 -0.21271898785E+03  0.99593667728E+03  0.00000000000E+00 0. -1.
        -11    1    3    3    0    0 -0.51644071496E+02  0.64172192760E+03 -0.21378417486E+03  0.67836407327E+03  0.00000000000E+00 0.  1.
         22    1    1    2    0    0  0.16673442966E+03 -0.16078454740E+04  0.35495178317E+03  0.16549798206E+04  0.00000000000E+00 0.  1.
<mgrwt>
<rscale>  0 0.33285116E+04</rscale>
<asrwt>0</asrwt>
<pdfrwt beam="1">  1        1 0.25059455E+00 0.33285116E+04</pdfrwt>
<pdfrwt beam="2">  1       -1 0.26160246E+00 0.33285116E+04</pdfrwt>
<totfact> 0.25847167E-01</totfact>
</mgrwt>
</event>
<event>
 6    1  0.1831439E-005  0.2181746E+04  0.7818608E-02  0.8526065E-01
         -2   -1    0    0    0  501 -0.00000000000E+00  0.00000000000E+00  0.69866290834E+03  0.69866290834E+03  0.00000000000E+00 0. -1.
          2   -1    0    0  501    0  0.00000000000E+00 -0.00000000000E+00 -0.17032585305E+04  0.17032585305E+04  0.00000000000E+00 0.  1.
         23    2    1    2    0    0 -0.41542948228E+03  0.43326936007E+03 -0.15033932580E+04  0.16214708801E+04  0.93126438354E+02 0.  0.
         11    1    3    3    0    0 -0.78480976449E+02  0.76386097213E+02 -0.38157803139E+03  0.39698349280E+03  0.00000000000E+00 0.  1.
        -11    1    3    3    0    0 -0.33694850583E+03  0.35688326285E+03 -0.11218152266E+04  0.12244873873E+04  0.00000000000E+00 0. -1.
         22    1    1    2    0    0  0.41542948228E+03 -0.43326936007E+03  0.49879763587E+03  0.78045055876E+03  0.00000000000E+00 0. -1.
<mgrwt>
<rscale>  0 0.21817457E+04</rscale>
<asrwt>0</asrwt>
<pdfrwt beam="1">  1        2 0.26203977E+00 0.21817457E+04</pdfrwt>
<pdfrwt beam="2">  1       -2 0.10748660E+00 0.21817457E+04</pdfrwt>
<totfact> 0.62118663E+00</totfact>
</mgrwt>
</event>
<event>
 6    1  0.1831439E-005  0.3853926E+04  0.7818608E-02  0.8034680E-01
          2   -1    0    0  501    0  0.00000000000E+00  0.00000000000E+00  0.25658700953E+04  0.25658700953E+04  0.00000000000E+00 0. -1.
         -2   -1    0    0    0  501 -0.00000000000E+00 -0.00000000000E+00 -0.14471452736E+04  0.14471452736E+04  0.00000000000E+00 0.  1.
         23    2    1    2    0    0 -0.15945825078E+04  0.18891414730E+03  0.16668568787E+04  0.23163036430E+04  0.92025992631E+02 0.  0.
         11    1    3    3    0    0 -0.80486837826E+03  0.13989138133E+03  0.82849376784E+03  0.11635225087E+04  0.00000000000E+00 0.  1.
        -11    1    3    3    0    0 -0.78971412951E+03  0.49022765969E+02  0.83836311085E+03  0.11527811343E+04  0.00000000000E+00 0. -1.
         22    1    1    2    0    0  0.15945825078E+04 -0.18891414730E+03 -0.54813205697E+03  0.16967117260E+04  0.00000000000E+00 0.  1.
<mgrwt>
<rscale>  0 0.38539262E+04</rscale>
<asrwt>0</asrwt>
<pdfrwt beam="1">  1        2 0.39474925E+00 0.38539262E+04</pdfrwt>
<pdfrwt beam="2">  1       -2 0.22263773E+00 0.38539262E+04</pdfrwt>
<totfact> 0.24193353E-01</totfact>
</mgrwt>
</event>
<event>
 6    1  0.1831439E-005  0.5690101E+04  0.7818608E-02  0.7730060E-01
         -2   -1    0    0    0  501 -0.00000000000E+00  0.00000000000E+00  0.21434768018E+04  0.21434768018E+04  0.00000000000E+00 0.  1.
          2   -1    0    0  501    0  0.00000000000E+00 -0.00000000000E+00 -0.37762537616E+04  0.37762537616E+04  0.00000000000E+00 0. -1.
         23    2    1    2    0    0  0.16073544140E+04  0.97150697262E+03  0.14048115059E+04  0.23484062016E+04  0.11875315029E+03 0.  0.
         13    1    3    3    0    0  0.11070136113E+04  0.62904429490E+03  0.10055278912E+04  0.16224247904E+04  0.00000000000E+00 0. -1.
        -13    1    3    3    0    0  0.50034080263E+03  0.34246267773E+03  0.39928361471E+03  0.72598141119E+03  0.00000000000E+00 0.  1.
         22    1    1    2    0    0 -0.16073544140E+04 -0.97150697262E+03 -0.30375884658E+04  0.35713243618E+04  0.00000000000E+00 0. -1.
<mgrwt>
<rscale>  0 0.56901010E+04</rscale>
<asrwt>0</asrwt>
<pdfrwt beam="1">  1        2 0.58096211E+00 0.56901010E+04</pdfrwt>
<pdfrwt beam="2">  1       -2 0.32976567E+00 0.56901010E+04</pdfrwt>
<totfact> 0.73242728E-03</totfact>
</mgrwt>
</event>
<event>
 6    1  0.1831439E-005  0.1793296E+04  0.7818608E-02  0.8709873E-01
          2   -1    0    0  501    0  0.00000000000E+00  0.00000000000E+00  0.12423641081E+04  0.12423641081E+04  0.00000000000E+00 0. -1.
         -2   -1    0    0    0  501 -0.00000000000E+00 -0.00000000000E+00 -0.64713518720E+03  0.64713518720E+03  0.00000000000E+00 0.  1.
         23    2    1    2    0    0  0.88011454883E+03 -0.10914208859E+03  0.41989103226E+03  0.98547662426E+03  0.91335006672E+02 0.  0.
         11    1    3    3    0    0  0.56490936319E+03 -0.10377789995E+03  0.30186235946E+03  0.64885539621E+03  0.00000000000E+00 0.  1.
        -11    1    3    3    0    0  0.31520518564E+03 -0.53641886431E+01  0.11802867280E+03  0.33662122805E+03  0.00000000000E+00 0. -1.
         22    1    1    2    0    0 -0.88011454883E+03  0.10914208859E+03  0.17533788865E+03  0.90402267104E+03  0.00000000000E+00 0. -1.
<mgrwt>
<rscale>  0 0.17932959E+04</rscale>
<asrwt>0</asrwt>
<pdfrwt beam="1">  1        2 0.19113294E+00 0.17932959E+04</pdfrwt>
<pdfrwt beam="2">  1       -2 0.99559260E-01 0.17932959E+04</pdfrwt>
<totfact> 0.14093689E+01</totfact>
</mgrwt>
</event>
<event>
 6    1  0.1831439E-005  0.2465144E+04  0.7818608E-02  0.8415509E-01
          1   -1    0    0  501    0  0.00000000000E+00  0.00000000000E+00  0.20707461097E+04  0.20707461097E+04  0.00000000000E+00 0. -1.
         -1   -1    0    0    0  501 -0.00000000000E+00 -0.00000000000E+00 -0.73366515553E+03  0.73366515553E+03  0.00000000000E+00 0.  1.
         23    2    1    2    0    0 -0.47602795369E+03  0.60404774348E+03  0.17627764246E+04  0.19253817307E+04  0.90762308821E+02 0.  0.
         11    1    3    3    0    0 -0.11665423722E+03  0.18038964346E+03  0.58380481874E+03  0.62207451396E+03  0.00000000000E+00 0. -1.
        -11    1    3    3    0    0 -0.35937371647E+03  0.42365810002E+03  0.11789716058E+04  0.13033072167E+04  0.00000000000E+00 0.  1.
         22    1    1    2    0    0  0.47602795369E+03 -0.60404774348E+03 -0.42569547041E+03  0.87902953456E+03  0.00000000000E+00 0.  1.
<mgrwt>
<rscale>  0 0.24651444E+04</rscale>
<asrwt>0</asrwt>
<pdfrwt beam="1">  1        1 0.31857632E+00 0.24651444E+04</pdfrwt>
<pdfrwt beam="2">  1       -1 0.11287156E+00 0.24651444E+04</pdfrwt>
<totfact> 0.17061030E+00</totfact>
</mgrwt>
</event>
<event>
 6    1  0.1831439E-005  0.4016880E+04  0.7818608E-02  0.8001150E-01
          2   -1    0    0  501    0  0.00000000000E+00  0.00000000000E+00  0.35680743478E+04  0.35680743478E+04  0.00000000000E+00 0. -1.
         -2   -1    0    0    0  501 -0.00000000000E+00 -0.00000000000E+00 -0.11305343294E+04  0.11305343294E+04  0.00000000000E+00 0.  1.
         23    2    1    2    0    0 -0.29843984708E+03  0.10340683805E+04  0.32014885746E+04  0.33787673403E+04  0.90420619002E+02 0.  0.
         11    1    3    3    0    0 -0.24715859741E+03  0.78939763916E+03  0.25583324865E+04  0.26887359700E+04  0.00000000000E+00 0.  1.
        -11    1    3    3    0    0 -0.51281249662E+02  0.24467074139E+03  0.64315608811E+03  0.69003137025E+03  0.00000000000E+00 0. -1.
         22    1    1    2    0    0  0.29843984708E+03 -0.10340683805E+04 -0.76394855622E+03  0.13198413369E+04  0.00000000000E+00 0.  1.
<mgrwt>
<rscale>  0 0.40168797E+04</rscale>
<asrwt>0</asrwt>
<pdfrwt beam="1">  1        2 0.54893451E+00 0.40168797E+04</pdfrwt>
<pdfrwt beam="2">  1       -2 0.17392836E+00 0.40168797E+04</pdfrwt>
<totfact> 0.11438148E-01</totfact>
</mgrwt>
</event>
<event>
 6    1  0.1831439E-005  0.2001933E+04  0.7818608E-02  0.8605717E-01
          2   -1    0    0  501    0  0.00000000000E+00  0.00000000000E+00  0.22284015466E+04  0.22284015466E+04  0.00000000000E+00 0.  1.
         -2   -1    0    0    0  501 -0.00000000000E+00 -0.00000000000E+00 -0.44962017819E+03  0.44962017819E+03  0.00000000000E+00 0. -1.
         23    2    1    2    0    0  0.27327878915E+03 -0.95035948418E+03  0.70212060225E+03  0.12161520825E+04  0.90488130832E+02 0.  0.
         11    1    3    3    0    0  0.22994998293E+03 -0.67689918321E+03  0.47847079936E+03  0.86023473815E+03  0.00000000000E+00 0. -1.
        -11    1    3    3    0    0  0.43328806218E+02 -0.27346030097E+03  0.22364980288E+03  0.35591734431E+03  0.00000000000E+00 0.  1.
         22    1    1    2    0    0 -0.27327878915E+03  0.95035948418E+03  0.10766607662E+04  0.14618696423E+04  0.00000000000E+00 0.  1.
<mgrwt>
<rscale>  0 0.20019334E+04</rscale>
<asrwt>0</asrwt>
<pdfrwt beam="1">  1        2 0.34283100E+00 0.20019334E+04</pdfrwt>
<pdfrwt beam="2">  1       -2 0.69172337E-01 0.20019334E+04</pdfrwt>
<totfact> 0.88207632E+00</totfact>
</mgrwt>
</event>
<event>
 6    1  0.1831439E-005  0.2678267E+04  0.7818608E-02  0.8342091E-01
         -1   -1    0    0    0  501 -0.00000000000E+00  0.00000000000E+00  0.22596866771E+04  0.22596866771E+04  0.00000000000E+00 0.  1.
          1   -1    0    0  501    0  0.00000000000E+00 -0.00000000000E+00 -0.79359583226E+03  0.79359583226E+03  0.00000000000E+00 0. -1.
         23    2    1    2    0    0 -0.14881320828E+02 -0.11725235175E+04  0.26012585418E-01  0.11759495753E+04  0.88456487241E+02 0.  0.
         13    1    3    3    0    0 -0.41921915552E+02 -0.79647056560E+03  0.26346051030E+02  0.79800809725E+03  0.00000000000E+00 0. -1.
        -13    1    3    3    0    0  0.27040594724E+02 -0.37605295193E+03 -0.26320038444E+02  0.37794147807E+03  0.00000000000E+00 0.  1.
         22    1    1    2    0    0  0.14881320828E+02  0.11725235175E+04  0.14660648322E+04  0.18773329340E+04  0.00000000000E+00 0.  1.
<mgrwt>
<rscale>  0 0.26782666E+04</rscale>
<asrwt>0</asrwt>
<pdfrwt beam="1">  1        1 0.12209167E+00 0.26782666E+04</pdfrwt>
<pdfrwt beam="2">  1       -1 0.34764410E+00 0.26782666E+04</pdfrwt>
<totfact> 0.31556445E-01</totfact>
</mgrwt>
</event>
<event>
 6    1  0.1831439E-005  0.2124821E+04  0.7818608E-02  0.8550388E-01
         -2   -1    0    0    0  501 -0.00000000000E+00  0.00000000000E+00  0.36018100326E+03  0.36018100326E+03  0.00000000000E+00 0.  1.
          2   -1    0    0  501    0  0.00000000000E+00 -0.00000000000E+00 -0.31337477989E+04  0.31337477989E+04  0.00000000000E+00 0. -1.
         23    2    1    2    0    0  0.11416787452E+03  0.35356165189E+03 -0.30226264172E+04  0.30466360118E+04  0.87637804955E+02 0.  0.
         11    1    3    3    0    0  0.12187834207E+03  0.25817934516E+03 -0.23319248596E+04  0.23493370246E+04  0.00000000000E+00 0.  1.
        -11    1    3    3    0    0 -0.77104675440E+01  0.95382306730E+02 -0.69070155765E+03  0.69729898715E+03  0.00000000000E+00 0. -1.
         22    1    1    2    0    0 -0.11416787452E+03 -0.35356165189E+03  0.24905962156E+03  0.44729279041E+03  0.00000000000E+00 0.  1.
<mgrwt>
<rscale>  0 0.21248213E+04</rscale>
<asrwt>0</asrwt>
<pdfrwt beam="1">  1        2 0.48211503E+00 0.21248213E+04</pdfrwt>
<pdfrwt beam="2">  1       -2 0.55412463E-01 0.21248213E+04</pdfrwt>
<totfact> 0.40391665E+00</totfact>
</mgrwt>
</event>
<event>
 6    1  0.1831439E-005  0.5115846E+03  0.7818608E-02  0.1010799E+00
         -2   -1    0    0    0  501 -0.00000000000E+00  0.00000000000E+00  0.46446019514E+02  0.46446019514E+02  0.00000000000E+00 0.  1.
          2   -1    0    0  501    0  0.00000000000E+00 -0.00000000000E+00 -0.14087257658E+04  0.14087257658E+04  0.00000000000E+00 0. -1.
         23    2    1    2    0    0  0.11234492411E+03  0.14124570085E+03 -0.11849420523E+04  0.12021492810E+04  0.92214405184E+02 0.  0.
         13    1    3    3    0    0  0.39414420387E+02  0.11850882308E+03 -0.66513292159E+03  0.67675670744E+03  0.00000000000E+00 0. -1.
        -13    1    3    3    0    0  0.72930503723E+02  0.22736877763E+02 -0.51980913070E+03  0.52539257355E+03  0.00000000000E+00 0.  1.
         22    1    1    2    0    0 -0.11234492411E+03 -0.14124570085E+03 -0.17733769399E+03  0.25302250432E+03  0.00000000000E+00 0.  1.
<mgrwt>
<rscale>  0 0.51158461E+03</rscale>
<asrwt>0</asrwt>
<pdfrwt beam="1">  1        2 0.21672707E+00 0.51158461E+03</pdfrwt>
<pdfrwt beam="2">  1       -2 0.71455406E-02 0.51158461E+03</pdfrwt>
<totfact> 0.17137788E+03</totfact>
</mgrwt>
</event>
<event>
 6    1  0.1831439E-005  0.7578020E+04  0.7818608E-02  0.7520594E-01
          2   -1    0    0  501    0  0.00000000000E+00  0.00000000000E+00  0.39556400064E+04  0.39556400064E+04  0.00000000000E+00 0. -1.
         -2   -1    0    0    0  501 -0.00000000000E+00 -0.00000000000E+00 -0.36293990065E+04  0.36293990065E+04  0.00000000000E+00 0.  1.
         23    2    1    2    0    0  0.22278985049E+04  0.18488680233E+04  0.26088684889E+04  0.38982744464E+04  0.92217955169E+02 0.  0.
         11    1    3    3    0    0  0.17290602786E+04  0.14254280492E+04  0.19675727522E+04  0.29820860326E+04  0.00000000000E+00 0. -1.
        -11    1    3    3    0    0  0.49883822623E+03  0.42343997410E+03  0.64129573677E+03  0.91618841382E+03  0.00000000000E+00 0.  1.
         22    1    1    2    0    0 -0.22278985049E+04 -0.18488680233E+04 -0.22826274890E+04  0.36867645666E+04  0.00000000000E+00 0.  1.
<mgrwt>
<rscale>  0 0.75780198E+04</rscale>
<asrwt>0</asrwt>
<pdfrwt beam="1">  1        2 0.60856000E+00 0.75780198E+04</pdfrwt>
<pdfrwt beam="2">  1       -2 0.55836908E+00 0.75780198E+04</pdfrwt>
<totfact> 0.17591926E-04</totfact>
</mgrwt>
</event>
<event>
 6    1  0.1831439E-005  0.1034586E+04  0.7818608E-02  0.9271404E-01
         -2   -1    0    0    0  501 -0.00000000000E+00  0.00000000000E+00  0.30590986261E+03  0.30590986261E+03  0.00000000000E+00 0.  1.
          2   -1    0    0  501    0  0.00000000000E+00 -0.00000000000E+00 -0.87474192462E+03  0.87474192462E+03  0.00000000000E+00 0. -1.
         23    2    1    2    0    0 -0.49884467869E+03  0.10488197576E+02 -0.14994531750E+03  0.52917491083E+03  0.92663219607E+02 0.  0.
         13    1    3    3    0    0 -0.25755313017E+03 -0.31894265491E+02 -0.10572944082E+03  0.28023128606E+03  0.00000000000E+00 0.  1.
        -13    1    3    3    0    0 -0.24129154853E+03  0.42382463067E+02 -0.44215876676E+02  0.24894362477E+03  0.00000000000E+00 0. -1.
         22    1    1    2    0    0  0.49884467869E+03 -0.10488197576E+02 -0.41888674452E+03  0.65147687640E+03  0.00000000000E+00 0. -1.
<mgrwt>
<rscale>  0 0.10345863E+04</rscale>
<asrwt>0</asrwt>
<pdfrwt beam="1">  1        2 0.13457568E+00 0.10345863E+04</pdfrwt>
<pdfrwt beam="2">  1       -2 0.47063056E-01 0.10345863E+04</pdfrwt>
<totfact> 0.13007910E+02</totfact>
</mgrwt>
</event>
<event>
 6    1  0.1831439E-005  0.5056600E+03  0.7818608E-02  0.1012312E+00
         -1   -1    0    0    0  501 -0.00000000000E+00  0.00000000000E+00  0.98660051272E+02  0.98660051272E+02  0.00000000000E+00 0.  1.
          1   -1    0    0  501    0  0.00000000000E+00 -0.00000000000E+00 -0.64791173143E+03  0.64791173143E+03  0.00000000000E+00 0. -1.
         23    2    1    2    0    0  0.74438649907E+02  0.67374944462E+02 -0.61235531679E+03  0.62798609766E+03  0.96472841319E+02 0.  0.
         11    1    3    3    0    0  0.90921879628E+02  0.77106864861E+02 -0.50030306639E+03  0.51431062116E+03  0.00000000000E+00 0.  1.
        -11    1    3    3    0    0 -0.16483229721E+02 -0.97319203986E+01 -0.11205225040E+03  0.11367547650E+03  0.00000000000E+00 0. -1.
         22    1    1    2    0    0 -0.74438649907E+02 -0.67374944462E+02  0.63103636631E+02  0.11858568504E+03  0.00000000000E+00 0.  1.
<mgrwt>
<rscale>  0 0.50565998E+03</rscale>
<asrwt>0</asrwt>
<pdfrwt beam="1">  1        1 0.99678727E-01 0.50565998E+03</pdfrwt>
<pdfrwt beam="2">  1       -1 0.15178470E-01 0.50565998E+03</pdfrwt>
<totfact> 0.99373343E+02</totfact>
</mgrwt>
</event>
<event>
 6    1  0.1831439E-005  0.3848967E+04  0.7818608E-02  0.8035728E-01
          2   -1    0    0  501    0  0.00000000000E+00  0.00000000000E+00  0.23483100777E+04  0.23483100777E+04  0.00000000000E+00 0. -1.
         -2   -1    0    0    0  501 -0.00000000000E+00 -0.00000000000E+00 -0.15771499294E+04  0.15771499294E+04  0.00000000000E+00 0.  1.
         23    2    1    2    0    0 -0.16045526115E+04  0.29618545716E+03  0.14244744421E+04  0.21678666314E+04  0.90572552851E+02 0.  0.
         11    1    3    3    0    0 -0.31776602003E+03  0.93604379374E+02  0.27307440979E+03  0.42930951143E+03  0.00000000000E+00 0.  1.
        -11    1    3    3    0    0 -0.12867865915E+04  0.20258107779E+03  0.11514000323E+04  0.17385571200E+04  0.00000000000E+00 0. -1.
         22    1    1    2    0    0  0.16045526115E+04 -0.29618545716E+03 -0.65331429374E+03  0.17575933757E+04  0.00000000000E+00 0.  1.
<mgrwt>
<rscale>  0 0.38489672E+04</rscale>
<asrwt>0</asrwt>
<pdfrwt beam="1">  1        2 0.36127848E+00 0.38489672E+04</pdfrwt>
<pdfrwt beam="2">  1       -2 0.24263845E+00 0.38489672E+04</pdfrwt>
<totfact> 0.24246695E-01</totfact>
</mgrwt>
</event>
<event>
 6    1  0.1831439E-005  0.3646640E+04  0.7818608E-02  0.8079891E-01
          1   -1    0    0  501    0  0.00000000000E+00  0.00000000000E+00  0.26437787206E+04  0.26437787206E+04  0.00000000000E+00 0. -1.
         -1   -1    0    0    0  501 -0.00000000000E+00 -0.00000000000E+00 -0.12574789371E+04  0.12574789371E+04  0.00000000000E+00 0.  1.
         23    2    1    2    0    0  0.12897322868E+04 -0.78641935196E+03 -0.39652580064E+03  0.15645223642E+04  0.92912586977E+02 0.  0.
         11    1    3    3    0    0  0.11312900425E+04 -0.70596686064E+03 -0.32193994973E+03  0.13718059993E+04  0.00000000000E+00 0.  1.
        -11    1    3    3    0    0  0.15844224432E+03 -0.80452491316E+02 -0.74585850902E+02  0.19271636489E+03  0.00000000000E+00 0. -1.
         22    1    1    2    0    0 -0.12897322868E+04  0.78641935196E+03  0.17828255841E+04  0.23367352935E+04  0.00000000000E+00 0. -1.
<mgrwt>
<rscale>  0 0.36466401E+04</rscale>
<asrwt>0</asrwt>
<pdfrwt beam="1">  1        1 0.40673519E+00 0.36466401E+04</pdfrwt>
<pdfrwt beam="2">  1       -1 0.19345830E+00 0.36466401E+04</pdfrwt>
<totfact> 0.14475382E-01</totfact>
</mgrwt>
</event>
<event>
 6    1  0.1831439E-005  0.2939251E+04  0.7818608E-02  0.8261294E-01
          2   -1    0    0  501    0  0.00000000000E+00  0.00000000000E+00  0.10734866088E+04  0.10734866088E+04  0.00000000000E+00 0. -1.
         -2   -1    0    0    0  501 -0.00000000000E+00 -0.00000000000E+00 -0.20119478482E+04  0.20119478482E+04  0.00000000000E+00 0.  1.
         23    2    1    2    0    0  0.10398335125E+04 -0.42099357348E+03 -0.14645424803E+04  0.18463820793E+04  0.75847107611E+02 0.  0.
         11    1    3    3    0    0  0.23235109244E+03 -0.64549653806E+02 -0.33903293716E+03  0.41604930049E+03  0.00000000000E+00 0.  1.
        -11    1    3    3    0    0  0.80748242003E+03 -0.35644391967E+03 -0.11255095431E+04  0.14303327788E+04  0.00000000000E+00 0. -1.
         22    1    1    2    0    0 -0.10398335125E+04  0.42099357348E+03  0.52608124086E+03  0.12390523776E+04  0.00000000000E+00 0. -1.
<mgrwt>
<rscale>  0 0.29392510E+04</rscale>
<asrwt>0</asrwt>
<pdfrwt beam="1">  1        2 0.16515179E+00 0.29392510E+04</pdfrwt>
<pdfrwt beam="2">  1       -2 0.30953043E+00 0.29392510E+04</pdfrwt>
<totfact> 0.54073100E-01</totfact>
</mgrwt>
</event>
<event>
 6    1  0.2961901E-005  0.3159826E+04  0.7818608E-02  0.8199508E-01
          2   -1    0    0  501    0  0.00000000000E+00  0.00000000000E+00  0.34912644110E+04  0.34912644110E+04  0.00000000000E+00 0.  1.
         -2   -1    0    0    0  501 -0.00000000000E+00 -0.00000000000E+00 -0.71496288495E+03  0.71496288495E+03  0.00000000000E+00 0. -1.
         23    2    1    2    0    0  0.36140113911E+03 -0.15342331410E+04  0.12620612439E+04  0.20204995576E+04  0.71678202437E+02 0.  0.
         13    1    3    3    0    0  0.14028465395E+03 -0.51406208860E+03  0.39058037720E+03  0.66067590097E+03  0.00000000000E+00 0. -1.
        -13    1    3    3    0    0  0.22111648517E+03 -0.10201710524E+04  0.87148086670E+03  0.13598236566E+04  0.00000000000E+00 0.  1.
         22    1    1    2    0    0 -0.36140113911E+03  0.15342331410E+04  0.15142402822E+04  0.21857277384E+04  0.00000000000E+00 0. -1.
<mgrwt>
<rscale>  0 0.31598256E+04</rscale>
<asrwt>0</asrwt>
<pdfrwt beam="1">  1        2 0.53711759E+00 0.31598256E+04</pdfrwt>
<pdfrwt beam="2">  1       -2 0.10999429E+00 0.31598256E+04</pdfrwt>
<totfact> 0.45717997E-01</totfact>
</mgrwt>
</event>
<event>
 6    1  0.1831439E-005  0.1581624E+04  0.7818608E-02  0.8831917E-01
         -2   -1    0    0    0  501 -0.00000000000E+00  0.00000000000E+00  0.21288675623E+03  0.21288675623E+03  0.00000000000E+00 0.  1.
          2   -1    0    0  501    0  0.00000000000E+00 -0.00000000000E+00 -0.29376361007E+04  0.29376361007E+04  0.00000000000E+00 0. -1.
         23    2    1    2    0    0 -0.14358037886E+03  0.50790542405E+03 -0.20137387577E+03  0.57253779084E+03  0.93085117663E+02 0.  0.
         13    1    3    3    0    0 -0.11102736905E+03  0.22641789454E+03 -0.10610191675E+03  0.27358683518E+03  0.00000000000E+00 0. -1.
        -13    1    3    3    0    0 -0.32553009813E+02  0.28148752951E+03 -0.95271959019E+02  0.29895095566E+03  0.00000000000E+00 0.  1.
         22    1    1    2    0    0  0.14358037886E+03 -0.50790542405E+03 -0.25233754687E+04  0.25779850661E+04  0.00000000000E+00 0. -1.
<mgrwt>
<rscale>  0 0.15816243E+04</rscale>
<asrwt>0</asrwt>
<pdfrwt beam="1">  1        2 0.45194398E+00 0.15816243E+04</pdfrwt>
<pdfrwt beam="2">  1       -2 0.32751811E-01 0.15816243E+04</pdfrwt>
<totfact> 0.15986946E+01</totfact>
</mgrwt>
</event>
<event>
 6    1  0.1831439E-005  0.9808340E+03  0.7818608E-02  0.9329819E-01
          1   -1    0    0  501    0  0.00000000000E+00  0.00000000000E+00  0.65988756218E+03  0.65988756218E+03  0.00000000000E+00 0. -1.
         -1   -1    0    0    0  501 -0.00000000000E+00 -0.00000000000E+00 -0.36446938054E+03  0.36446938054E+03  0.00000000000E+00 0.  1.
         23    2    1    2    0    0 -0.48299677743E+02  0.30303696358E+03  0.54303992204E+03  0.63004642234E+03  0.88892503687E+02 0.  0.
         13    1    3    3    0    0 -0.73897007253E+02  0.21206593944E+03  0.39635212227E+03  0.45555212125E+03  0.00000000000E+00 0.  1.
        -13    1    3    3    0    0  0.25597329510E+02  0.90971024133E+02  0.14668779978E+03  0.17449430109E+03  0.00000000000E+00 0. -1.
         22    1    1    2    0    0  0.48299677743E+02 -0.30303696358E+03 -0.24762174040E+03  0.39431052038E+03  0.00000000000E+00 0.  1.
<mgrwt>
<rscale>  0 0.98083395E+03</rscale>
<asrwt>0</asrwt>
<pdfrwt beam="1">  1        1 0.10152116E+00 0.98083395E+03</pdfrwt>
<pdfrwt beam="2">  1       -1 0.56072213E-01 0.98083395E+03</pdfrwt>
<totfact> 0.96177854E+01</totfact>
</mgrwt>
</event>
<event>
 6    1  0.1831439E-005  0.9395644E+03  0.7818608E-02  0.9377432E-01
          2   -1    0    0  501    0  0.00000000000E+00  0.00000000000E+00  0.12522872706E+04  0.12522872706E+04  0.00000000000E+00 0. -1.
         -2   -1    0    0    0  501 -0.00000000000E+00 -0.00000000000E+00 -0.17623378435E+03  0.17623378435E+03  0.00000000000E+00 0.  1.
         23    2    1    2    0    0 -0.34582333227E+03  0.21524503503E+03  0.19951864277E+03  0.46196141681E+03  0.87615407111E+02 0.  0.
         13    1    3    3    0    0 -0.12956101772E+03  0.10263233126E+03  0.38328834756E+02  0.16967189604E+03  0.00000000000E+00 0.  1.
        -13    1    3    3    0    0 -0.21626231455E+03  0.11261270377E+03  0.16118980802E+03  0.29228952077E+03  0.00000000000E+00 0. -1.
         22    1    1    2    0    0  0.34582333227E+03 -0.21524503503E+03  0.87653484349E+03  0.96655963815E+03  0.00000000000E+00 0. -1.
<mgrwt>
<rscale>  0 0.93956442E+03</rscale>
<asrwt>0</asrwt>
<pdfrwt beam="1">  1        2 0.19265957E+00 0.93956442E+03</pdfrwt>
<pdfrwt beam="2">  1       -2 0.27112891E-01 0.93956442E+03</pdfrwt>
<totfact> 0.21803079E+02</totfact>
</mgrwt>
</event>
<event>
 6    1  0.1831439E-005  0.3936431E+04  0.7818608E-02  0.8017495E-01
         -1   -1    0    0    0  501 -0.00000000000E+00  0.00000000000E+00  0.20088184016E+04  0.20088184016E+04  0.00000000000E+00 0.  1.
          1   -1    0    0  501    0  0.00000000000E+00 -0.00000000000E+00 -0.19284330303E+04  0.19284330303E+04  0.00000000000E+00 0. -1.
         23    2    1    2    0    0 -0.17747812936E+04 -0.82747630918E+03 -0.14657471085E+03  0.19659380217E+04  0.94140729776E+02 0.  0.
         13    1    3    3    0    0 -0.12479935806E+04 -0.55496416098E+03 -0.13798127093E+03  0.13727753014E+04  0.00000000000E+00 0.  1.
        -13    1    3    3    0    0 -0.52678771303E+03 -0.27251214819E+03 -0.85934399151E+01  0.59316272027E+03  0.00000000000E+00 0. -1.
         22    1    1    2    0    0  0.17747812936E+04  0.82747630918E+03  0.22696008220E+03  0.19713134102E+04  0.00000000000E+00 0. -1.
<mgrwt>
<rscale>  0 0.39364307E+04</rscale>
<asrwt>0</asrwt>
<pdfrwt beam="1">  1        1 0.29668200E+00 0.39364307E+04</pdfrwt>
<pdfrwt beam="2">  1       -1 0.30904899E+00 0.39364307E+04</pdfrwt>
<totfact> 0.75620939E-02</totfact>
</mgrwt>
</event>
<event>
 6    1  0.1831439E-005  0.3567885E+04  0.7818608E-02  0.8097888E-01
          1   -1    0    0  501    0  0.00000000000E+00  0.00000000000E+00  0.11310413806E+04  0.11310413806E+04  0.00000000000E+00 0. -1.
         -1   -1    0    0    0  501 -0.00000000000E+00 -0.00000000000E+00 -0.28137358482E+04  0.28137358482E+04  0.00000000000E+00 0.  1.
         23    2    1    2    0    0  0.16121931549E+04 -0.70760849485E+03 -0.11515585801E+04  0.21057606759E+04  0.90908251087E+02 0.  0.
         13    1    3    3    0    0  0.97040989656E+03 -0.37711894598E+03 -0.67882054873E+03  0.12428641938E+04  0.00000000000E+00 0.  1.
        -13    1    3    3    0    0  0.64178325833E+03 -0.33048954887E+03 -0.47273803134E+03  0.86289648213E+03  0.00000000000E+00 0. -1.
         22    1    1    2    0    0 -0.16121931549E+04  0.70760849485E+03 -0.53113588758E+03  0.18390165529E+04  0.00000000000E+00 0.  1.
<mgrwt>
<rscale>  0 0.35678855E+04</rscale>
<asrwt>0</asrwt>
<pdfrwt beam="1">  1        1 0.17400637E+00 0.35678855E+04</pdfrwt>
<pdfrwt beam="2">  1       -1 0.43288244E+00 0.35678855E+04</pdfrwt>
<totfact> 0.41377907E-02</totfact>
</mgrwt>
</event>
<event>
 6    1  0.1831439E-005  0.1963077E+04  0.7818608E-02  0.8624081E-01
         -1   -1    0    0    0  501 -0.00000000000E+00  0.00000000000E+00  0.10475072009E+04  0.10475072009E+04  0.00000000000E+00 0.  1.
          1   -1    0    0  501    0  0.00000000000E+00 -0.00000000000E+00 -0.91972414985E+03  0.91972414985E+03  0.00000000000E+00 0. -1.
         23    2    1    2    0    0  0.83822513953E+03  0.43467274217E+03 -0.19659220341E+03  0.96884210652E+03  0.91895351340E+02 0.  0.
         13    1    3    3    0    0  0.27466526699E+03  0.94852655409E+02 -0.57442856253E+02  0.29620553145E+03  0.00000000000E+00 0. -1.
        -13    1    3    3    0    0  0.56355987255E+03  0.33982008676E+03 -0.13914934716E+03  0.67263657507E+03  0.00000000000E+00 0.  1.
         22    1    1    2    0    0 -0.83822513953E+03 -0.43467274217E+03  0.32437525449E+03  0.99838924426E+03  0.00000000000E+00 0.  1.
<mgrwt>
<rscale>  0 0.19630768E+04</rscale>
<asrwt>0</asrwt>
<pdfrwt beam="1">  1        1 0.14149602E+00 0.19630768E+04</pdfrwt>
<pdfrwt beam="2">  1       -1 0.16115495E+00 0.19630768E+04</pdfrwt>
<totfact> 0.46735346E+00</totfact>
</mgrwt>
</event>
<event>
 6    1  0.1831439E-005  0.1895602E+04  0.7818608E-02  0.8657048E-01
          2   -1    0    0  501    0  0.00000000000E+00  0.00000000000E+00  0.16008986110E+04  0.16008986110E+04  0.00000000000E+00 0. -1.
         -2   -1    0    0    0  501 -0.00000000000E+00 -0.00000000000E+00 -0.56113927502E+03  0.56113927502E+03  0.00000000000E+00 0.  1.
         23    2    1    2    0    0 -0.54129102108E+03  0.37275793856E+03 -0.25448870998E+03  0.71047925657E+03  0.89843309409E+02 0.  0.
         13    1    3    3    0    0 -0.84302246327E+02  0.99071828464E+02 -0.38310397841E+02  0.13560893228E+03  0.00000000000E+00 0. -1.
        -13    1    3    3    0    0 -0.45698877475E+03  0.27368611009E+03 -0.21617831214E+03  0.57487032429E+03  0.00000000000E+00 0.  1.
         22    1    1    2    0    0  0.54129102108E+03 -0.37275793856E+03  0.12942480459E+04  0.14515586294E+04  0.00000000000E+00 0. -1.
<mgrwt>
<rscale>  0 0.18956024E+04</rscale>
<asrwt>0</asrwt>
<pdfrwt beam="1">  1        2 0.24629209E+00 0.18956024E+04</pdfrwt>
<pdfrwt beam="2">  1       -2 0.86329120E-01 0.18956024E+04</pdfrwt>
<totfact> 0.12136715E+01</totfact>
</mgrwt>
</event>
<event>
 6    1  0.1831439E-005  0.3212562E+04  0.7818608E-02  0.8185508E-01
         -1   -1    0    0    0  501 -0.00000000000E+00  0.00000000000E+00  0.25227525721E+04  0.25227525721E+04  0.00000000000E+00 0.  1.
          1   -1    0    0  501    0  0.00000000000E+00 -0.00000000000E+00 -0.10227471242E+04  0.10227471242E+04  0.00000000000E+00 0. -1.
         23    2    1    2    0    0 -0.12901486884E+04  0.71882944456E+03  0.56946512215E+02  0.14806465538E+04  0.88723748333E+02 0.  0.
         11    1    3    3    0    0 -0.34571629682E+03  0.15836233296E+03  0.39340622891E+02  0.38229055834E+03  0.00000000000E+00 0. -1.
        -11    1    3    3    0    0 -0.94443239158E+03  0.56046711159E+03  0.17605889324E+02  0.10983559955E+04  0.00000000000E+00 0.  1.
         22    1    1    2    0    0  0.12901486884E+04 -0.71882944456E+03  0.14430589357E+04  0.20648531426E+04  0.00000000000E+00 0.  1.
<mgrwt>
<rscale>  0 0.32125616E+04</rscale>
<asrwt>0</asrwt>
<pdfrwt beam="1">  1        1 0.15734571E+00 0.32125616E+04</pdfrwt>
<pdfrwt beam="2">  1       -1 0.38811578E+00 0.32125616E+04</pdfrwt>
<totfact> 0.10457504E-01</totfact>
</mgrwt>
</event>
<event>
 6    1  0.1831439E-005  0.3075656E+04  0.7818608E-02  0.8222451E-01
          2   -1    0    0  501    0  0.00000000000E+00  0.00000000000E+00  0.13795731928E+04  0.13795731928E+04  0.00000000000E+00 0. -1.
         -2   -1    0    0    0  501 -0.00000000000E+00 -0.00000000000E+00 -0.17142370220E+04  0.17142370220E+04  0.00000000000E+00 0.  1.
         23    2    1    2    0    0 -0.73618587912E+03  0.78260471349E+03  0.93741510563E+03  0.14286902183E+04  0.89268545951E+02 0.  0.
         13    1    3    3    0    0 -0.13501872812E+03  0.15582276210E+03  0.13640478281E+03  0.24721863786E+03  0.00000000000E+00 0. -1.
        -13    1    3    3    0    0 -0.60116715100E+03  0.62678195139E+03  0.80101032282E+03  0.11814715804E+04  0.00000000000E+00 0.  1.
         22    1    1    2    0    0  0.73618587912E+03 -0.78260471349E+03 -0.12720789349E+04  0.16651199965E+04  0.00000000000E+00 0.  1.
<mgrwt>
<rscale>  0 0.30756563E+04</rscale>
<asrwt>0</asrwt>
<pdfrwt beam="1">  1        2 0.21224203E+00 0.30756563E+04</pdfrwt>
<pdfrwt beam="2">  1       -2 0.26372877E+00 0.30756563E+04</pdfrwt>
<totfact> 0.66952685E-01</totfact>
</mgrwt>
</event>
<event>
 6    1  0.1831439E-005  0.1457302E+04  0.7818608E-02  0.8913354E-01
          2   -1    0    0  501    0  0.00000000000E+00  0.00000000000E+00  0.21773451659E+04  0.21773451659E+04  0.00000000000E+00 0. -1.
         -2   -1    0    0    0  501 -0.00000000000E+00 -0.00000000000E+00 -0.24384383500E+03  0.24384383500E+03  0.00000000000E+00 0.  1.
         23    2    1    2    0    0 -0.46127265085E+02 -0.46499037525E+03  0.47925060765E+02  0.47857693356E+03  0.91625849119E+02 0.  0.
         13    1    3    3    0    0  0.25753294853E+02 -0.13078842071E+03 -0.62899180787E+00  0.13330130839E+03  0.00000000000E+00 0.  1.
        -13    1    3    3    0    0 -0.71880559939E+02 -0.33420195454E+03  0.48554052573E+02  0.34527562517E+03  0.00000000000E+00 0. -1.
         22    1    1    2    0    0  0.46127265085E+02  0.46499037525E+03  0.18855762701E+04  0.19426120673E+04  0.00000000000E+00 0. -1.
<mgrwt>
<rscale>  0 0.14573019E+04</rscale>
<asrwt>0</asrwt>
<pdfrwt beam="1">  1        2 0.33497617E+00 0.14573019E+04</pdfrwt>
<pdfrwt beam="2">  1       -2 0.37514438E-01 0.14573019E+04</pdfrwt>
<totfact> 0.34583740E+01</totfact>
</mgrwt>
</event>
<event>
 6    1  0.1831439E-005  0.3510314E+04  0.7818608E-02  0.8111350E-01
          1   -1    0    0  501    0  0.00000000000E+00  0.00000000000E+00  0.15494395621E+04  0.15494395621E+04  0.00000000000E+00 0. -1.
         -1   -1    0    0    0  501 -0.00000000000E+00 -0.00000000000E+00 -0.19881873193E+04  0.19881873193E+04  0.00000000000E+00 0.  1.
         23    2    1    2    0    0 -0.74665412215E+03  0.66354377926E+03 -0.16724380945E+04  0.19502470990E+04  0.92907707588E+02 0.  0.
         11    1    3    3    0    0 -0.26527676025E+03  0.17888600789E+03 -0.51774668439E+03  0.60863255955E+03  0.00000000000E+00 0. -1.
        -11    1    3    3    0    0 -0.48137736190E+03  0.48465777137E+03 -0.11546914101E+04  0.13416145395E+04  0.00000000000E+00 0.  1.
         22    1    1    2    0    0  0.74665412215E+03 -0.66354377926E+03  0.12336903373E+04  0.15873797823E+04  0.00000000000E+00 0. -1.
<mgrwt>
<rscale>  0 0.35103140E+04</rscale>
<asrwt>0</asrwt>
<pdfrwt beam="1">  1        1 0.23837532E+00 0.35103140E+04</pdfrwt>
<pdfrwt beam="2">  1       -1 0.30587497E+00 0.35103140E+04</pdfrwt>
<totfact> 0.14905010E-01</totfact>
</mgrwt>
</event>
<event>
 6    1  0.1831439E-005  0.2144783E+04  0.7818608E-02  0.8541769E-01
         -2   -1    0    0    0  501 -0.00000000000E+00  0.00000000000E+00  0.34637235193E+03  0.34637235193E+03  0.00000000000E+00 0.  1.
          2   -1    0    0  501    0  0.00000000000E+00 -0.00000000000E+00 -0.33201955051E+04  0.33201955051E+04  0.00000000000E+00 0. -1.
         23    2    1    2    0    0 -0.76063409030E+03  0.61160375628E+03 -0.22411478115E+04  0.24461431234E+04  0.90825620834E+02 0.  0.
         11    1    3    3    0    0 -0.57388842778E+03  0.45520601632E+03 -0.15796492717E+04  0.17412214869E+04  0.00000000000E+00 0. -1.
        -11    1    3    3    0    0 -0.18674566252E+03  0.15639773996E+03 -0.66149853976E+03  0.70492163652E+03  0.00000000000E+00 0.  1.
         22    1    1    2    0    0  0.76063409030E+03 -0.61160375628E+03 -0.73267534166E+03  0.12204247336E+04  0.00000000000E+00 0.  1.
<mgrwt>
<rscale>  0 0.21447834E+04</rscale>
<asrwt>0</asrwt>
<pdfrwt beam="1">  1        2 0.51079929E+00 0.21447834E+04</pdfrwt>
<pdfrwt beam="2">  1       -2 0.53288056E-01 0.21447834E+04</pdfrwt>
<totfact> 0.33011340E+00</totfact>
</mgrwt>
</event>
<event>
 6    1  0.1831439E-005  0.1630197E+04  0.7818608E-02  0.8802208E-01
         -1   -1    0    0    0  501 -0.00000000000E+00  0.00000000000E+00  0.11201708305E+04  0.11201708305E+04  0.00000000000E+00 0.  1.
          1   -1    0    0  501    0  0.00000000000E+00 -0.00000000000E+00 -0.59311111578E+03  0.59311111578E+03  0.00000000000E+00 0. -1.
         23    2    1    2    0    0  0.17935391434E+03 -0.74942851340E+03 -0.64645879811E+01  0.77602045405E+03  0.91405858234E+02 0.  0.
         13    1    3    3    0    0  0.11256610550E+03 -0.33692521471E+03  0.30354322502E+02  0.35652645527E+03  0.00000000000E+00 0. -1.
        -13    1    3    3    0    0  0.66787808832E+02 -0.41250329869E+03 -0.36818910483E+02  0.41949399878E+03  0.00000000000E+00 0.  1.
         22    1    1    2    0    0 -0.17935391434E+03  0.74942851340E+03  0.53352430274E+03  0.93726149228E+03  0.00000000000E+00 0.  1.
<mgrwt>
<rscale>  0 0.16301973E+04</rscale>
<asrwt>0</asrwt>
<pdfrwt beam="1">  1        1 0.91247864E-01 0.16301973E+04</pdfrwt>
<pdfrwt beam="2">  1       -1 0.17233397E+00 0.16301973E+04</pdfrwt>
<totfact> 0.78842142E+00</totfact>
</mgrwt>
</event>
<event>
 6    1  0.1831439E-005  0.6330636E+04  0.7818608E-02  0.7650706E-01
         -2   -1    0    0    0  501 -0.00000000000E+00  0.00000000000E+00  0.30664318266E+04  0.30664318266E+04  0.00000000000E+00 0. -1.
          2   -1    0    0  501    0  0.00000000000E+00 -0.00000000000E+00 -0.32673928679E+04  0.32673928679E+04  0.00000000000E+00 0.  1.
         23    2    1    2    0    0 -0.28241341584E+04 -0.13014956271E+04  0.48764791240E+03  0.31488903305E+04  0.89917825532E+02 0.  0.
         13    1    3    3    0    0 -0.14925915879E+04 -0.68691126404E+03  0.30308086217E+03  0.16707886587E+04  0.00000000000E+00 0. -1.
        -13    1    3    3    0    0 -0.13315425705E+04 -0.61458436305E+03  0.18456705023E+03  0.14781016718E+04  0.00000000000E+00 0.  1.
         22    1    1    2    0    0  0.28241341584E+04  0.13014956271E+04 -0.68860895362E+03  0.31849343640E+04  0.00000000000E+00 0. -1.
<mgrwt>
<rscale>  0 0.63306358E+04</rscale>
<asrwt>0</asrwt>
<pdfrwt beam="1">  1        2 0.50267583E+00 0.63306358E+04</pdfrwt>
<pdfrwt beam="2">  1       -2 0.47175874E+00 0.63306358E+04</pdfrwt>
<totfact> 0.19321723E-03</totfact>
</mgrwt>
</event>
<event>
 6    1  0.1831439E-005  0.3239008E+04  0.7818608E-02  0.8178591E-01
          2   -1    0    0  501    0  0.00000000000E+00  0.00000000000E+00  0.27398960385E+04  0.27398960385E+04  0.00000000000E+00 0.  1.
         -2   -1    0    0    0  501 -0.00000000000E+00 -0.00000000000E+00 -0.95726010547E+03  0.95726010547E+03  0.00000000000E+00 0. -1.
         23    2    1    2    0    0  0.14974560931E+04  0.39505190688E+02  0.19068302065E+03  0.15112354029E+04  0.59472831684E+02 0.  0.
         11    1    3    3    0    0  0.36687745627E+03 -0.12848523527E+02  0.34505523115E+02  0.36872046810E+03  0.00000000000E+00 0. -1.
        -11    1    3    3    0    0  0.11305786369E+04  0.52353714215E+02  0.15617749753E+03  0.11425149348E+04  0.00000000000E+00 0.  1.
         22    1    1    2    0    0 -0.14974560931E+04 -0.39505190688E+02  0.15919529124E+04  0.21859207410E+04  0.00000000000E+00 0.  1.
<mgrwt>
<rscale>  0 0.32390080E+04</rscale>
<asrwt>0</asrwt>
<pdfrwt beam="1">  1        2 0.42152246E+00 0.32390080E+04</pdfrwt>
<pdfrwt beam="2">  1       -2 0.14727079E+00 0.32390080E+04</pdfrwt>
<totfact> 0.66333053E-01</totfact>
</mgrwt>
</event>
<event>
 6    1  0.1831439E-005  0.2282820E+04  0.7818608E-02  0.8484726E-01
          2   -1    0    0  501    0  0.00000000000E+00  0.00000000000E+00  0.28191097320E+04  0.28191097320E+04  0.00000000000E+00 0. -1.
         -2   -1    0    0    0  501 -0.00000000000E+00 -0.00000000000E+00 -0.46213770341E+03  0.46213770341E+03  0.00000000000E+00 0.  1.
         23    2    1    2    0    0 -0.77790754858E+03 -0.24513737440E+03  0.33246131498E+02  0.81853865619E+03  0.60561868755E+02 0.  0.
         11    1    3    3    0    0 -0.35642370426E+03 -0.14379758596E+03  0.19110868487E+02  0.38481271806E+03  0.00000000000E+00 0.  1.
        -11    1    3    3    0    0 -0.42148384432E+03 -0.10133978844E+03  0.14135263012E+02  0.43372593813E+03  0.00000000000E+00 0. -1.
         22    1    1    2    0    0  0.77790754858E+03  0.24513737440E+03  0.23237258971E+04  0.24627087793E+04  0.00000000000E+00 0. -1.
<mgrwt>
<rscale>  0 0.22828201E+04</rscale>
<asrwt>0</asrwt>
<pdfrwt beam="1">  1        2 0.43370918E+00 0.22828201E+04</pdfrwt>
<pdfrwt beam="2">  1       -2 0.71098110E-01 0.22828201E+04</pdfrwt>
<totfact> 0.36741163E+00</totfact>
</mgrwt>
</event>
<event>
 6    1  0.1831439E-005  0.1842763E+04  0.7818608E-02  0.8683884E-01
         -2   -1    0    0    0  501 -0.00000000000E+00  0.00000000000E+00  0.53032559106E+03  0.53032559106E+03  0.00000000000E+00 0.  1.
          2   -1    0    0  501    0  0.00000000000E+00 -0.00000000000E+00 -0.16007971505E+04  0.16007971505E+04  0.00000000000E+00 0. -1.
         23    2    1    2    0    0 -0.47349397880E+02  0.82488022905E+03 -0.70302567890E+02  0.83381500266E+03  0.87382205540E+02 0.  0.
         11    1    3    3    0    0 -0.37541472479E+02  0.43425353239E+03  0.48678533951E+01  0.43590043421E+03  0.00000000000E+00 0.  1.
        -11    1    3    3    0    0 -0.98079254005E+01  0.39062669667E+03 -0.75170421285E+02  0.39791456845E+03  0.00000000000E+00 0. -1.
         22    1    1    2    0    0  0.47349397880E+02 -0.82488022905E+03 -0.10001689915E+04  0.12973077389E+04  0.00000000000E+00 0.  1.
<mgrwt>
<rscale>  0 0.18427628E+04</rscale>
<asrwt>0</asrwt>
<pdfrwt beam="1">  1        2 0.24627649E+00 0.18427628E+04</pdfrwt>
<pdfrwt beam="2">  1       -2 0.81588552E-01 0.18427628E+04</pdfrwt>
<totfact> 0.13859348E+01</totfact>
</mgrwt>
</event>
<event>
 6    1  0.1831439E-005  0.2665851E+04  0.7818608E-02  0.8346171E-01
          1   -1    0    0  501    0  0.00000000000E+00  0.00000000000E+00  0.12401432682E+04  0.12401432682E+04  0.00000000000E+00 0. -1.
         -1   -1    0    0    0  501 -0.00000000000E+00 -0.00000000000E+00 -0.14326496085E+04  0.14326496085E+04  0.00000000000E+00 0.  1.
         23    2    1    2    0    0 -0.18436658869E+03  0.12471939929E+04  0.33245811597E+03  0.13071166430E+04  0.92420910605E+02 0.  0.
         11    1    3    3    0    0 -0.30359225864E+01  0.30124827706E+02  0.23747493555E+02  0.38479416841E+02  0.00000000000E+00 0. -1.
        -11    1    3    3    0    0 -0.18133066610E+03  0.12170691652E+04  0.30871062241E+03  0.12686372262E+04  0.00000000000E+00 0.  1.
         22    1    1    2    0    0  0.18436658869E+03 -0.12471939929E+04 -0.52496445619E+03  0.13656762337E+04  0.00000000000E+00 0.  1.
<mgrwt>
<rscale>  0 0.26658513E+04</rscale>
<asrwt>0</asrwt>
<pdfrwt beam="1">  1        1 0.19079127E+00 0.26658513E+04</pdfrwt>
<pdfrwt beam="2">  1       -1 0.22040763E+00 0.26658513E+04</pdfrwt>
<totfact> 0.95671432E-01</totfact>
</mgrwt>
</event>
<event>
 6    1  0.1831439E-005  0.9443946E+03  0.7818608E-02  0.9371727E-01
         -2   -1    0    0    0  501 -0.00000000000E+00  0.00000000000E+00  0.99308661173E+02  0.99308661173E+02  0.00000000000E+00 0.  1.
          2   -1    0    0  501    0  0.00000000000E+00 -0.00000000000E+00 -0.22452249171E+04  0.22452249171E+04  0.00000000000E+00 0. -1.
         23    2    1    2    0    0 -0.24404427736E+03  0.36301730104E+03 -0.14936125863E+04  0.15591424352E+04  0.93313478178E+02 0.  0.
         11    1    3    3    0    0 -0.68718723480E+02  0.63650480655E+02 -0.44078644771E+03  0.45062882634E+03  0.00000000000E+00 0.  1.
        -11    1    3    3    0    0 -0.17532555388E+03  0.29936682039E+03 -0.10528261386E+04  0.11085136089E+04  0.00000000000E+00 0. -1.
         22    1    1    2    0    0  0.24404427736E+03 -0.36301730104E+03 -0.65230366966E+03  0.78539114308E+03  0.00000000000E+00 0.  1.
<mgrwt>
<rscale>  0 0.94439458E+03</rscale>
<asrwt>0</asrwt>
<pdfrwt beam="1">  1        2 0.34541922E+00 0.94439458E+03</pdfrwt>
<pdfrwt beam="2">  1       -2 0.15278255E-01 0.94439458E+03</pdfrwt>
<totfact> 0.16749467E+02</totfact>
</mgrwt>
</event>
<event>
 6    1  0.1831439E-005  0.8747855E+03  0.7818608E-02  0.9457661E-01
         -1   -1    0    0    0  501 -0.00000000000E+00  0.00000000000E+00  0.29240792452E+03  0.29240792452E+03  0.00000000000E+00 0.  1.
          1   -1    0    0  501    0  0.00000000000E+00 -0.00000000000E+00 -0.65426554884E+03  0.65426554884E+03  0.00000000000E+00 0. -1.
         23    2    1    2    0    0 -0.11821477780E+03  0.33178149319E+03  0.89040231772E+02  0.37451740240E+03  0.91002356624E+02 0.  0.
         13    1    3    3    0    0 -0.44720478013E+02  0.14497542138E+03 -0.72198121499E+01  0.15188785220E+03  0.00000000000E+00 0. -1.
        -13    1    3    3    0    0 -0.73494299786E+02  0.18680607181E+03  0.96260043922E+02  0.22262955020E+03  0.00000000000E+00 0.  1.
         22    1    1    2    0    0  0.11821477780E+03 -0.33178149319E+03 -0.45089785609E+03  0.57215607096E+03  0.00000000000E+00 0. -1.
<mgrwt>
<rscale>  0 0.87478553E+03</rscale>
<asrwt>0</asrwt>
<pdfrwt beam="1">  1        1 0.10065624E+00 0.87478553E+03</pdfrwt>
<pdfrwt beam="2">  1       -1 0.44985835E-01 0.87478553E+03</pdfrwt>
<totfact> 0.14902812E+02</totfact>
</mgrwt>
</event>
<event>
 6    1  0.1831439E-005  0.1177458E+04  0.7818608E-02  0.9132820E-01
         -2   -1    0    0    0  501 -0.00000000000E+00  0.00000000000E+00  0.32008086935E+03  0.32008086935E+03  0.00000000000E+00 0. -1.
          2   -1    0    0  501    0  0.00000000000E+00 -0.00000000000E+00 -0.10828563242E+04  0.10828563242E+04  0.00000000000E+00 0.  1.
         23    2    1    2    0    0  0.32251491756E+03  0.33875070382E+03 -0.80279858073E+03  0.93350161543E+03  0.90397972278E+02 0.  0.
         13    1    3    3    0    0  0.53427408681E+02  0.38639973612E+02 -0.17947187379E+03  0.19120065126E+03  0.00000000000E+00 0. -1.
        -13    1    3    3    0    0  0.26908750888E+03  0.30011073021E+03 -0.62332670694E+03  0.74230096417E+03  0.00000000000E+00 0.  1.
         22    1    1    2    0    0 -0.32251491756E+03 -0.33875070382E+03  0.40023125883E+02  0.46943557811E+03  0.00000000000E+00 0. -1.
<mgrwt>
<rscale>  0 0.11774576E+04</rscale>
<asrwt>0</asrwt>
<pdfrwt beam="1">  1        2 0.16659328E+00 0.11774576E+04</pdfrwt>
<pdfrwt beam="2">  1       -2 0.49243211E-01 0.11774576E+04</pdfrwt>
<totfact> 0.86102877E+01</totfact>
</mgrwt>
</event>
<event>
 6    1  0.1831439E-005  0.2063933E+04  0.7818608E-02  0.8577300E-01
         -2   -1    0    0    0  501 -0.00000000000E+00  0.00000000000E+00  0.17581226468E+04  0.17581226468E+04  0.00000000000E+00 0.  1.
          2   -1    0    0  501    0  0.00000000000E+00 -0.00000000000E+00 -0.60573435933E+03  0.60573435933E+03  0.00000000000E+00 0. -1.
         23    2    1    2    0    0 -0.89242440078E+03  0.49759166020E+03  0.42882136184E+03  0.11118315003E+04  0.90899687747E+02 0.  0.
         13    1    3    3    0    0 -0.12443864535E+03  0.10681376937E+03  0.74920978177E+02  0.18029783902E+03  0.00000000000E+00 0.  1.
        -13    1    3    3    0    0 -0.76798575543E+03  0.39077789083E+03  0.35390038367E+03  0.93153366126E+03  0.00000000000E+00 0. -1.
         22    1    1    2    0    0  0.89242440078E+03 -0.49759166020E+03  0.72356692558E+03  0.12520255058E+04  0.00000000000E+00 0. -1.
<mgrwt>
<rscale>  0 0.20639334E+04</rscale>
<asrwt>0</asrwt>
<pdfrwt beam="1">  1        2 0.93189902E-01 0.20639334E+04</pdfrwt>
<pdfrwt beam="2">  1       -2 0.27048040E+00 0.20639334E+04</pdfrwt>
<totfact> 0.21817941E+00</totfact>
</mgrwt>
</event>
<event>
 6    1  0.1831439E-005  0.3787235E+04  0.7818608E-02  0.8048900E-01
         -2   -1    0    0    0  501 -0.00000000000E+00  0.00000000000E+00  0.21663543598E+04  0.21663543598E+04  0.00000000000E+00 0. -1.
          2   -1    0    0  501    0  0.00000000000E+00 -0.00000000000E+00 -0.16552173711E+04  0.16552173711E+04  0.00000000000E+00 0.  1.
         23    2    1    2    0    0 -0.72406434912E+03  0.95615586748E+03 -0.12215113741E+04  0.17143048817E+04  0.90818313379E+02 0.  0.
         13    1    3    3    0    0 -0.28431558163E+03  0.35848634171E+03 -0.52786426248E+03  0.69856172723E+03  0.00000000000E+00 0. -1.
        -13    1    3    3    0    0 -0.43974876749E+03  0.59766952577E+03 -0.69364711158E+03  0.10157431545E+04  0.00000000000E+00 0.  1.
         22    1    1    2    0    0  0.72406434912E+03 -0.95615586748E+03  0.17326483628E+04  0.21072668492E+04  0.00000000000E+00 0. -1.
<mgrwt>
<rscale>  0 0.37872351E+04</rscale>
<asrwt>0</asrwt>
<pdfrwt beam="1">  1        2 0.25464883E+00 0.37872351E+04</pdfrwt>
<pdfrwt beam="2">  1       -2 0.33328529E+00 0.37872351E+04</pdfrwt>
<totfact> 0.16506909E-01</totfact>
</mgrwt>
</event>
<event>
 6    1  0.1831439E-005  0.3411449E+04  0.7818608E-02  0.8135102E-01
         -2   -1    0    0    0  501 -0.00000000000E+00  0.00000000000E+00  0.11498289446E+04  0.11498289446E+04  0.00000000000E+00 0.  1.
          2   -1    0    0  501    0  0.00000000000E+00 -0.00000000000E+00 -0.25303735629E+04  0.25303735629E+04  0.00000000000E+00 0. -1.
         23    2    1    2    0    0 -0.76412337336E+03  0.83447113173E+03 -0.20659755568E+04  0.23573109130E+04  0.91832130404E+02 0.  0.
         13    1    3    3    0    0 -0.88600252399E+02  0.75337105796E+02 -0.26574443421E+03  0.29007893503E+03  0.00000000000E+00 0.  1.
        -13    1    3    3    0    0 -0.67552312096E+03  0.75913402594E+03 -0.18002311226E+04  0.20672319780E+04  0.00000000000E+00 0. -1.
         22    1    1    2    0    0  0.76412337336E+03 -0.83447113173E+03  0.68543093839E+03  0.13228915945E+04  0.00000000000E+00 0.  1.
<mgrwt>
<rscale>  0 0.34114494E+04</rscale>
<asrwt>0</asrwt>
<pdfrwt beam="1">  1        2 0.38928823E+00 0.34114494E+04</pdfrwt>
<pdfrwt beam="2">  1       -2 0.17689676E+00 0.34114494E+04</pdfrwt>
<totfact> 0.52708133E-01</totfact>
</mgrwt>
</event>
<event>
 6    1  0.1831439E-005  0.1533246E+04  0.7818608E-02  0.8862641E-01
          2   -1    0    0  501    0  0.00000000000E+00  0.00000000000E+00  0.19858613020E+04  0.19858613020E+04  0.00000000000E+00 0. -1.
         -2   -1    0    0    0  501 -0.00000000000E+00 -0.00000000000E+00 -0.29594749464E+03  0.29594749464E+03  0.00000000000E+00 0.  1.
         23    2    1    2    0    0 -0.45296471231E+03 -0.32521881533E+02 -0.63997260145E+02  0.47005861074E+03  0.10307640300E+03 0.  0.
         13    1    3    3    0    0 -0.90688068337E+02  0.34900920073E+02 -0.14753337332E+02  0.98285608932E+02  0.00000000000E+00 0.  1.
        -13    1    3    3    0    0 -0.36227664397E+03 -0.67422801607E+02 -0.49243922813E+02  0.37177300181E+03  0.00000000000E+00 0. -1.
         22    1    1    2    0    0  0.45296471231E+03  0.32521881533E+02  0.17539110676E+04  0.18117501859E+04  0.00000000000E+00 0. -1.
<mgrwt>
<rscale>  0 0.15332458E+04</rscale>
<asrwt>0</asrwt>
<pdfrwt beam="1">  1        2 0.30551712E+00 0.15332458E+04</pdfrwt>
<pdfrwt beam="2">  1       -2 0.45530385E-01 0.15332458E+04</pdfrwt>
<totfact> 0.30002888E+01</totfact>
</mgrwt>
</event>
<event>
 6    1  0.1831439E-005  0.1040509E+04  0.7818608E-02  0.9265199E-01
          1   -1    0    0  501    0  0.00000000000E+00  0.00000000000E+00  0.86695553934E+03  0.86695553934E+03  0.00000000000E+00 0. -1.
         -1   -1    0    0    0  501 -0.00000000000E+00 -0.00000000000E+00 -0.31220115803E+03  0.31220115803E+03  0.00000000000E+00 0.  1.
         23    2    1    2    0    0 -0.10458536808E+03 -0.93499138901E+01  0.85190450519E+03  0.86400004390E+03  0.98637060914E+02 0.  0.
         13    1    3    3    0    0 -0.39980581844E+02  0.33291728382E+02  0.54524168071E+03  0.54771824553E+03  0.00000000000E+00 0. -1.
        -13    1    3    3    0    0 -0.64604786238E+02 -0.42641642272E+02  0.30666282448E+03  0.31628179837E+03  0.00000000000E+00 0.  1.
         22    1    1    2    0    0  0.10458536808E+03  0.93499138901E+01 -0.29715012388E+03  0.31515665348E+03  0.00000000000E+00 0.  1.
<mgrwt>
<rscale>  0 0.10405086E+04</rscale>
<asrwt>0</asrwt>
<pdfrwt beam="1">  1        1 0.13337777E+00 0.10405086E+04</pdfrwt>
<pdfrwt beam="2">  1       -1 0.48030948E-01 0.10405086E+04</pdfrwt>
<totfact> 0.83942515E+01</totfact>
</mgrwt>
</event>
<event>
 6    1  0.1831439E-005  0.3207546E+04  0.7818608E-02  0.8186827E-01
         -2   -1    0    0    0  501 -0.00000000000E+00  0.00000000000E+00  0.22465964201E+04  0.22465964201E+04  0.00000000000E+00 0.  1.
          2   -1    0    0  501    0  0.00000000000E+00 -0.00000000000E+00 -0.11448818446E+04  0.11448818446E+04  0.00000000000E+00 0. -1.
         23    2    1    2    0    0 -0.10015298631E+04  0.11356911318E+04  0.11059237912E+04  0.18772543279E+04  0.90332531222E+02 0.  0.
         13    1    3    3    0    0 -0.67777893911E+03  0.79632256201E+03  0.80931904261E+03  0.13223128321E+04  0.00000000000E+00 0.  1.
        -13    1    3    3    0    0 -0.32375092396E+03  0.33936856980E+03  0.29660474854E+03  0.55494149583E+03  0.00000000000E+00 0. -1.
         22    1    1    2    0    0  0.10015298631E+04 -0.11356911318E+04 -0.42092156242E+01  0.15142239369E+04  0.00000000000E+00 0. -1.
<mgrwt>
<rscale>  0 0.32075458E+04</rscale>
<asrwt>0</asrwt>
<pdfrwt beam="1">  1        2 0.17613567E+00 0.32075458E+04</pdfrwt>
<pdfrwt beam="2">  1       -2 0.34563022E+00 0.32075458E+04</pdfrwt>
<totfact> 0.28513584E-01</totfact>
</mgrwt>
</event>
<event>
 6    1  0.1831439E-005  0.1815825E+04  0.7818608E-02  0.8697929E-01
          1   -1    0    0  501    0  0.00000000000E+00  0.00000000000E+00  0.32239185808E+04  0.32239185808E+04  0.00000000000E+00 0. -1.
         -1   -1    0    0    0  501 -0.00000000000E+00 -0.00000000000E+00 -0.25568414450E+03  0.25568414450E+03  0.00000000000E+00 0.  1.
         23    2    1    2    0    0 -0.69461940001E+03 -0.20605163361E+03  0.44750634200E+03  0.85681346346E+03  0.94413973816E+02 0.  0.
         13    1    3    3    0    0 -0.19193203724E+03 -0.64348914685E+02  0.77537657193E+02  0.21677356394E+03  0.00000000000E+00 0.  1.
        -13    1    3    3    0    0 -0.50268736277E+03 -0.14170271893E+03  0.36996868480E+03  0.64003989952E+03  0.00000000000E+00 0. -1.
         22    1    1    2    0    0  0.69461940001E+03  0.20605163361E+03  0.25207280943E+04  0.26227892618E+04  0.00000000000E+00 0. -1.
<mgrwt>
<rscale>  0 0.18158247E+04</rscale>
<asrwt>0</asrwt>
<pdfrwt beam="1">  1        1 0.49598745E+00 0.18158247E+04</pdfrwt>
<pdfrwt beam="2">  1       -1 0.39336024E-01 0.18158247E+04</pdfrwt>
<totfact> 0.24241585E+00</totfact>
</mgrwt>
</event>
<event>
 6    1  0.1831439E-005  0.2275749E+04  0.7818608E-02  0.8487545E-01
          2   -1    0    0  501    0  0.00000000000E+00  0.00000000000E+00  0.14253648590E+04  0.14253648590E+04  0.00000000000E+00 0. -1.
         -2   -1    0    0    0  501 -0.00000000000E+00 -0.00000000000E+00 -0.90836953797E+03  0.90836953797E+03  0.00000000000E+00 0.  1.
         23    2    1    2    0    0 -0.65006100599E+03  0.86126665553E+03 -0.10534650492E+03  0.10880743664E+04  0.91915054472E+02 0.  0.
         11    1    3    3    0    0 -0.14995964912E+03  0.25486844571E+03 -0.52011191447E+02  0.30025153625E+03  0.00000000000E+00 0. -1.
        -11    1    3    3    0    0 -0.50010135687E+03  0.60639820982E+03 -0.53335313477E+02  0.78782283013E+03  0.00000000000E+00 0.  1.
         22    1    1    2    0    0  0.65006100599E+03 -0.86126665553E+03  0.62234182595E+03  0.12456600306E+04  0.00000000000E+00 0. -1.
<mgrwt>
<rscale>  0 0.22757487E+04</rscale>
<asrwt>0</asrwt>
<pdfrwt beam="1">  1        2 0.21928690E+00 0.22757487E+04</pdfrwt>
<pdfrwt beam="2">  1       -2 0.13974916E+00 0.22757487E+04</pdfrwt>
<totfact> 0.45883029E+00</totfact>
</mgrwt>
</event>
<event>
 6    1  0.1831439E-005  0.2037932E+04  0.7818608E-02  0.8589089E-01
          1   -1    0    0  501    0  0.00000000000E+00  0.00000000000E+00  0.14603692391E+04  0.14603692391E+04  0.00000000000E+00 0. -1.
         -1   -1    0    0    0  501 -0.00000000000E+00 -0.00000000000E+00 -0.71097895615E+03  0.71097895615E+03  0.00000000000E+00 0.  1.
         23    2    1    2    0    0 -0.62436310552E+03  0.79663552361E+03  0.26792757137E+03  0.10505164560E+04  0.85686614216E+02 0.  0.
         11    1    3    3    0    0 -0.42404160872E+03  0.48769014409E+03  0.19621911105E+03  0.67539240602E+03  0.00000000000E+00 0.  1.
        -11    1    3    3    0    0 -0.20032149680E+03  0.30894537952E+03  0.71708460325E+02  0.37512405001E+03  0.00000000000E+00 0. -1.
         22    1    1    2    0    0  0.62436310552E+03 -0.79663552361E+03  0.48146271155E+03  0.11208317392E+04  0.00000000000E+00 0. -1.
<mgrwt>
<rscale>  0 0.20379321E+04</rscale>
<asrwt>0</asrwt>
<pdfrwt beam="1">  1        1 0.22467219E+00 0.20379321E+04</pdfrwt>
<pdfrwt beam="2">  1       -1 0.10938138E+00 0.20379321E+04</pdfrwt>
<totfact> 0.49846869E+00</totfact>
</mgrwt>
</event>
<event>
 6    1  0.1831439E-005  0.1745521E+04  0.7818608E-02  0.8735820E-01
          1   -1    0    0  501    0  0.00000000000E+00  0.00000000000E+00  0.62154659229E+03  0.62154659229E+03  0.00000000000E+00 0. -1.
         -1   -1    0    0    0  501 -0.00000000000E+00 -0.00000000000E+00 -0.12255087016E+04  0.12255087016E+04  0.00000000000E+00 0.  1.
         23    2    1    2    0    0 -0.20997362483E+03  0.79052429550E+02  0.58712131857E+03  0.63502479019E+03  0.90591565252E+02 0.  0.
         11    1    3    3    0    0 -0.14106612288E+03  0.70480088731E+02  0.29216698836E+03  0.33200699243E+03  0.00000000000E+00 0. -1.
        -11    1    3    3    0    0 -0.68907501945E+02  0.85723408190E+01  0.29495433021E+03  0.30301779776E+03  0.00000000000E+00 0.  1.
         22    1    1    2    0    0  0.20997362483E+03 -0.79052429550E+02 -0.11910834279E+04  0.12120305037E+04  0.00000000000E+00 0.  1.
<mgrwt>
<rscale>  0 0.17455208E+04</rscale>
<asrwt>0</asrwt>
<pdfrwt beam="1">  1        1 0.95622554E-01 0.17455208E+04</pdfrwt>
<pdfrwt beam="2">  1       -1 0.18853980E+00 0.17455208E+04</pdfrwt>
<totfact> 0.55792228E+00</totfact>
</mgrwt>
</event>
<event>
 6    1  0.1831439E-005  0.3262381E+04  0.7818608E-02  0.8172534E-01
          2   -1    0    0  501    0  0.00000000000E+00  0.00000000000E+00  0.14343674823E+04  0.14343674823E+04  0.00000000000E+00 0.  1.
         -2   -1    0    0    0  501 -0.00000000000E+00 -0.00000000000E+00 -0.18550219857E+04  0.18550219857E+04  0.00000000000E+00 0. -1.
         23    2    1    2    0    0 -0.12813209499E+04  0.98368697889E+03  0.89874881862E+01  0.16178585259E+04  0.89229959615E+02 0.  0.
         11    1    3    3    0    0 -0.11000945112E+04  0.88010822980E+03 -0.20244289221E+01  0.14088301984E+04  0.00000000000E+00 0.  1.
        -11    1    3    3    0    0 -0.18122643874E+03  0.10357874909E+03  0.11011917108E+02  0.20902832746E+03  0.00000000000E+00 0. -1.
         22    1    1    2    0    0  0.12813209499E+04 -0.98368697889E+03 -0.42964199157E+03  0.16715309420E+04  0.00000000000E+00 0.  1.
<mgrwt>
<rscale>  0 0.32623815E+04</rscale>
<asrwt>0</asrwt>
<pdfrwt beam="1">  1        2 0.22067192E+00 0.32623815E+04</pdfrwt>
<pdfrwt beam="2">  1       -2 0.28538800E+00 0.32623815E+04</pdfrwt>
<totfact> 0.45235035E-01</totfact>
</mgrwt>
</event>
<event>
 6    1  0.1831439E-005  0.2267018E+03  0.7818608E-02  0.1128983E+00
         -2   -1    0    0    0  501 -0.00000000000E+00  0.00000000000E+00  0.47304810016E+02  0.47304810016E+02  0.00000000000E+00 0.  1.
          2   -1    0    0  501    0  0.00000000000E+00 -0.00000000000E+00 -0.27160938328E+03  0.27160938328E+03  0.00000000000E+00 0. -1.
         23    2    1    2    0    0 -0.71025284995E+02 -0.56027768910E+02 -0.90994789003E+02  0.15780801533E+03  0.91867383114E+02 0.  0.
         11    1    3    3    0    0 -0.27715823930E+02 -0.59329893620E+02 -0.93670281385E+02  0.11429052799E+03  0.00000000000E+00 0.  1.
        -11    1    3    3    0    0 -0.43309461065E+02  0.33021247100E+01  0.26754923824E+01  0.43517487345E+02  0.00000000000E+00 0. -1.
         22    1    1    2    0    0  0.71025284995E+02  0.56027768910E+02 -0.13330978426E+03  0.16110617796E+03  0.00000000000E+00 0. -1.
<mgrwt>
<rscale>  0 0.22670183E+03</rscale>
<asrwt>0</asrwt>
<pdfrwt beam="1">  1        2 0.41786059E-01 0.22670183E+03</pdfrwt>
<pdfrwt beam="2">  1       -2 0.72776630E-02 0.22670183E+03</pdfrwt>
<totfact> 0.13071062E+04</totfact>
</mgrwt>
</event>
<event>
 6    1  0.1831439E-005  0.3513636E+04  0.7818608E-02  0.8110566E-01
          2   -1    0    0  501    0  0.00000000000E+00  0.00000000000E+00  0.16699614402E+04  0.16699614402E+04  0.00000000000E+00 0. -1.
         -2   -1    0    0    0  501 -0.00000000000E+00 -0.00000000000E+00 -0.18481919949E+04  0.18481919949E+04  0.00000000000E+00 0.  1.
         23    2    1    2    0    0 -0.24852597014E+03 -0.10108380974E+04  0.13263722569E+04  0.16885664768E+04  0.91839891733E+02 0.  0.
         11    1    3    3    0    0 -0.21759168271E+03 -0.82565204133E+03  0.11368992614E+04  0.14218253635E+04  0.00000000000E+00 0.  1.
        -11    1    3    3    0    0 -0.30934287425E+02 -0.18518605603E+03  0.18947299553E+03  0.26674111330E+03  0.00000000000E+00 0. -1.
         22    1    1    2    0    0  0.24852597014E+03  0.10108380974E+04 -0.15046028116E+04  0.18295869582E+04  0.00000000000E+00 0.  1.
<mgrwt>
<rscale>  0 0.35136359E+04</rscale>
<asrwt>0</asrwt>
<pdfrwt beam="1">  1        2 0.25691715E+00 0.35136359E+04</pdfrwt>
<pdfrwt beam="2">  1       -2 0.28433723E+00 0.35136359E+04</pdfrwt>
<totfact> 0.33146748E-01</totfact>
</mgrwt>
</event>
<event>
 6    1  0.1831439E-005  0.4113433E+04  0.7818608E-02  0.7982047E-01
          2   -1    0    0  501    0  0.00000000000E+00  0.00000000000E+00  0.24991689439E+04  0.24991689439E+04  0.00000000000E+00 0. -1.
         -2   -1    0    0    0  501 -0.00000000000E+00 -0.00000000000E+00 -0.16925954184E+04  0.16925954184E+04  0.00000000000E+00 0.  1.
         23    2    1    2    0    0 -0.17424919110E+04  0.10795392994E+04  0.24432316753E+03  0.20662506306E+04  0.89524851535E+02 0.  0.
         13    1    3    3    0    0 -0.64089950244E+03  0.42954422545E+03  0.58280029163E+02  0.77372926508E+03  0.00000000000E+00 0. -1.
        -13    1    3    3    0    0 -0.11015924086E+04  0.64999507399E+03  0.18604313837E+03  0.12925213655E+04  0.00000000000E+00 0.  1.
         22    1    1    2    0    0  0.17424919110E+04 -0.10795392994E+04  0.56225035792E+03  0.21255137318E+04  0.00000000000E+00 0. -1.
<mgrwt>
<rscale>  0 0.41134326E+04</rscale>
<asrwt>0</asrwt>
<pdfrwt beam="1">  1        2 0.38448753E+00 0.41134326E+04</pdfrwt>
<pdfrwt beam="2">  1       -2 0.26039930E+00 0.41134326E+04</pdfrwt>
<totfact> 0.15114059E-01</totfact>
</mgrwt>
</event>
<event>
 6    1  0.1831439E-005  0.2125522E+04  0.7818608E-02  0.8550083E-01
          1   -1    0    0  501    0  0.00000000000E+00  0.00000000000E+00  0.10213503221E+04  0.10213503221E+04  0.00000000000E+00 0. -1.
         -1   -1    0    0    0  501 -0.00000000000E+00 -0.00000000000E+00 -0.11058508273E+04  0.11058508273E+04  0.00000000000E+00 0.  1.
         23    2    1    2    0    0  0.83121047556E+03  0.32597813975E+03 -0.61561880379E+03  0.10883271198E+04  0.91086803799E+02 0.  0.
         13    1    3    3    0    0  0.35558816963E+03  0.13404883141E+03 -0.20819293973E+03  0.43330859181E+03  0.00000000000E+00 0. -1.
        -13    1    3    3    0    0  0.47562230592E+03  0.19192930834E+03 -0.40742586406E+03  0.65501852798E+03  0.00000000000E+00 0.  1.
         22    1    1    2    0    0 -0.83121047556E+03 -0.32597813975E+03  0.53111829859E+03  0.10388740296E+04  0.00000000000E+00 0. -1.
<mgrwt>
<rscale>  0 0.21255221E+04</rscale>
<asrwt>0</asrwt>
<pdfrwt beam="1">  1        1 0.15713082E+00 0.21255221E+04</pdfrwt>
<pdfrwt beam="2">  1       -1 0.17013090E+00 0.21255221E+04</pdfrwt>
<totfact> 0.32809497E+00</totfact>
</mgrwt>
</event>
<event>
 6    1  0.1831439E-005  0.2453565E+04  0.7818608E-02  0.8419717E-01
         -1   -1    0    0    0  501 -0.00000000000E+00  0.00000000000E+00  0.71431271713E+03  0.71431271713E+03  0.00000000000E+00 0. -1.
          1   -1    0    0  501    0  0.00000000000E+00 -0.00000000000E+00 -0.21069140171E+04  0.21069140171E+04  0.00000000000E+00 0.  1.
         23    2    1    2    0    0  0.10926468605E+04  0.13427947712E+03 -0.79361844974E+02  0.11076030866E+04  0.92618331467E+02 0.  0.
         11    1    3    3    0    0  0.57349648742E+03  0.53545677400E+02  0.17176341139E+01  0.57599332541E+03  0.00000000000E+00 0. -1.
        -11    1    3    3    0    0  0.51915037304E+03  0.80733799724E+02 -0.81079479088E+02  0.53160976117E+03  0.00000000000E+00 0.  1.
         22    1    1    2    0    0 -0.10926468605E+04 -0.13427947712E+03 -0.13132394550E+04  0.17136236477E+04  0.00000000000E+00 0.  1.
<mgrwt>
<rscale>  0 0.24535651E+04</rscale>
<asrwt>0</asrwt>
<pdfrwt beam="1">  1        1 0.32414062E+00 0.24535651E+04</pdfrwt>
<pdfrwt beam="2">  1       -1 0.10989426E+00 0.24535651E+04</pdfrwt>
<totfact> 0.17196690E+00</totfact>
</mgrwt>
</event>
<event>
 6    1  0.1831439E-005  0.1616218E+04  0.7818608E-02  0.8810646E-01
         -2   -1    0    0    0  501 -0.00000000000E+00  0.00000000000E+00  0.50069844444E+03  0.50069844444E+03  0.00000000000E+00 0.  1.
          2   -1    0    0  501    0  0.00000000000E+00 -0.00000000000E+00 -0.13042582333E+04  0.13042582333E+04  0.00000000000E+00 0. -1.
         23    2    1    2    0    0 -0.31054365158E+03  0.26092617318E+03  0.37405368753E+03  0.55944741355E+03  0.92441440864E+02 0.  0.
         11    1    3    3    0    0 -0.90371552632E+02  0.11319165697E+03  0.88319383666E+02  0.16964575522E+03  0.00000000000E+00 0.  1.
        -11    1    3    3    0    0 -0.22017209895E+03  0.14773451621E+03  0.28573430386E+03  0.38980165833E+03  0.00000000000E+00 0. -1.
         22    1    1    2    0    0  0.31054365158E+03 -0.26092617318E+03 -0.11776134764E+04  0.12455092642E+04  0.00000000000E+00 0. -1.
<mgrwt>
<rscale>  0 0.16162179E+04</rscale>
<asrwt>0</asrwt>
<pdfrwt beam="1">  1        2 0.20065511E+00 0.16162179E+04</pdfrwt>
<pdfrwt beam="2">  1       -2 0.77030531E-01 0.16162179E+04</pdfrwt>
<totfact> 0.23687990E+01</totfact>
</mgrwt>
</event>
<event>
 6    1  0.1831439E-005  0.2910462E+04  0.7818608E-02  0.8269772E-01
          2   -1    0    0  501    0  0.00000000000E+00  0.00000000000E+00  0.98102486998E+03  0.98102486998E+03  0.00000000000E+00 0. -1.
         -2   -1    0    0    0  501 -0.00000000000E+00 -0.00000000000E+00 -0.21586574936E+04  0.21586574936E+04  0.00000000000E+00 0.  1.
         23    2    1    2    0    0 -0.11024503495E+04  0.54722598951E+03  0.24539174330E+03  0.12582330803E+04  0.89890599402E+02 0.  0.
         11    1    3    3    0    0 -0.90256777022E+03  0.47886935148E+03  0.18328969755E+03  0.10380460244E+04  0.00000000000E+00 0. -1.
        -11    1    3    3    0    0 -0.19988257931E+03  0.68356638031E+02  0.62102045742E+02  0.22018705584E+03  0.00000000000E+00 0.  1.
         22    1    1    2    0    0  0.11024503495E+04 -0.54722598951E+03 -0.14230243669E+04  0.18814492833E+04  0.00000000000E+00 0.  1.
<mgrwt>
<rscale>  0 0.29104616E+04</rscale>
<asrwt>0</asrwt>
<pdfrwt beam="1">  1        2 0.15092691E+00 0.29104616E+04</pdfrwt>
<pdfrwt beam="2">  1       -2 0.33210115E+00 0.29104616E+04</pdfrwt>
<totfact> 0.45000393E-01</totfact>
</mgrwt>
</event>
<event>
 6    1  0.1831439E-005  0.1692036E+04  0.7818608E-02  0.8765920E-01
         -2   -1    0    0    0  501 -0.00000000000E+00  0.00000000000E+00  0.10975421371E+04  0.10975421371E+04  0.00000000000E+00 0.  1.
          2   -1    0    0  501    0  0.00000000000E+00 -0.00000000000E+00 -0.65213562821E+03  0.65213562821E+03  0.00000000000E+00 0. -1.
         23    2    1    2    0    0 -0.53076881662E+03  0.21346661335E+03 -0.41760816253E+03  0.71426584013E+03  0.92171477397E+02 0.  0.
         13    1    3    3    0    0 -0.17811611341E+03  0.62881035146E+02 -0.19211516705E+03  0.26942088236E+03  0.00000000000E+00 0.  1.
        -13    1    3    3    0    0 -0.35265270320E+03  0.15058557821E+03 -0.22549299548E+03  0.44484495777E+03  0.00000000000E+00 0. -1.
         22    1    1    2    0    0  0.53076881662E+03 -0.21346661335E+03  0.86301467141E+03  0.10354119252E+04  0.00000000000E+00 0.  1.
<mgrwt>
<rscale>  0 0.16920359E+04</rscale>
<asrwt>0</asrwt>
<pdfrwt beam="1">  1        2 0.10032856E+00 0.16920359E+04</pdfrwt>
<pdfrwt beam="2">  1       -2 0.16885264E+00 0.16920359E+04</pdfrwt>
<totfact> 0.92529843E+00</totfact>
</mgrwt>
</event>
<event>
 6    1  0.1831439E-005  0.7899970E+03  0.7818608E-02  0.9574610E-01
          1   -1    0    0  501    0  0.00000000000E+00  0.00000000000E+00  0.54556935033E+03  0.54556935033E+03  0.00000000000E+00 0. -1.
         -1   -1    0    0    0  501 -0.00000000000E+00 -0.00000000000E+00 -0.28598345446E+03  0.28598345446E+03  0.00000000000E+00 0.  1.
         23    2    1    2    0    0  0.29147487297E+03 -0.33463066902E+02 -0.13867857787E+03  0.33688931366E+03  0.90472555375E+02 0.  0.
         11    1    3    3    0    0  0.13089996650E+03  0.29691811105E+02 -0.53962111781E+02  0.14466621715E+03  0.00000000000E+00 0.  1.
        -11    1    3    3    0    0  0.16057490647E+03 -0.63154878007E+02 -0.84716466092E+02  0.19222309651E+03  0.00000000000E+00 0. -1.
         22    1    1    2    0    0 -0.29147487297E+03  0.33463066902E+02  0.39826447374E+03  0.49466349114E+03  0.00000000000E+00 0. -1.
<mgrwt>
<rscale>  0 0.78999698E+03</rscale>
<asrwt>0</asrwt>
<pdfrwt beam="1">  1        1 0.83933746E-01 0.78999698E+03</pdfrwt>
<pdfrwt beam="2">  1       -1 0.43997455E-01 0.78999698E+03</pdfrwt>
<totfact> 0.20268130E+02</totfact>
</mgrwt>
</event>
<event>
 6    1  0.1831439E-005  0.3038525E+04  0.7818608E-02  0.8232815E-01
          1   -1    0    0  501    0  0.00000000000E+00  0.00000000000E+00  0.16552824219E+04  0.16552824219E+04  0.00000000000E+00 0. -1.
         -1   -1    0    0    0  501 -0.00000000000E+00 -0.00000000000E+00 -0.13944193398E+04  0.13944193398E+04  0.00000000000E+00 0.  1.
         23    2    1    2    0    0  0.74074809541E+03 -0.96667359450E+03  0.10398507190E+04  0.16040229185E+04  0.91839131085E+02 0.  0.
         13    1    3    3    0    0  0.40255591340E+03 -0.48261924370E+03  0.58575289911E+03  0.85911527551E+03  0.00000000000E+00 0.  1.
        -13    1    3    3    0    0  0.33819218201E+03 -0.48405435080E+03  0.45409781991E+03  0.74490764296E+03  0.00000000000E+00 0. -1.
         22    1    1    2    0    0 -0.74074809541E+03  0.96667359450E+03 -0.77898763691E+03  0.14456788432E+04  0.00000000000E+00 0.  1.
<mgrwt>
<rscale>  0 0.30385245E+04</rscale>
<asrwt>0</asrwt>
<pdfrwt beam="1">  1        1 0.25465883E+00 0.30385245E+04</pdfrwt>
<pdfrwt beam="2">  1       -1 0.21452605E+00 0.30385245E+04</pdfrwt>
<totfact> 0.51965138E-01</totfact>
</mgrwt>
</event>
<event>
 6    1  0.1831439E-005  0.1470185E+04  0.7818608E-02  0.8904525E-01
          1   -1    0    0  501    0  0.00000000000E+00  0.00000000000E+00  0.13901379174E+04  0.13901379174E+04  0.00000000000E+00 0.  1.
         -1   -1    0    0    0  501 -0.00000000000E+00 -0.00000000000E+00 -0.38871041913E+03  0.38871041913E+03  0.00000000000E+00 0. -1.
         23    2    1    2    0    0  0.55550273994E+03 -0.24971904613E+03  0.10911995394E+02  0.61606552898E+03  0.92058504614E+02 0.  0.
         11    1    3    3    0    0  0.22277812018E+03 -0.51632640625E+02  0.81976924128E+01  0.22883011727E+03  0.00000000000E+00 0.  1.
        -11    1    3    3    0    0  0.33272461975E+03 -0.19808640551E+03  0.27143029809E+01  0.38723541170E+03  0.00000000000E+00 0. -1.
         22    1    1    2    0    0 -0.55550273994E+03  0.24971904613E+03  0.99051550287E+03  0.11627828075E+04  0.00000000000E+00 0.  1.
<mgrwt>
<rscale>  0 0.14701851E+04</rscale>
<asrwt>0</asrwt>
<pdfrwt beam="1">  1        1 0.21386737E+00 0.14701851E+04</pdfrwt>
<pdfrwt beam="2">  1       -1 0.59801603E-01 0.14701851E+04</pdfrwt>
<totfact> 0.21459783E+01</totfact>
</mgrwt>
</event>
<event>
 6    1  0.1831439E-005  0.1894238E+04  0.7818608E-02  0.8657730E-01
         -2   -1    0    0    0  501 -0.00000000000E+00  0.00000000000E+00  0.85067464330E+03  0.85067464330E+03  0.00000000000E+00 0.  1.
          2   -1    0    0  501    0  0.00000000000E+00 -0.00000000000E+00 -0.10544973805E+04  0.10544973805E+04  0.00000000000E+00 0. -1.
         23    2    1    2    0    0 -0.37579092882E+03  0.48499647994E+03 -0.82495161912E+03  0.10321075957E+04  0.90887333838E+02 0.  0.
         13    1    3    3    0    0 -0.13699763654E+03  0.23646216344E+03 -0.40928585209E+03  0.49213576976E+03  0.00000000000E+00 0. -1.
        -13    1    3    3    0    0 -0.23879329228E+03  0.24853431650E+03 -0.41566576703E+03  0.53997182593E+03  0.00000000000E+00 0.  1.
         22    1    1    2    0    0  0.37579092882E+03 -0.48499647994E+03  0.62112888190E+03  0.87306442813E+03  0.00000000000E+00 0.  1.
<mgrwt>
<rscale>  0 0.18942378E+04</rscale>
<asrwt>0</asrwt>
<pdfrwt beam="1">  1        2 0.16223037E+00 0.18942378E+04</pdfrwt>
<pdfrwt beam="2">  1       -2 0.13087302E+00 0.18942378E+04</pdfrwt>
<totfact> 0.93050074E+00</totfact>
</mgrwt>
</event>
<event>
 6    1  0.1831439E-005  0.1941258E+04  0.7818608E-02  0.8634588E-01
          2   -1    0    0  501    0  0.00000000000E+00  0.00000000000E+00  0.20572249078E+04  0.20572249078E+04  0.00000000000E+00 0. -1.
         -2   -1    0    0    0  501 -0.00000000000E+00 -0.00000000000E+00 -0.45795715389E+03  0.45795715389E+03  0.00000000000E+00 0.  1.
         23    2    1    2    0    0  0.76784428661E+03 -0.14216818901E+03  0.59496025012E+02  0.78871352170E+03  0.93448380747E+02 0.  0.
         13    1    3    3    0    0  0.28466425337E+03 -0.40486539850E+02  0.65579620497E+02  0.29491284082E+03  0.00000000000E+00 0.  1.
        -13    1    3    3    0    0  0.48318003324E+03 -0.10168164916E+03 -0.60835954844E+01  0.49380068088E+03  0.00000000000E+00 0. -1.
         22    1    1    2    0    0 -0.76784428661E+03  0.14216818901E+03  0.15397717289E+04  0.17264685399E+04  0.00000000000E+00 0. -1.
<mgrwt>
<rscale>  0 0.19412582E+04</rscale>
<asrwt>0</asrwt>
<pdfrwt beam="1">  1        2 0.31649613E+00 0.19412582E+04</pdfrwt>
<pdfrwt beam="2">  1       -2 0.70454948E-01 0.19412582E+04</pdfrwt>
<totfact> 0.10620657E+01</totfact>
</mgrwt>
</event>
<event>
 6    1  0.1831439E-005  0.9771644E+03  0.7818608E-02  0.9333951E-01
         -1   -1    0    0    0  501 -0.00000000000E+00  0.00000000000E+00  0.12706226524E+03  0.12706226524E+03  0.00000000000E+00 0.  1.
          1   -1    0    0  501    0  0.00000000000E+00 -0.00000000000E+00 -0.18787055571E+04  0.18787055571E+04  0.00000000000E+00 0. -1.
         23    2    1    2    0    0  0.37276916879E+03  0.10668459933E+03 -0.28882232946E+03  0.49243255712E+03  0.93450673526E+02 0.  0.
         13    1    3    3    0    0  0.12598985263E+03  0.10741250898E+02 -0.14019943291E+03  0.18879803608E+03  0.00000000000E+00 0.  1.
        -13    1    3    3    0    0  0.24677931615E+03  0.95943348435E+02 -0.14862289655E+03  0.30363452104E+03  0.00000000000E+00 0. -1.
         22    1    1    2    0    0 -0.37276916879E+03 -0.10668459933E+03 -0.14628209624E+04  0.15133352653E+04  0.00000000000E+00 0. -1.
<mgrwt>
<rscale>  0 0.97716444E+03</rscale>
<asrwt>0</asrwt>
<pdfrwt beam="1">  1        1 0.28903160E+00 0.97716444E+03</pdfrwt>
<pdfrwt beam="2">  1       -1 0.19548042E-01 0.97716444E+03</pdfrwt>
<totfact> 0.77143800E+01</totfact>
</mgrwt>
</event>
<event>
 6    1  0.1831439E-005  0.1750551E+04  0.7818608E-02  0.8733047E-01
         -1   -1    0    0    0  501 -0.00000000000E+00  0.00000000000E+00  0.11149308988E+04  0.11149308988E+04  0.00000000000E+00 0.  1.
          1   -1    0    0  501    0  0.00000000000E+00 -0.00000000000E+00 -0.68713420223E+03  0.68713420223E+03  0.00000000000E+00 0. -1.
         23    2    1    2    0    0 -0.37852669607E+03 -0.38352550629E+03 -0.49245883441E+03  0.73564843016E+03  0.91041944131E+02 0.  0.
         11    1    3    3    0    0 -0.28925852779E+03 -0.29289370103E+03 -0.32027277332E+03  0.52156674101E+03  0.00000000000E+00 0. -1.
        -11    1    3    3    0    0 -0.89268168285E+02 -0.90631805266E+02 -0.17218606109E+03  0.21408168915E+03  0.00000000000E+00 0.  1.
         22    1    1    2    0    0  0.37852669607E+03  0.38352550629E+03  0.92025553103E+03  0.10664166709E+04  0.00000000000E+00 0.  1.
<mgrwt>
<rscale>  0 0.17505509E+04</rscale>
<asrwt>0</asrwt>
<pdfrwt beam="1">  1        1 0.10571295E+00 0.17505509E+04</pdfrwt>
<pdfrwt beam="2">  1       -1 0.17152783E+00 0.17505509E+04</pdfrwt>
<totfact> 0.63667737E+00</totfact>
</mgrwt>
</event>
<event>
 6    1  0.1831439E-005  0.1583021E+04  0.7818608E-02  0.8831047E-01
         -2   -1    0    0    0  501 -0.00000000000E+00  0.00000000000E+00  0.84169557650E+03  0.84169557650E+03  0.00000000000E+00 0.  1.
          2   -1    0    0  501    0  0.00000000000E+00 -0.00000000000E+00 -0.74431748592E+03  0.74431748592E+03  0.00000000000E+00 0. -1.
         23    2    1    2    0    0 -0.47661553983E+02  0.43215893027E+03  0.70836961464E+03  0.83611733152E+03  0.90948976786E+02 0.  0.
         13    1    3    3    0    0  0.72742409391E+01  0.99899404375E+02  0.10491472187E+03  0.14505138552E+03  0.00000000000E+00 0.  1.
        -13    1    3    3    0    0 -0.54935794922E+02  0.33225952589E+03  0.60345489277E+03  0.69106594600E+03  0.00000000000E+00 0. -1.
         22    1    1    2    0    0  0.47661553983E+02 -0.43215893027E+03 -0.61099152407E+03  0.74989573090E+03  0.00000000000E+00 0. -1.
<mgrwt>
<rscale>  0 0.15830208E+04</rscale>
<asrwt>0</asrwt>
<pdfrwt beam="1">  1        2 0.11451038E+00 0.15830208E+04</pdfrwt>
<pdfrwt beam="2">  1       -2 0.12949163E+00 0.15830208E+04</pdfrwt>
<totfact> 0.15946538E+01</totfact>
</mgrwt>
</event>
<event>
 6    1  0.1831439E-005  0.1309259E+04  0.7818608E-02  0.9022255E-01
          1   -1    0    0  501    0  0.00000000000E+00  0.00000000000E+00  0.31709526636E+04  0.31709526636E+04  0.00000000000E+00 0. -1.
         -1   -1    0    0    0  501 -0.00000000000E+00 -0.00000000000E+00 -0.13514544822E+03  0.13514544822E+03  0.00000000000E+00 0.  1.
         23    2    1    2    0    0  0.53116522958E+03  0.38887512734E+02  0.57856906007E+03  0.79180535009E+03  0.92546287891E+02 0.  0.
         11    1    3    3    0    0  0.23333365368E+03 -0.33023812797E+01  0.19332441394E+03  0.30303436883E+03  0.00000000000E+00 0. -1.
        -11    1    3    3    0    0  0.29783157589E+03  0.42189894014E+02  0.38524464613E+03  0.48877098126E+03  0.00000000000E+00 0.  1.
         22    1    1    2    0    0 -0.53116522958E+03 -0.38887512734E+02  0.24572381553E+04  0.25142927617E+04  0.00000000000E+00 0. -1.
<mgrwt>
<rscale>  0 0.13092591E+04</rscale>
<asrwt>0</asrwt>
<pdfrwt beam="1">  1        1 0.48783881E+00 0.13092591E+04</pdfrwt>
<pdfrwt beam="2">  1       -1 0.20791610E-01 0.13092591E+04</pdfrwt>
<totfact> 0.85124113E+00</totfact>
</mgrwt>
</event>
<event>
 6    1  0.4020825E-005  0.4401626E+04  0.7818608E-02  0.7928089E-01
         -1   -1    0    0    0  501 -0.00000000000E+00  0.00000000000E+00  0.14729041406E+04  0.14729041406E+04  0.00000000000E+00 0.  1.
          1   -1    0    0  501    0  0.00000000000E+00 -0.00000000000E+00 -0.32884535846E+04  0.32884535846E+04  0.00000000000E+00 0. -1.
         23    2    1    2    0    0 -0.51056004707E+02  0.11865505291E+04  0.10949346232E+04  0.16178841084E+04  0.90323226227E+02 0.  0.
         11    1    3    3    0    0 -0.62831668035E+02  0.45126076505E+03  0.40976223128E+03  0.61277172158E+03  0.00000000000E+00 0. -1.
        -11    1    3    3    0    0  0.11775663327E+02  0.73528976408E+03  0.68517239193E+03  0.10051123868E+04  0.00000000000E+00 0.  1.
         22    1    1    2    0    0  0.51056004707E+02 -0.11865505291E+04 -0.29104840673E+04  0.31434736168E+04  0.00000000000E+00 0. -1.
<mgrwt>
<rscale>  0 0.44016256E+04</rscale>
<asrwt>0</asrwt>
<pdfrwt beam="1">  1        1 0.50591593E+00 0.44016256E+04</pdfrwt>
<pdfrwt beam="2">  1       -1 0.22660064E+00 0.44016256E+04</pdfrwt>
<totfact> 0.27423929E-02</totfact>
</mgrwt>
</event>
<event>
 6    1  0.1831439E-005  0.3087236E+04  0.7818608E-02  0.8219250E-01
         -2   -1    0    0    0  501 -0.00000000000E+00  0.00000000000E+00  0.12050367105E+04  0.12050367105E+04  0.00000000000E+00 0.  1.
          2   -1    0    0  501    0  0.00000000000E+00 -0.00000000000E+00 -0.19773306713E+04  0.19773306713E+04  0.00000000000E+00 0. -1.
         23    2    1    2    0    0 -0.27014353176E+03  0.13222353790E+04 -0.11560275385E+04  0.17793223419E+04  0.91128488573E+02 0.  0.
         11    1    3    3    0    0 -0.37586173776E+02  0.36200053643E+03 -0.33652398332E+03  0.49568689733E+03  0.00000000000E+00 0.  1.
        -11    1    3    3    0    0 -0.23255735799E+03  0.96023484259E+03 -0.81950355519E+03  0.12836354446E+04  0.00000000000E+00 0. -1.
         22    1    1    2    0    0  0.27014353176E+03 -0.13222353790E+04  0.38373357769E+03  0.14030450399E+04  0.00000000000E+00 0. -1.
<mgrwt>
<rscale>  0 0.30872357E+04</rscale>
<asrwt>0</asrwt>
<pdfrwt beam="1">  1        2 0.30420472E+00 0.30872357E+04</pdfrwt>
<pdfrwt beam="2">  1       -2 0.18539027E+00 0.30872357E+04</pdfrwt>
<totfact> 0.97357972E-01</totfact>
</mgrwt>
</event>
<event>
 6    1  0.1831439E-005  0.1477084E+04  0.7818608E-02  0.8899837E-01
          2   -1    0    0  501    0  0.00000000000E+00  0.00000000000E+00  0.12111838602E+04  0.12111838602E+04  0.00000000000E+00 0. -1.
         -2   -1    0    0    0  501 -0.00000000000E+00 -0.00000000000E+00 -0.45033957469E+03  0.45033957469E+03  0.00000000000E+00 0.  1.
         23    2    1    2    0    0 -0.19579829867E+03 -0.44471969038E+03 -0.23992543767E+03  0.54902506833E+03  0.88043927921E+02 0.  0.
         11    1    3    3    0    0 -0.14785526496E+03 -0.29066571826E+03 -0.11802701577E+03  0.34681135448E+03  0.00000000000E+00 0.  1.
        -11    1    3    3    0    0 -0.47943033710E+02 -0.15405397212E+03 -0.12189842190E+03  0.20221371385E+03  0.00000000000E+00 0. -1.
         22    1    1    2    0    0  0.19579829867E+03  0.44471969038E+03  0.10007697232E+04  0.11124983666E+04  0.00000000000E+00 0. -1.
<mgrwt>
<rscale>  0 0.14770836E+04</rscale>
<asrwt>0</asrwt>
<pdfrwt beam="1">  1        2 0.18633598E+00 0.14770836E+04</pdfrwt>
<pdfrwt beam="2">  1       -2 0.69283012E-01 0.14770836E+04</pdfrwt>
<totfact> 0.34322516E+01</totfact>
</mgrwt>
</event>
<event>
 6    1  0.1831439E-005  0.3958436E+04  0.7818608E-02  0.8012984E-01
          2   -1    0    0  501    0  0.00000000000E+00  0.00000000000E+00  0.28413156852E+04  0.28413156852E+04  0.00000000000E+00 0. -1.
         -2   -1    0    0    0  501 -0.00000000000E+00 -0.00000000000E+00 -0.13786937856E+04  0.13786937856E+04  0.00000000000E+00 0.  1.
         23    2    1    2    0    0  0.85295720775E+03 -0.14689310737E+04  0.18125742676E+04  0.24857196572E+04  0.89901285154E+02 0.  0.
         11    1    3    3    0    0  0.47666115092E+03 -0.83722248416E+03  0.96367938495E+03  0.13626537703E+04  0.00000000000E+00 0.  1.
        -11    1    3    3    0    0  0.37629605683E+03 -0.63170858957E+03  0.84889488268E+03  0.11230658869E+04  0.00000000000E+00 0. -1.
         22    1    1    2    0    0 -0.85295720775E+03  0.14689310737E+04 -0.34995236796E+03  0.17342898136E+04  0.00000000000E+00 0.  1.
<mgrwt>
<rscale>  0 0.39584362E+04</rscale>
<asrwt>0</asrwt>
<pdfrwt beam="1">  1        2 0.43712549E+00 0.39584362E+04</pdfrwt>
<pdfrwt beam="2">  1       -2 0.21210674E+00 0.39584362E+04</pdfrwt>
<totfact> 0.19167180E-01</totfact>
</mgrwt>
</event>
<event>
 6    1  0.1831439E-005  0.5238011E+04  0.7818608E-02  0.7792805E-01
         -2   -1    0    0    0  501 -0.00000000000E+00  0.00000000000E+00  0.40026941732E+04  0.40026941732E+04  0.00000000000E+00 0.  1.
          2   -1    0    0  501    0  0.00000000000E+00 -0.00000000000E+00 -0.17136432702E+04  0.17136432702E+04  0.00000000000E+00 0. -1.
         23    2    1    2    0    0  0.14837947622E+03  0.23682961058E+04  0.23523001276E+04  0.33425549390E+04  0.92275218672E+02 0.  0.
         11    1    3    3    0    0  0.46781107418E+02  0.42070250277E+03  0.46088628415E+03  0.62577570643E+03  0.00000000000E+00 0.  1.
        -11    1    3    3    0    0  0.10159836881E+03  0.19475936031E+04  0.18914138435E+04  0.27167792326E+04  0.00000000000E+00 0. -1.
         22    1    1    2    0    0 -0.14837947622E+03 -0.23682961058E+04 -0.63249224685E+02  0.23737825044E+04  0.00000000000E+00 0. -1.
<mgrwt>
<rscale>  0 0.52380110E+04</rscale>
<asrwt>0</asrwt>
<pdfrwt beam="1">  1        2 0.26363743E+00 0.52380110E+04</pdfrwt>
<pdfrwt beam="2">  1       -2 0.61579910E+00 0.52380110E+04</pdfrwt>
<totfact> 0.30841907E-03</totfact>
</mgrwt>
</event>
<event>
 6    1  0.1831439E-005  0.2035202E+04  0.7818608E-02  0.8590337E-01
          2   -1    0    0  501    0  0.00000000000E+00  0.00000000000E+00  0.23566595763E+04  0.23566595763E+04  0.00000000000E+00 0. -1.
         -2   -1    0    0    0  501 -0.00000000000E+00 -0.00000000000E+00 -0.43939803598E+03  0.43939803598E+03  0.00000000000E+00 0.  1.
         23    2    1    2    0    0  0.67306890053E+03 -0.34966137707E+03  0.32810761283E+02  0.76469364635E+03  0.91624250259E+02 0.  0.
         13    1    3    3    0    0  0.29733218008E+03 -0.15371081532E+03  0.60043891908E+02  0.34005692025E+03  0.00000000000E+00 0. -1.
        -13    1    3    3    0    0  0.37573672046E+03 -0.19595056174E+03 -0.27233130625E+02  0.42463672610E+03  0.00000000000E+00 0.  1.
         22    1    1    2    0    0 -0.67306890053E+03  0.34966137707E+03  0.18844507790E+04  0.20313639659E+04  0.00000000000E+00 0. -1.
<mgrwt>
<rscale>  0 0.20352018E+04</rscale>
<asrwt>0</asrwt>
<pdfrwt beam="1">  1        2 0.36256300E+00 0.20352018E+04</pdfrwt>
<pdfrwt beam="2">  1       -2 0.67599699E-01 0.20352018E+04</pdfrwt>
<totfact> 0.78225317E+00</totfact>
</mgrwt>
</event>
<event>
 6    1  0.1831439E-005  0.1508125E+04  0.7818608E-02  0.8879068E-01
         -1   -1    0    0    0  501 -0.00000000000E+00  0.00000000000E+00  0.11617788048E+04  0.11617788048E+04  0.00000000000E+00 0.  1.
          1   -1    0    0  501    0  0.00000000000E+00 -0.00000000000E+00 -0.48943044367E+03  0.48943044367E+03  0.00000000000E+00 0. -1.
         23    2    1    2    0    0 -0.39008246617E+03  0.31667044063E+03  0.94929061358E+03  0.10775006905E+04  0.86084670633E+02 0.  0.
         13    1    3    3    0    0 -0.46896190576E+02  0.71127982638E+02  0.20330514623E+03  0.22043462770E+03  0.00000000000E+00 0. -1.
        -13    1    3    3    0    0 -0.34318627559E+03  0.24554245799E+03  0.74598546735E+03  0.85706606276E+03  0.00000000000E+00 0.  1.
         22    1    1    2    0    0  0.39008246617E+03 -0.31667044063E+03 -0.27694225243E+03  0.57370855803E+03  0.00000000000E+00 0. -1.
<mgrwt>
<rscale>  0 0.15081246E+04</rscale>
<asrwt>0</asrwt>
<pdfrwt beam="1">  1        1 0.75296992E-01 0.15081246E+04</pdfrwt>
<pdfrwt beam="2">  1       -1 0.17873520E+00 0.15081246E+04</pdfrwt>
<totfact> 0.93772241E+00</totfact>
</mgrwt>
</event>
<event>
 6    1  0.1831439E-005  0.3034769E+04  0.7818608E-02  0.8233871E-01
         -1   -1    0    0    0  501 -0.00000000000E+00  0.00000000000E+00  0.15946680011E+04  0.15946680011E+04  0.00000000000E+00 0.  1.
          1   -1    0    0  501    0  0.00000000000E+00 -0.00000000000E+00 -0.14438466263E+04  0.14438466263E+04  0.00000000000E+00 0. -1.
         23    2    1    2    0    0  0.94086770000E+03  0.41533586307E+03  0.11906686544E+04  0.15759763295E+04  0.90959543984E+02 0.  0.
         13    1    3    3    0    0  0.69341965253E+03  0.26557652978E+03  0.83042153297E+03  0.11139845735E+04  0.00000000000E+00 0. -1.
        -13    1    3    3    0    0  0.24744804746E+03  0.14975933330E+03  0.36024712140E+03  0.46199175597E+03  0.00000000000E+00 0.  1.
         22    1    1    2    0    0 -0.94086770000E+03 -0.41533586307E+03 -0.10398472796E+04  0.14625382979E+04  0.00000000000E+00 0. -1.
<mgrwt>
<rscale>  0 0.30347692E+04</rscale>
<asrwt>0</asrwt>
<pdfrwt beam="1">  1        1 0.22213025E+00 0.30347692E+04</pdfrwt>
<pdfrwt beam="2">  1       -1 0.24533354E+00 0.30347692E+04</pdfrwt>
<totfact> 0.45430244E-01</totfact>
</mgrwt>
</event>
<event>
 6    1  0.1831439E-005  0.5049930E+04  0.7818608E-02  0.7820851E-01
         -2   -1    0    0    0  501 -0.00000000000E+00  0.00000000000E+00  0.39264464777E+04  0.39264464777E+04  0.00000000000E+00 0.  1.
          2   -1    0    0  501    0  0.00000000000E+00 -0.00000000000E+00 -0.16237194093E+04  0.16237194093E+04  0.00000000000E+00 0. -1.
         23    2    1    2    0    0 -0.25822125141E+03  0.10487786770E+04 -0.13556505989E+04  0.17356748222E+04  0.90352721027E+02 0.  0.
         11    1    3    3    0    0 -0.11685369073E+03  0.30178753007E+03 -0.40571464825E+03  0.51897482997E+03  0.00000000000E+00 0. -1.
        -11    1    3    3    0    0 -0.14136756069E+03  0.74699114691E+03 -0.94993595062E+03  0.12166999922E+04  0.00000000000E+00 0.  1.
         22    1    1    2    0    0  0.25822125141E+03 -0.10487786770E+04  0.36583776673E+04  0.38144910649E+04  0.00000000000E+00 0.  1.
<mgrwt>
<rscale>  0 0.50499296E+04</rscale>
<asrwt>0</asrwt>
<pdfrwt beam="1">  1        2 0.24980299E+00 0.50499296E+04</pdfrwt>
<pdfrwt beam="2">  1       -2 0.60406869E+00 0.50499296E+04</pdfrwt>
<totfact> 0.38812433E-03</totfact>
</mgrwt>
</event>
<event>
 6    1  0.1831439E-005  0.3729800E+04  0.7818608E-02  0.8061390E-01
          1   -1    0    0  501    0  0.00000000000E+00  0.00000000000E+00  0.13130327408E+04  0.13130327408E+04  0.00000000000E+00 0. -1.
         -1   -1    0    0    0  501 -0.00000000000E+00 -0.00000000000E+00 -0.26487171712E+04  0.26487171712E+04  0.00000000000E+00 0.  1.
         23    2    1    2    0    0 -0.19828620001E+02 -0.16119326789E+04 -0.16618205119E+04  0.23170356879E+04  0.91032027440E+02 0.  0.
         13    1    3    3    0    0  0.18060656777E+02 -0.79225381192E+03 -0.86816795507E+03  0.11754607131E+04  0.00000000000E+00 0.  1.
        -13    1    3    3    0    0 -0.37889276777E+02 -0.81967886693E+03 -0.79365255686E+03  0.11415749748E+04  0.00000000000E+00 0. -1.
         22    1    1    2    0    0  0.19828620001E+02  0.16119326789E+04  0.32613608153E+03  0.16447142241E+04  0.00000000000E+00 0. -1.
<mgrwt>
<rscale>  0 0.37298002E+04</rscale>
<asrwt>0</asrwt>
<pdfrwt beam="1">  1        1 0.20200504E+00 0.37298002E+04</pdfrwt>
<pdfrwt beam="2">  1       -1 0.40749494E+00 0.37298002E+04</pdfrwt>
<totfact> 0.45001145E-02</totfact>
</mgrwt>
</event>
<event>
 6    1  0.1831439E-005  0.4367459E+04  0.7818608E-02  0.7934261E-01
         -3   -1    0    0    0  501 -0.00000000000E+00  0.00000000000E+00  0.17902061566E+04  0.17902061566E+04  0.00000000000E+00 0.  1.
          3   -1    0    0  501    0  0.00000000000E+00 -0.00000000000E+00 -0.26637567391E+04  0.26637567391E+04  0.00000000000E+00 0. -1.
         23    2    1    2    0    0 -0.16277992346E+04 -0.17172270928E+03  0.10356587196E+04  0.19391469589E+04  0.92102701835E+02 0.  0.
         11    1    3    3    0    0 -0.10506216006E+04 -0.12757310263E+03  0.62084896204E+03  0.12270020692E+04  0.00000000000E+00 0.  1.
        -11    1    3    3    0    0 -0.57717763400E+03 -0.44149606651E+02  0.41480975756E+03  0.71214488970E+03  0.00000000000E+00 0. -1.
         22    1    1    2    0    0  0.16277992346E+04  0.17172270928E+03 -0.19092093020E+04  0.25148159368E+04  0.00000000000E+00 0. -1.
<mgrwt>
<rscale>  0 0.43674586E+04</rscale>
<asrwt>0</asrwt>
<pdfrwt beam="1">  1        3 0.40980873E+00 0.43674586E+04</pdfrwt>
<pdfrwt beam="2">  1       -3 0.27541633E+00 0.43674586E+04</pdfrwt>
<totfact> 0.10161073E-03</totfact>
</mgrwt>
</event>
<event>
 6    1  0.1831439E-005  0.2354676E+04  0.7818608E-02  0.8456670E-01
         -1   -1    0    0    0  501 -0.00000000000E+00  0.00000000000E+00  0.50386228658E+03  0.50386228658E+03  0.00000000000E+00 0.  1.
          1   -1    0    0  501    0  0.00000000000E+00 -0.00000000000E+00 -0.27510002394E+04  0.27510002394E+04  0.00000000000E+00 0. -1.
         23    2    1    2    0    0 -0.71350747171E+03  0.18875000186E+03  0.13938397974E+03  0.75682201191E+03  0.92909571718E+02 0.  0.
         11    1    3    3    0    0 -0.44853233990E+03  0.81927376435E+02  0.11406919552E+03  0.47000546413E+03  0.00000000000E+00 0. -1.
        -11    1    3    3    0    0 -0.26497513181E+03  0.10682262542E+03  0.25314784213E+02  0.28681654778E+03  0.00000000000E+00 0.  1.
         22    1    1    2    0    0  0.71350747171E+03 -0.18875000186E+03 -0.23865219326E+04  0.24980405141E+04  0.00000000000E+00 0. -1.
<mgrwt>
<rscale>  0 0.23546764E+04</rscale>
<asrwt>0</asrwt>
<pdfrwt beam="1">  1        1 0.42323081E+00 0.23546764E+04</pdfrwt>
<pdfrwt beam="2">  1       -1 0.77517274E-01 0.23546764E+04</pdfrwt>
<totfact> 0.13550972E+00</totfact>
</mgrwt>
</event>
<event>
 6    1  0.1831439E-005  0.3473469E+04  0.7818608E-02  0.8120106E-01
          2   -1    0    0  501    0  0.00000000000E+00  0.00000000000E+00  0.30644123852E+04  0.30644123852E+04  0.00000000000E+00 0. -1.
         -2   -1    0    0    0  501 -0.00000000000E+00 -0.00000000000E+00 -0.98428253075E+03  0.98428253075E+03  0.00000000000E+00 0.  1.
         23    2    1    2    0    0  0.85280536041E+03 -0.14728290371E+04  0.64446373224E+03  0.18221191661E+04  0.91007681810E+02 0.  0.
         13    1    3    3    0    0  0.43784764978E+03 -0.66668130101E+03  0.29398668331E+03  0.85006040462E+03  0.00000000000E+00 0. -1.
        -13    1    3    3    0    0  0.41495771063E+03 -0.80614773608E+03  0.35047704893E+03  0.97205876151E+03  0.00000000000E+00 0.  1.
         22    1    1    2    0    0 -0.85280536041E+03  0.14728290371E+04  0.14356661223E+04  0.22265757499E+04  0.00000000000E+00 0. -1.
<mgrwt>
<rscale>  0 0.34734695E+04</rscale>
<asrwt>0</asrwt>
<pdfrwt beam="1">  1        2 0.47144806E+00 0.34734695E+04</pdfrwt>
<pdfrwt beam="2">  1       -2 0.15142808E+00 0.34734695E+04</pdfrwt>
<totfact> 0.38116570E-01</totfact>
</mgrwt>
</event>
<event>
 6    1  0.1831439E-005  0.4755250E+04  0.7818608E-02  0.7867413E-01
         -2   -1    0    0    0  501 -0.00000000000E+00  0.00000000000E+00  0.15130323130E+04  0.15130323130E+04  0.00000000000E+00 0.  1.
          2   -1    0    0  501    0  0.00000000000E+00 -0.00000000000E+00 -0.37362729806E+04  0.37362729806E+04  0.00000000000E+00 0. -1.
         23    2    1    2    0    0 -0.17406098013E+04 -0.82831467385E+02  0.67216998825E+03  0.18699582563E+04  0.91366595644E+02 0.  0.
         13    1    3    3    0    0 -0.84445987007E+03 -0.32322277798E+01  0.35425847000E+03  0.91576306053E+03  0.00000000000E+00 0.  1.
        -13    1    3    3    0    0 -0.89614993124E+03 -0.79599239605E+02  0.31791151825E+03  0.95419519577E+03  0.00000000000E+00 0. -1.
         22    1    1    2    0    0  0.17406098013E+04  0.82831467385E+02 -0.28954106559E+04  0.33793470373E+04  0.00000000000E+00 0. -1.
<mgrwt>
<rscale>  0 0.47552505E+04</rscale>
<asrwt>0</asrwt>
<pdfrwt beam="1">  1        2 0.57481122E+00 0.47552505E+04</pdfrwt>
<pdfrwt beam="2">  1       -2 0.23277420E+00 0.47552505E+04</pdfrwt>
<totfact> 0.33352605E-02</totfact>
</mgrwt>
</event>
<event>
 6    1  0.1831439E-005  0.1474944E+04  0.7818608E-02  0.8901288E-01
          1   -1    0    0  501    0  0.00000000000E+00  0.00000000000E+00  0.11583922362E+04  0.11583922362E+04  0.00000000000E+00 0. -1.
         -1   -1    0    0    0  501 -0.00000000000E+00 -0.00000000000E+00 -0.46949968040E+03  0.46949968040E+03  0.00000000000E+00 0.  1.
         23    2    1    2    0    0 -0.52612207029E+03  0.15205959375E+03 -0.19503273161E+03  0.58805997506E+03  0.88601438924E+02 0.  0.
         13    1    3    3    0    0 -0.24027842238E+03  0.34861043005E+02 -0.11649910118E+03  0.26929733225E+03  0.00000000000E+00 0.  1.
        -13    1    3    3    0    0 -0.28584364791E+03  0.11719855075E+03 -0.78533630425E+02  0.31876264282E+03  0.00000000000E+00 0. -1.
         22    1    1    2    0    0  0.52612207029E+03 -0.15205959375E+03  0.88392528737E+03  0.10398319415E+04  0.00000000000E+00 0. -1.
<mgrwt>
<rscale>  0 0.14749438E+04</rscale>
<asrwt>0</asrwt>
<pdfrwt beam="1">  1        1 0.17821419E+00 0.14749438E+04</pdfrwt>
<pdfrwt beam="2">  1       -1 0.72230720E-01 0.14749438E+04</pdfrwt>
<totfact> 0.21495317E+01</totfact>
</mgrwt>
</event>
<event>
 6    1  0.1831439E-005  0.3959123E+04  0.7818608E-02  0.8012844E-01
          2   -1    0    0  501    0  0.00000000000E+00  0.00000000000E+00  0.25818948448E+04  0.25818948448E+04  0.00000000000E+00 0. -1.
         -2   -1    0    0    0  501 -0.00000000000E+00 -0.00000000000E+00 -0.15177472619E+04  0.15177472619E+04  0.00000000000E+00 0.  1.
         23    2    1    2    0    0 -0.54763038826E+03 -0.63588091182E+03  0.23877110090E+04  0.25324587354E+04  0.89105600134E+02 0.  0.
         13    1    3    3    0    0 -0.14921614117E+03 -0.15386110657E+03  0.50489875891E+03  0.54850838977E+03  0.00000000000E+00 0.  1.
        -13    1    3    3    0    0 -0.39841424709E+03 -0.48201980525E+03  0.18828122501E+04  0.19839503457E+04  0.00000000000E+00 0. -1.
         22    1    1    2    0    0  0.54763038826E+03  0.63588091182E+03 -0.13235634261E+04  0.15671833713E+04  0.00000000000E+00 0.  1.
<mgrwt>
<rscale>  0 0.39591230E+04</rscale>
<asrwt>0</asrwt>
<pdfrwt beam="1">  1        2 0.39721459E+00 0.39591230E+04</pdfrwt>
<pdfrwt beam="2">  1       -2 0.23349958E+00 0.39591230E+04</pdfrwt>
<totfact> 0.20066176E-01</totfact>
</mgrwt>
</event>
<event>
 6    1  0.1831439E-005  0.1954452E+04  0.7818608E-02  0.8628217E-01
         -1   -1    0    0    0  501 -0.00000000000E+00  0.00000000000E+00  0.63612601864E+03  0.63612601864E+03  0.00000000000E+00 0.  1.
          1   -1    0    0  501    0  0.00000000000E+00 -0.00000000000E+00 -0.15012289809E+04  0.15012289809E+04  0.00000000000E+00 0. -1.
         23    2    1    2    0    0  0.71534489436E+03 -0.42454803827E+03  0.12276661385E+03  0.84590401167E+03  0.92317933302E+02 0.  0.
         11    1    3    3    0    0  0.54864343630E+03 -0.31041467158E+03  0.54797395404E+02  0.63274769306E+03  0.00000000000E+00 0. -1.
        -11    1    3    3    0    0  0.16670145806E+03 -0.11413336668E+03  0.67969218444E+02  0.21315631862E+03  0.00000000000E+00 0.  1.
         22    1    1    2    0    0 -0.71534489436E+03  0.42454803827E+03 -0.98786957614E+03  0.12914509879E+04  0.00000000000E+00 0. -1.
<mgrwt>
<rscale>  0 0.19544522E+04</rscale>
<asrwt>0</asrwt>
<pdfrwt beam="1">  1        1 0.23095831E+00 0.19544522E+04</pdfrwt>
<pdfrwt beam="2">  1       -1 0.97865541E-01 0.19544522E+04</pdfrwt>
<totfact> 0.60871919E+00</totfact>
</mgrwt>
</event>
<event>
 6    1  0.1831439E-005  0.1489236E+04  0.7818608E-02  0.8891643E-01
         -2   -1    0    0    0  501 -0.00000000000E+00  0.00000000000E+00  0.53608611240E+03  0.53608611240E+03  0.00000000000E+00 0.  1.
          2   -1    0    0  501    0  0.00000000000E+00 -0.00000000000E+00 -0.10342662737E+04  0.10342662737E+04  0.00000000000E+00 0. -1.
         23    2    1    2    0    0 -0.14452356253E+03  0.65683838394E+03 -0.58053694286E+03  0.89277850659E+03  0.87787226094E+02 0.  0.
         11    1    3    3    0    0 -0.53797706728E+02  0.95311259594E+02 -0.93896644992E+02  0.14420474817E+03  0.00000000000E+00 0.  1.
        -11    1    3    3    0    0 -0.90725855807E+02  0.56152712434E+03 -0.48664029786E+03  0.74857375842E+03  0.00000000000E+00 0. -1.
         22    1    1    2    0    0  0.14452356253E+03 -0.65683838394E+03  0.82356781556E+02  0.67757387952E+03  0.00000000000E+00 0.  1.
<mgrwt>
<rscale>  0 0.14892358E+04</rscale>
<asrwt>0</asrwt>
<pdfrwt beam="1">  1        2 0.15911789E+00 0.14892358E+04</pdfrwt>
<pdfrwt beam="2">  1       -2 0.82474787E-01 0.14892358E+04</pdfrwt>
<totfact> 0.29891196E+01</totfact>
</mgrwt>
</event>
<event>
 6    1  0.1831439E-005  0.4332516E+04  0.7818608E-02  0.7940633E-01
          2   -1    0    0  501    0  0.00000000000E+00  0.00000000000E+00  0.25808792175E+04  0.25808792175E+04  0.00000000000E+00 0. -1.
         -2   -1    0    0    0  501 -0.00000000000E+00 -0.00000000000E+00 -0.18182459648E+04  0.18182459648E+04  0.00000000000E+00 0.  1.
         23    2    1    2    0    0  0.10020310000E+04  0.12527704116E+04 -0.10952758049E+04  0.19444712565E+04  0.88541229929E+02 0.  0.
         13    1    3    3    0    0  0.44762329485E+03  0.60253185274E+03 -0.46974927766E+03  0.88548045236E+03  0.00000000000E+00 0. -1.
        -13    1    3    3    0    0  0.55440770513E+03  0.65023855890E+03 -0.62552652720E+03  0.10589908041E+04  0.00000000000E+00 0.  1.
         22    1    1    2    0    0 -0.10020310000E+04 -0.12527704116E+04  0.18579090576E+04  0.24546539258E+04  0.00000000000E+00 0. -1.
<mgrwt>
<rscale>  0 0.43325158E+04</rscale>
<asrwt>0</asrwt>
<pdfrwt beam="1">  1        2 0.39705834E+00 0.43325158E+04</pdfrwt>
<pdfrwt beam="2">  1       -2 0.27973015E+00 0.43325158E+04</pdfrwt>
<totfact> 0.10138457E-01</totfact>
</mgrwt>
</event>
<event>
 6    1  0.1831439E-005  0.2813475E+04  0.7818608E-02  0.8299097E-01
         -2   -1    0    0    0  501 -0.00000000000E+00  0.00000000000E+00  0.38451867826E+03  0.38451867826E+03  0.00000000000E+00 0.  1.
          2   -1    0    0  501    0  0.00000000000E+00 -0.00000000000E+00 -0.51464598754E+04  0.51464598754E+04  0.00000000000E+00 0. -1.
         23    2    1    2    0    0 -0.10316405760E+04  0.23312693150E+03 -0.56456029648E+03  0.12023948512E+04  0.91622079485E+02 0.  0.
         13    1    3    3    0    0 -0.16075839026E+03  0.70062272249E+02 -0.10275950233E+03  0.20325229974E+03  0.00000000000E+00 0. -1.
        -13    1    3    3    0    0 -0.87088218577E+03  0.16306465925E+03 -0.46180079415E+03  0.99914255142E+03  0.00000000000E+00 0.  1.
         22    1    1    2    0    0  0.10316405760E+04 -0.23312693150E+03 -0.41973809006E+04  0.43285837025E+04  0.00000000000E+00 0. -1.
<mgrwt>
<rscale>  0 0.28134747E+04</rscale>
<asrwt>0</asrwt>
<pdfrwt beam="1">  1        2 0.79176301E+00 0.28134747E+04</pdfrwt>
<pdfrwt beam="2">  1       -2 0.59156724E-01 0.28134747E+04</pdfrwt>
<totfact> 0.51104142E-02</totfact>
</mgrwt>
</event>
<event>
 6    1  0.1831439E-005  0.3333683E+04  0.7818608E-02  0.8154377E-01
          2   -1    0    0  501    0  0.00000000000E+00  0.00000000000E+00  0.33265739617E+04  0.33265739617E+04  0.00000000000E+00 0. -1.
         -2   -1    0    0    0  501 -0.00000000000E+00 -0.00000000000E+00 -0.83520177612E+03  0.83520177612E+03  0.00000000000E+00 0.  1.
         23    2    1    2    0    0  0.16322615061E+04  0.32873650011E+03  0.13003129205E+04  0.21145904791E+04  0.91290153807E+02 0.  0.
         11    1    3    3    0    0  0.80613654625E+03  0.20746988966E+03  0.63483558026E+03  0.10468601150E+04  0.00000000000E+00 0. -1.
        -11    1    3    3    0    0  0.82612495983E+03  0.12126661044E+03  0.66547734027E+03  0.10677303641E+04  0.00000000000E+00 0.  1.
         22    1    1    2    0    0 -0.16322615061E+04 -0.32873650011E+03  0.11910592651E+04  0.20471852588E+04  0.00000000000E+00 0. -1.
<mgrwt>
<rscale>  0 0.33336829E+04</rscale>
<asrwt>0</asrwt>
<pdfrwt beam="1">  1        2 0.51178060E+00 0.33336829E+04</pdfrwt>
<pdfrwt beam="2">  1       -2 0.12849258E+00 0.33336829E+04</pdfrwt>
<totfact> 0.39785587E-01</totfact>
</mgrwt>
</event>
<event>
 6    1  0.1831439E-005  0.2820707E+04  0.7818608E-02  0.8296868E-01
         -1   -1    0    0    0  501 -0.00000000000E+00  0.00000000000E+00  0.84498610331E+03  0.84498610331E+03  0.00000000000E+00 0.  1.
          1   -1    0    0  501    0  0.00000000000E+00 -0.00000000000E+00 -0.23539994053E+04  0.23539994053E+04  0.00000000000E+00 0. -1.
         23    2    1    2    0    0 -0.84665678846E+03  0.11122557124E+04 -0.95485554294E+03  0.16953129016E+04  0.91630995400E+02 0.  0.
         13    1    3    3    0    0 -0.17589004323E+03  0.24304691592E+03 -0.25076253574E+03  0.39101273634E+03  0.00000000000E+00 0. -1.
        -13    1    3    3    0    0 -0.67076674523E+03  0.86920879644E+03 -0.70409300719E+03  0.13043001653E+04  0.00000000000E+00 0.  1.
         22    1    1    2    0    0  0.84665678846E+03 -0.11122557124E+04 -0.55415775903E+03  0.15036726070E+04  0.00000000000E+00 0. -1.
<mgrwt>
<rscale>  0 0.28207069E+04</rscale>
<asrwt>0</asrwt>
<pdfrwt beam="1">  1        1 0.36215375E+00 0.28207069E+04</pdfrwt>
<pdfrwt beam="2">  1       -1 0.12999786E+00 0.28207069E+04</pdfrwt>
<totfact> 0.74873496E-01</totfact>
</mgrwt>
</event>
<event>
 6    1  0.1831439E-005  0.2485506E+04  0.7818608E-02  0.8408167E-01
          2   -1    0    0  501    0  0.00000000000E+00  0.00000000000E+00  0.25588674558E+04  0.25588674558E+04  0.00000000000E+00 0. -1.
         -2   -1    0    0    0  501 -0.00000000000E+00 -0.00000000000E+00 -0.60356186171E+03  0.60356186171E+03  0.00000000000E+00 0.  1.
         23    2    1    2    0    0  0.10048913012E+04 -0.64483002148E+03  0.14094722756E+04  0.18495902964E+04  0.93594256667E+02 0.  0.
         13    1    3    3    0    0  0.14091659984E+03 -0.12888145083E+03  0.24216297713E+03  0.30840042797E+03  0.00000000000E+00 0. -1.
        -13    1    3    3    0    0  0.86397470137E+03 -0.51594857065E+03  0.11673092985E+04  0.15411898684E+04  0.00000000000E+00 0.  1.
         22    1    1    2    0    0 -0.10048913012E+04  0.64483002148E+03  0.54583331849E+03  0.13128390211E+04  0.00000000000E+00 0.  1.
<mgrwt>
<rscale>  0 0.24855058E+04</rscale>
<asrwt>0</asrwt>
<pdfrwt beam="1">  1        2 0.39367191E+00 0.24855058E+04</pdfrwt>
<pdfrwt beam="2">  1       -2 0.92855672E-01 0.24855058E+04</pdfrwt>
<totfact> 0.28232418E+00</totfact>
</mgrwt>
</event>
<event>
 6    1  0.1831439E-005  0.1672237E+04  0.7818608E-02  0.8777359E-01
          2   -1    0    0  501    0  0.00000000000E+00  0.00000000000E+00  0.13454638912E+04  0.13454638912E+04  0.00000000000E+00 0. -1.
         -2   -1    0    0    0  501 -0.00000000000E+00 -0.00000000000E+00 -0.51959351968E+03  0.51959351968E+03  0.00000000000E+00 0.  1.
         23    2    1    2    0    0 -0.60688286602E+03  0.45805831196E+03  0.33036344689E+02  0.76655387227E+03  0.91592624147E+02 0.  0.
         11    1    3    3    0    0 -0.42631234836E+03  0.29109263200E+03  0.57499724814E+02  0.51940673573E+03  0.00000000000E+00 0. -1.
        -11    1    3    3    0    0 -0.18057051766E+03  0.16696567996E+03 -0.24463380125E+02  0.24714713654E+03  0.00000000000E+00 0.  1.
         22    1    1    2    0    0  0.60688286602E+03 -0.45805831196E+03  0.79283402681E+03  0.10985035386E+04  0.00000000000E+00 0. -1.
<mgrwt>
<rscale>  0 0.16722372E+04</rscale>
<asrwt>0</asrwt>
<pdfrwt beam="1">  1        2 0.20699444E+00 0.16722372E+04</pdfrwt>
<pdfrwt beam="2">  1       -2 0.79937465E-01 0.16722372E+04</pdfrwt>
<totfact> 0.20542245E+01</totfact>
</mgrwt>
</event>
<event>
 6    1  0.1831439E-005  0.2627049E+04  0.7818608E-02  0.8359071E-01
         -1   -1    0    0    0  501 -0.00000000000E+00  0.00000000000E+00  0.44142431202E+03  0.44142431202E+03  0.00000000000E+00 0.  1.
          1   -1    0    0  501    0  0.00000000000E+00 -0.00000000000E+00 -0.39085886420E+04  0.39085886420E+04  0.00000000000E+00 0. -1.
         23    2    1    2    0    0  0.53246811302E+03  0.43134570947E+03 -0.35882114312E+04  0.36541438477E+04  0.89020067621E+02 0.  0.
         13    1    3    3    0    0  0.64633876254E+02  0.62430177688E+02 -0.33596795767E+03  0.34777799474E+03  0.00000000000E+00 0. -1.
        -13    1    3    3    0    0  0.46783423677E+03  0.36891553178E+03 -0.32522434735E+04  0.33063658530E+04  0.00000000000E+00 0.  1.
         22    1    1    2    0    0 -0.53246811302E+03 -0.43134570947E+03  0.12104710117E+03  0.69586910634E+03  0.00000000000E+00 0.  1.
<mgrwt>
<rscale>  0 0.26270486E+04</rscale>
<asrwt>0</asrwt>
<pdfrwt beam="1">  1        1 0.60132132E+00 0.26270486E+04</pdfrwt>
<pdfrwt beam="2">  1       -1 0.67911434E-01 0.26270486E+04</pdfrwt>
<totfact> 0.22259473E-01</totfact>
</mgrwt>
</event>
<event>
 6    1  0.1831439E-005  0.5188028E+04  0.7818608E-02  0.7800139E-01
         -2   -1    0    0    0  501 -0.00000000000E+00  0.00000000000E+00  0.18456031925E+04  0.18456031925E+04  0.00000000000E+00 0.  1.
          2   -1    0    0  501    0  0.00000000000E+00 -0.00000000000E+00 -0.36459128146E+04  0.36459128146E+04  0.00000000000E+00 0. -1.
         23    2    1    2    0    0 -0.18474017377E+04 -0.16687632183E+04 -0.13192150571E+03  0.24946538537E+04  0.90723245377E+02 0.  0.
         11    1    3    3    0    0 -0.77512565828E+02 -0.96063706078E+02 -0.10002564540E+02  0.12384056195E+03  0.00000000000E+00 0. -1.
        -11    1    3    3    0    0 -0.17698891719E+04 -0.15726995122E+04 -0.12191894117E+03  0.23708132918E+04  0.00000000000E+00 0.  1.
         22    1    1    2    0    0  0.18474017377E+04  0.16687632183E+04 -0.16683881164E+04  0.29968621533E+04  0.00000000000E+00 0. -1.
<mgrwt>
<rscale>  0 0.51880279E+04</rscale>
<asrwt>0</asrwt>
<pdfrwt beam="1">  1        2 0.56090967E+00 0.51880279E+04</pdfrwt>
<pdfrwt beam="2">  1       -2 0.28393895E+00 0.51880279E+04</pdfrwt>
<totfact> 0.18229208E-02</totfact>
</mgrwt>
</event>
<event>
 6    1  0.1831439E-005  0.3261485E+04  0.7818608E-02  0.8172765E-01
          2   -1    0    0  501    0  0.00000000000E+00  0.00000000000E+00  0.33659894004E+04  0.33659894004E+04  0.00000000000E+00 0. -1.
         -2   -1    0    0    0  501 -0.00000000000E+00 -0.00000000000E+00 -0.79005625361E+03  0.79005625361E+03  0.00000000000E+00 0.  1.
         23    2    1    2    0    0  0.90958245031E+03 -0.22747057019E+03  0.29871534462E+04  0.31322364780E+04  0.93469508707E+02 0.  0.
         11    1    3    3    0    0  0.28553113505E+03 -0.88275008700E+02  0.10903291434E+04  0.11305477200E+04  0.00000000000E+00 0. -1.
        -11    1    3    3    0    0  0.62405131526E+03 -0.13919556149E+03  0.18968243028E+04  0.20016887581E+04  0.00000000000E+00 0.  1.
         22    1    1    2    0    0 -0.90958245031E+03  0.22747057019E+03 -0.41122029937E+03  0.10238091760E+04  0.00000000000E+00 0.  1.
<mgrwt>
<rscale>  0 0.32614849E+04</rscale>
<asrwt>0</asrwt>
<pdfrwt beam="1">  1        2 0.51784451E+00 0.32614849E+04</pdfrwt>
<pdfrwt beam="2">  1       -2 0.12154712E+00 0.32614849E+04</pdfrwt>
<totfact> 0.43280795E-01</totfact>
</mgrwt>
</event>
<event>
 6    1  0.1831439E-005  0.9756903E+03  0.7818608E-02  0.9335616E-01
          1   -1    0    0  501    0  0.00000000000E+00  0.00000000000E+00  0.52924098396E+03  0.52924098396E+03  0.00000000000E+00 0. -1.
         -1   -1    0    0    0  501 -0.00000000000E+00 -0.00000000000E+00 -0.44968723074E+03  0.44968723074E+03  0.00000000000E+00 0.  1.
         23    2    1    2    0    0 -0.10311618248E+03 -0.42323791284E+03 -0.17066087873E+03  0.47656316814E+03  0.90686491527E+02 0.  0.
         13    1    3    3    0    0 -0.59142012877E+02 -0.27351847840E+03 -0.15457400460E+03  0.31969244378E+03  0.00000000000E+00 0. -1.
        -13    1    3    3    0    0 -0.43974169606E+02 -0.14971943444E+03 -0.16086874130E+02  0.15687072436E+03  0.00000000000E+00 0.  1.
         22    1    1    2    0    0  0.10311618248E+03  0.42323791284E+03  0.25021463195E+03  0.50236504655E+03  0.00000000000E+00 0. -1.
<mgrwt>
<rscale>  0 0.97569035E+03</rscale>
<asrwt>0</asrwt>
<pdfrwt beam="1">  1        1 0.81421690E-01 0.97569035E+03</pdfrwt>
<pdfrwt beam="2">  1       -1 0.69182651E-01 0.97569035E+03</pdfrwt>
<totfact> 0.86937877E+01</totfact>
</mgrwt>
</event>
<event>
 6    1  0.1831439E-005  0.5166406E+04  0.7818608E-02  0.7803338E-01
          2   -1    0    0  501    0  0.00000000000E+00  0.00000000000E+00  0.32088164102E+04  0.32088164102E+04  0.00000000000E+00 0.  1.
         -2   -1    0    0    0  501 -0.00000000000E+00 -0.00000000000E+00 -0.20795631860E+04  0.20795631860E+04  0.00000000000E+00 0. -1.
         23    2    1    2    0    0  0.13403239217E+04 -0.12248711912E+04  0.24444571762E+04  0.30463851526E+04  0.91180929593E+02 0.  0.
         11    1    3    3    0    0  0.70876381752E+03 -0.58839361910E+03  0.12599575387E+04  0.15607838413E+04  0.00000000000E+00 0. -1.
        -11    1    3    3    0    0  0.63156010420E+03 -0.63647757209E+03  0.11844996375E+04  0.14856013113E+04  0.00000000000E+00 0.  1.
         22    1    1    2    0    0 -0.13403239217E+04  0.12248711912E+04 -0.13152039520E+04  0.22419944437E+04  0.00000000000E+00 0. -1.
<mgrwt>
<rscale>  0 0.51664055E+04</rscale>
<asrwt>0</asrwt>
<pdfrwt beam="1">  1        2 0.49366407E+00 0.51664055E+04</pdfrwt>
<pdfrwt beam="2">  1       -2 0.31993280E+00 0.51664055E+04</pdfrwt>
<totfact> 0.22014757E-02</totfact>
</mgrwt>
</event>
<event>
 6    1  0.1831439E-005  0.2515756E+04  0.7818608E-02  0.8397394E-01
         -2   -1    0    0    0  501 -0.00000000000E+00  0.00000000000E+00  0.73720702116E+03  0.73720702116E+03  0.00000000000E+00 0.  1.
          2   -1    0    0  501    0  0.00000000000E+00 -0.00000000000E+00 -0.21462854908E+04  0.21462854908E+04  0.00000000000E+00 0. -1.
         23    2    1    2    0    0 -0.55147758052E+03 -0.65157946504E+03 -0.17619533597E+04  0.19598020828E+04  0.87528514900E+02 0.  0.
         13    1    3    3    0    0 -0.36465857470E+02 -0.83243840321E+02 -0.17236670144E+03  0.19485783402E+03  0.00000000000E+00 0.  1.
        -13    1    3    3    0    0 -0.51501172305E+03 -0.56833562472E+03 -0.15895866582E+04  0.17649442488E+04  0.00000000000E+00 0. -1.
         22    1    1    2    0    0  0.55147758052E+03  0.65157946504E+03  0.35287488998E+03  0.92369042923E+03  0.00000000000E+00 0.  1.
<mgrwt>
<rscale>  0 0.25157557E+04</rscale>
<asrwt>0</asrwt>
<pdfrwt beam="1">  1        2 0.33019776E+00 0.25157557E+04</pdfrwt>
<pdfrwt beam="2">  1       -2 0.11341647E+00 0.25157557E+04</pdfrwt>
<totfact> 0.30071005E+00</totfact>
</mgrwt>
</event>
<event>
 6    1  0.1831439E-005  0.1215120E+04  0.7818608E-02  0.9099724E-01
          2   -1    0    0  501    0  0.00000000000E+00  0.00000000000E+00  0.21706112297E+04  0.21706112297E+04  0.00000000000E+00 0. -1.
         -2   -1    0    0    0  501 -0.00000000000E+00 -0.00000000000E+00 -0.17005766881E+03  0.17005766881E+03  0.00000000000E+00 0.  1.
         23    2    1    2    0    0  0.49964637436E+03  0.20841049262E+03  0.48965338966E+03  0.73570760294E+03  0.91781273600E+02 0.  0.
         13    1    3    3    0    0  0.35900389455E+03  0.11316937389E+03  0.30195727192E+03  0.48256532983E+03  0.00000000000E+00 0. -1.
        -13    1    3    3    0    0  0.14064247981E+03  0.95241118733E+02  0.18769611774E+03  0.25314227311E+03  0.00000000000E+00 0.  1.
         22    1    1    2    0    0 -0.49964637436E+03 -0.20841049262E+03  0.15109001712E+04  0.16049612956E+04  0.00000000000E+00 0. -1.
<mgrwt>
<rscale>  0 0.12151199E+04</rscale>
<asrwt>0</asrwt>
<pdfrwt beam="1">  1        2 0.33394017E+00 0.12151199E+04</pdfrwt>
<pdfrwt beam="2">  1       -2 0.26162720E-01 0.12151199E+04</pdfrwt>
<totfact> 0.70009156E+01</totfact>
</mgrwt>
</event>
<event>
 6    1  0.1831439E-005  0.4048016E+04  0.7818608E-02  0.7994930E-01
          2   -1    0    0  501    0  0.00000000000E+00  0.00000000000E+00  0.23175760820E+04  0.23175760820E+04  0.00000000000E+00 0. -1.
         -2   -1    0    0    0  501 -0.00000000000E+00 -0.00000000000E+00 -0.17676260475E+04  0.17676260475E+04  0.00000000000E+00 0.  1.
         23    2    1    2    0    0 -0.65113116138E+03 -0.39499463466E+03  0.21664666166E+04  0.22982722454E+04  0.92114939991E+02 0.  0.
         13    1    3    3    0    0 -0.16613436465E+03 -0.93911712638E+02  0.43186550819E+03  0.47215236318E+03  0.00000000000E+00 0.  1.
        -13    1    3    3    0    0 -0.48499679673E+03 -0.30108292202E+03  0.17346011084E+04  0.18261198822E+04  0.00000000000E+00 0. -1.
         22    1    1    2    0    0  0.65113116138E+03  0.39499463466E+03 -0.16165165821E+04  0.17869298842E+04  0.00000000000E+00 0.  1.
<mgrwt>
<rscale>  0 0.40480157E+04</rscale>
<asrwt>0</asrwt>
<pdfrwt beam="1">  1        2 0.35655017E+00 0.40480157E+04</pdfrwt>
<pdfrwt beam="2">  1       -2 0.27194247E+00 0.40480157E+04</pdfrwt>
<totfact> 0.16420871E-01</totfact>
</mgrwt>
</event>
<event>
 6    1  0.1831439E-005  0.1635413E+04  0.7818608E-02  0.8799083E-01
         -1   -1    0    0    0  501 -0.00000000000E+00  0.00000000000E+00  0.65154052444E+03  0.65154052444E+03  0.00000000000E+00 0.  1.
          1   -1    0    0  501    0  0.00000000000E+00 -0.00000000000E+00 -0.10262507385E+04  0.10262507385E+04  0.00000000000E+00 0. -1.
         23    2    1    2    0    0 -0.51396646651E+03  0.60953848751E+03 -0.36238584752E+03  0.88038886361E+03  0.89790602037E+02 0.  0.
         13    1    3    3    0    0 -0.36244055335E+03  0.36796158848E+03 -0.21585401301E+03  0.55977838493E+03  0.00000000000E+00 0.  1.
        -13    1    3    3    0    0 -0.15152591317E+03  0.24157689904E+03 -0.14653183452E+03  0.32061047868E+03  0.00000000000E+00 0. -1.
         22    1    1    2    0    0  0.51396646651E+03 -0.60953848751E+03 -0.12324366534E+02  0.79740239934E+03  0.00000000000E+00 0. -1.
<mgrwt>
<rscale>  0 0.16354130E+04</rscale>
<asrwt>0</asrwt>
<pdfrwt beam="1">  1        1 0.15788473E+00 0.16354130E+04</pdfrwt>
<pdfrwt beam="2">  1       -1 0.10023700E+00 0.16354130E+04</pdfrwt>
<totfact> 0.13094907E+01</totfact>
</mgrwt>
</event>
<event>
 6    1  0.2231539E-005  0.4560583E+04  0.7818608E-02  0.7900115E-01
         -2   -1    0    0    0  501 -0.00000000000E+00  0.00000000000E+00  0.16970562076E+04  0.16970562076E+04  0.00000000000E+00 0.  1.
          2   -1    0    0  501    0  0.00000000000E+00 -0.00000000000E+00 -0.30639702706E+04  0.30639702706E+04  0.00000000000E+00 0. -1.
         23    2    1    2    0    0 -0.74526665775E+03 -0.16471408458E+04  0.76586970297E+03  0.19650897927E+04  0.80784494816E+02 0.  0.
         11    1    3    3    0    0 -0.48798431979E+03 -0.98877194316E+03  0.45190827697E+03  0.11916458126E+04  0.00000000000E+00 0.  1.
        -11    1    3    3    0    0 -0.25728233795E+03 -0.65836890261E+03  0.31396142600E+03  0.77344398010E+03  0.00000000000E+00 0. -1.
         22    1    1    2    0    0  0.74526665775E+03  0.16471408458E+04 -0.21327837660E+04  0.27959366855E+04  0.00000000000E+00 0. -1.
<mgrwt>
<rscale>  0 0.45605832E+04</rscale>
<asrwt>0</asrwt>
<pdfrwt beam="1">  1        2 0.47138003E+00 0.45605832E+04</pdfrwt>
<pdfrwt beam="2">  1       -2 0.26108558E+00 0.45605832E+04</pdfrwt>
<totfact> 0.65688183E-02</totfact>
</mgrwt>
</event>
<event>
 6    1  0.1831439E-005  0.2970349E+04  0.7818608E-02  0.8252249E-01
         -2   -1    0    0    0  501 -0.00000000000E+00  0.00000000000E+00  0.13033007748E+04  0.13033007748E+04  0.00000000000E+00 0.  1.
          2   -1    0    0  501    0  0.00000000000E+00 -0.00000000000E+00 -0.16924289854E+04  0.16924289854E+04  0.00000000000E+00 0. -1.
         23    2    1    2    0    0 -0.65157978704E+03 -0.36960388875E+03  0.10970363174E+04  0.13314436496E+04  0.89945855908E+02 0.  0.
         13    1    3    3    0    0 -0.17940763826E+03 -0.89184256898E+02  0.22894100166E+03  0.30422839215E+03  0.00000000000E+00 0.  1.
        -13    1    3    3    0    0 -0.47217214878E+03 -0.28041963186E+03  0.86809531574E+03  0.10272152575E+04  0.00000000000E+00 0. -1.
         22    1    1    2    0    0  0.65157978704E+03  0.36960388875E+03 -0.14861645280E+04  0.16642861105E+04  0.00000000000E+00 0. -1.
<mgrwt>
<rscale>  0 0.29703495E+04</rscale>
<asrwt>0</asrwt>
<pdfrwt beam="1">  1        2 0.26037369E+00 0.29703495E+04</pdfrwt>
<pdfrwt beam="2">  1       -2 0.20050781E+00 0.29703495E+04</pdfrwt>
<totfact> 0.11216364E+00</totfact>
</mgrwt>
</event>
<event>
 6    1  0.1831439E-005  0.8666604E+03  0.7818608E-02  0.9468245E-01
         -2   -1    0    0    0  501 -0.00000000000E+00  0.00000000000E+00  0.50212183965E+03  0.50212183965E+03  0.00000000000E+00 0.  1.
          2   -1    0    0  501    0  0.00000000000E+00 -0.00000000000E+00 -0.37396310879E+03  0.37396310879E+03  0.00000000000E+00 0. -1.
         23    2    1    2    0    0 -0.71629231845E+02 -0.21815884933E+02  0.49120235037E+03  0.50539997524E+03  0.92426761663E+02 0.  0.
         13    1    3    3    0    0  0.22248068668E+02 -0.57942962985E+01  0.75196235614E+02  0.78632208920E+02  0.00000000000E+00 0.  1.
        -13    1    3    3    0    0 -0.93877300513E+02 -0.16021588635E+02  0.41600611476E+03  0.42676776632E+03  0.00000000000E+00 0. -1.
         22    1    1    2    0    0  0.71629231845E+02  0.21815884933E+02 -0.36304361951E+03  0.37068497320E+03  0.00000000000E+00 0. -1.
<mgrwt>
<rscale>  0 0.86666036E+03</rscale>
<asrwt>0</asrwt>
<pdfrwt beam="1">  1        2 0.57532786E-01 0.86666036E+03</pdfrwt>
<pdfrwt beam="2">  1       -2 0.77249513E-01 0.86666036E+03</pdfrwt>
<totfact> 0.12894763E+02</totfact>
</mgrwt>
</event>
<event>
 6    1  0.1831439E-005  0.2095200E+04  0.7818608E-02  0.8563361E-01
         -2   -1    0    0    0  501 -0.00000000000E+00  0.00000000000E+00  0.48155740107E+03  0.48155740107E+03  0.00000000000E+00 0.  1.
          2   -1    0    0  501    0  0.00000000000E+00 -0.00000000000E+00 -0.22789923207E+04  0.22789923207E+04  0.00000000000E+00 0. -1.
         23    2    1    2    0    0  0.73770768819E+03 -0.27443333024E+03 -0.18073138522E+04  0.19733878075E+04  0.91377199050E+02 0.  0.
         11    1    3    3    0    0  0.44988512241E+03 -0.16756617656E+03 -0.12107346904E+04  0.13024413759E+04  0.00000000000E+00 0. -1.
        -11    1    3    3    0    0  0.28782256578E+03 -0.10686715368E+03 -0.59657916176E+03  0.67094643166E+03  0.00000000000E+00 0.  1.
         22    1    1    2    0    0 -0.73770768819E+03  0.27443333024E+03  0.98789325543E+01  0.78716191427E+03  0.00000000000E+00 0.  1.
<mgrwt>
<rscale>  0 0.20951999E+04</rscale>
<asrwt>0</asrwt>
<pdfrwt beam="1">  1        2 0.35061420E+00 0.20951999E+04</pdfrwt>
<pdfrwt beam="2">  1       -2 0.74085755E-01 0.20951999E+04</pdfrwt>
<totfact> 0.70487105E+00</totfact>
</mgrwt>
</event>
<event>
 6    1  0.1831439E-005  0.3621606E+04  0.7818608E-02  0.8085560E-01
         -1   -1    0    0    0  501 -0.00000000000E+00  0.00000000000E+00  0.16134431996E+04  0.16134431996E+04  0.00000000000E+00 0.  1.
          1   -1    0    0  501    0  0.00000000000E+00 -0.00000000000E+00 -0.20323041495E+04  0.20323041495E+04  0.00000000000E+00 0. -1.
         23    2    1    2    0    0 -0.48989224232E+03  0.14412808647E+04  0.77545929929E+03  0.17108866828E+04  0.92256038500E+02 0.  0.
         13    1    3    3    0    0 -0.25847139794E+03  0.65343695661E+03  0.32344540334E+03  0.77356593045E+03  0.00000000000E+00 0. -1.
        -13    1    3    3    0    0 -0.23142084437E+03  0.78784390809E+03  0.45201389595E+03  0.93732075239E+03  0.00000000000E+00 0.  1.
         22    1    1    2    0    0  0.48989224232E+03 -0.14412808647E+04 -0.11943202492E+04  0.19348606662E+04  0.00000000000E+00 0. -1.
<mgrwt>
<rscale>  0 0.36216059E+04</rscale>
<asrwt>0</asrwt>
<pdfrwt beam="1">  1        1 0.31266218E+00 0.36216059E+04</pdfrwt>
<pdfrwt beam="2">  1       -1 0.24822203E+00 0.36216059E+04</pdfrwt>
<totfact> 0.16386591E-01</totfact>
</mgrwt>
</event>
<event>
 6    1  0.1831439E-005  0.2562726E+04  0.7818608E-02  0.8380974E-01
         -1   -1    0    0    0  501 -0.00000000000E+00  0.00000000000E+00  0.68044210802E+03  0.68044210802E+03  0.00000000000E+00 0.  1.
          1   -1    0    0  501    0  0.00000000000E+00 -0.00000000000E+00 -0.24129767373E+04  0.24129767373E+04  0.00000000000E+00 0. -1.
         23    2    1    2    0    0  0.57908456668E+03 -0.27232640577E+03 -0.22050757463E+04  0.22979342673E+04  0.92963665915E+02 0.  0.
         13    1    3    3    0    0  0.11255499516E+03 -0.17515573025E+02 -0.44392620452E+03  0.45830764481E+03  0.00000000000E+00 0. -1.
        -13    1    3    3    0    0  0.46652957152E+03 -0.25481083274E+03 -0.17611495418E+04  0.18396266225E+04  0.00000000000E+00 0.  1.
         22    1    1    2    0    0 -0.57908456668E+03  0.27232640577E+03  0.47254111701E+03  0.79548457804E+03  0.00000000000E+00 0.  1.
<mgrwt>
<rscale>  0 0.25627259E+04</rscale>
<asrwt>0</asrwt>
<pdfrwt beam="1">  1        1 0.37122719E+00 0.25627259E+04</pdfrwt>
<pdfrwt beam="2">  1       -1 0.10468340E+00 0.25627259E+04</pdfrwt>
<totfact> 0.11785788E+00</totfact>
</mgrwt>
</event>
<event>
 6    1  0.1831439E-005  0.2182168E+04  0.7818608E-02  0.8525887E-01
         -1   -1    0    0    0  501 -0.00000000000E+00  0.00000000000E+00  0.15981550408E+04  0.15981550408E+04  0.00000000000E+00 0.  1.
          1   -1    0    0  501    0  0.00000000000E+00 -0.00000000000E+00 -0.74489909293E+03  0.74489909293E+03  0.00000000000E+00 0. -1.
         23    2    1    2    0    0 -0.10010133900E+04  0.29849229297E+03  0.96339865335E+02  0.10530745169E+04  0.92515471630E+02 0.  0.
         13    1    3    3    0    0 -0.34456741874E+03  0.58515650622E+02  0.42353222451E+02  0.35205764142E+03  0.00000000000E+00 0. -1.
        -13    1    3    3    0    0 -0.65644597126E+03  0.23997664235E+03  0.53986642884E+02  0.70101687545E+03  0.00000000000E+00 0.  1.
         22    1    1    2    0    0  0.10010133900E+04 -0.29849229297E+03  0.75691608254E+03  0.12899796169E+04  0.00000000000E+00 0.  1.
<mgrwt>
<rscale>  0 0.21821679E+04</rscale>
<asrwt>0</asrwt>
<pdfrwt beam="1">  1        1 0.11459986E+00 0.21821679E+04</pdfrwt>
<pdfrwt beam="2">  1       -1 0.24587000E+00 0.21821679E+04</pdfrwt>
<totfact> 0.16770607E+00</totfact>
</mgrwt>
</event>
<event>
 6    1  0.1831439E-005  0.1886934E+04  0.7818608E-02  0.8661388E-01
          2   -1    0    0  501    0  0.00000000000E+00  0.00000000000E+00  0.30040248172E+04  0.30040248172E+04  0.00000000000E+00 0. -1.
         -2   -1    0    0    0  501 -0.00000000000E+00 -0.00000000000E+00 -0.29631252147E+03  0.29631252147E+03  0.00000000000E+00 0.  1.
         23    2    1    2    0    0  0.20104660551E+03  0.61345629415E+03  0.25549237095E+04  0.26369424981E+04  0.95300652970E+02 0.  0.
         13    1    3    3    0    0  0.15693767396E+03  0.34026056584E+03  0.15450853013E+04  0.15898727227E+04  0.00000000000E+00 0. -1.
        -13    1    3    3    0    0  0.44108931554E+02  0.27319572832E+03  0.10098384082E+04  0.10470697754E+04  0.00000000000E+00 0.  1.
         22    1    1    2    0    0 -0.20104660551E+03 -0.61345629415E+03  0.15278858623E+03  0.66339484058E+03  0.00000000000E+00 0.  1.
<mgrwt>
<rscale>  0 0.18869342E+04</rscale>
<asrwt>0</asrwt>
<pdfrwt beam="1">  1        2 0.46215764E+00 0.18869342E+04</pdfrwt>
<pdfrwt beam="2">  1       -2 0.45586544E-01 0.18869342E+04</pdfrwt>
<totfact> 0.74292678E+00</totfact>
</mgrwt>
</event>
<event>
 6    1  0.1831439E-005  0.6355499E+04  0.7818608E-02  0.7647822E-01
          2   -1    0    0  501    0  0.00000000000E+00  0.00000000000E+00  0.24825999908E+04  0.24825999908E+04  0.00000000000E+00 0. -1.
         -2   -1    0    0    0  501 -0.00000000000E+00 -0.00000000000E+00 -0.40675464149E+04  0.40675464149E+04  0.00000000000E+00 0.  1.
         23    2    1    2    0    0 -0.17673525702E+04  0.22774350934E+03  0.19182667672E+04  0.26197641243E+04  0.89523534260E+02 0.  0.
         11    1    3    3    0    0 -0.13881834320E+04  0.20910183944E+03  0.14785494726E+04  0.20388441243E+04  0.00000000000E+00 0. -1.
        -11    1    3    3    0    0 -0.37916913821E+03  0.18641669897E+02  0.43971729467E+03  0.58092000005E+03  0.00000000000E+00 0.  1.
         22    1    1    2    0    0  0.17673525702E+04 -0.22774350934E+03 -0.35032131913E+04  0.39303822814E+04  0.00000000000E+00 0.  1.
<mgrwt>
<rscale>  0 0.63554986E+04</rscale>
<asrwt>0</asrwt>
<pdfrwt beam="1">  1        2 0.38193846E+00 0.63554986E+04</pdfrwt>
<pdfrwt beam="2">  1       -2 0.62577637E+00 0.63554986E+04</pdfrwt>
<totfact> 0.97321657E-04</totfact>
</mgrwt>
</event>
<event>
 6    1  0.1831439E-005  0.1388927E+04  0.7818608E-02  0.8961873E-01
         -2   -1    0    0    0  501 -0.00000000000E+00  0.00000000000E+00  0.57917903219E+03  0.57917903219E+03  0.00000000000E+00 0.  1.
          2   -1    0    0  501    0  0.00000000000E+00 -0.00000000000E+00 -0.83269456257E+03  0.83269456257E+03  0.00000000000E+00 0. -1.
         23    2    1    2    0    0 -0.44329710436E+03 -0.48267778746E+03 -0.35118433621E+03  0.74928068439E+03  0.92741235465E+02 0.  0.
         11    1    3    3    0    0 -0.13335832253E+03 -0.17192475172E+03 -0.72328162830E+02  0.22929004684E+03  0.00000000000E+00 0.  1.
        -11    1    3    3    0    0 -0.30993878183E+03 -0.31075303574E+03 -0.27885617338E+03  0.51999063755E+03  0.00000000000E+00 0. -1.
         22    1    1    2    0    0  0.44329710436E+03  0.48267778746E+03  0.97668805835E+02  0.66259291037E+03  0.00000000000E+00 0. -1.
<mgrwt>
<rscale>  0 0.13889265E+04</rscale>
<asrwt>0</asrwt>
<pdfrwt beam="1">  1        2 0.12810686E+00 0.13889265E+04</pdfrwt>
<pdfrwt beam="2">  1       -2 0.89104467E-01 0.13889265E+04</pdfrwt>
<totfact> 0.34396045E+01</totfact>
</mgrwt>
</event>
<event>
 6    1  0.1831439E-005  0.1281184E+04  0.7818608E-02  0.9044621E-01
         -1   -1    0    0    0  501 -0.00000000000E+00  0.00000000000E+00  0.15919932026E+04  0.15919932026E+04  0.00000000000E+00 0.  1.
          1   -1    0    0  501    0  0.00000000000E+00 -0.00000000000E+00 -0.25776360965E+03  0.25776360965E+03  0.00000000000E+00 0. -1.
         23    2    1    2    0    0 -0.15208989982E+03  0.53973155654E+03  0.23338757417E+03  0.61432383509E+03  0.92100617962E+02 0.  0.
         11    1    3    3    0    0 -0.13829563057E+03  0.41735214944E+03  0.14585066293E+03  0.46322879223E+03  0.00000000000E+00 0.  1.
        -11    1    3    3    0    0 -0.13794269252E+02  0.12237940710E+03  0.87536911237E+02  0.15109504285E+03  0.00000000000E+00 0. -1.
         22    1    1    2    0    0  0.15208989982E+03 -0.53973155654E+03  0.11008420188E+04  0.12354329771E+04  0.00000000000E+00 0.  1.
<mgrwt>
<rscale>  0 0.12811837E+04</rscale>
<asrwt>0</asrwt>
<pdfrwt beam="1">  1        1 0.39655941E-01 0.12811837E+04</pdfrwt>
<pdfrwt beam="2">  1       -1 0.24492203E+00 0.12811837E+04</pdfrwt>
<totfact> 0.79250017E+00</totfact>
</mgrwt>
</event>
<event>
 6    1  0.1831439E-005  0.4116951E+04  0.7818608E-02  0.7981361E-01
         -2   -1    0    0    0  501 -0.00000000000E+00  0.00000000000E+00  0.11720502155E+04  0.11720502155E+04  0.00000000000E+00 0. -1.
          2   -1    0    0  501    0  0.00000000000E+00 -0.00000000000E+00 -0.36153065819E+04  0.36153065819E+04  0.00000000000E+00 0.  1.
         23    2    1    2    0    0  0.46083486947E+03 -0.13514518578E+04 -0.29449203760E+04  0.32739309884E+04  0.85306477436E+02 0.  0.
         11    1    3    3    0    0  0.31184407076E+03 -0.10227968501E+04 -0.21735060725E+04  0.24222899843E+04  0.00000000000E+00 0. -1.
        -11    1    3    3    0    0  0.14899079871E+03 -0.32865500772E+03 -0.77141430355E+03  0.85164100413E+03  0.00000000000E+00 0.  1.
         22    1    1    2    0    0 -0.46083486947E+03  0.13514518578E+04  0.50166400962E+03  0.15134258090E+04  0.00000000000E+00 0. -1.
<mgrwt>
<rscale>  0 0.41169507E+04</rscale>
<asrwt>0</asrwt>
<pdfrwt beam="1">  1        2 0.55620101E+00 0.41169507E+04</pdfrwt>
<pdfrwt beam="2">  1       -2 0.18031542E+00 0.41169507E+04</pdfrwt>
<totfact> 0.94689580E-02</totfact>
</mgrwt>
</event>
<event>
 6    1  0.1831439E-005  0.1513854E+04  0.7818608E-02  0.8875292E-01
          2   -1    0    0  501    0  0.00000000000E+00  0.00000000000E+00  0.14748728098E+04  0.14748728098E+04  0.00000000000E+00 0. -1.
         -2   -1    0    0    0  501 -0.00000000000E+00 -0.00000000000E+00 -0.38846651232E+03  0.38846651232E+03  0.00000000000E+00 0.  1.
         23    2    1    2    0    0 -0.41497496698E+03  0.55878004242E+03  0.18767527475E+03  0.72660856673E+03  0.91096879537E+02 0.  0.
         13    1    3    3    0    0 -0.56804152549E+02  0.13808806778E+03  0.34288750142E+02  0.15320164684E+03  0.00000000000E+00 0. -1.
        -13    1    3    3    0    0 -0.35817081443E+03  0.42069197465E+03  0.15338652461E+03  0.57340691989E+03  0.00000000000E+00 0.  1.
         22    1    1    2    0    0  0.41497496698E+03 -0.55878004242E+03  0.89873102272E+03  0.11367307554E+04  0.00000000000E+00 0. -1.
<mgrwt>
<rscale>  0 0.15138543E+04</rscale>
<asrwt>0</asrwt>
<pdfrwt beam="1">  1        2 0.22690351E+00 0.15138543E+04</pdfrwt>
<pdfrwt beam="2">  1       -2 0.59764079E-01 0.15138543E+04</pdfrwt>
<totfact> 0.33058650E+01</totfact>
</mgrwt>
</event>
<event>
 6    1  0.1831439E-005  0.8400129E+03  0.7818608E-02  0.9503840E-01
         -1   -1    0    0    0  501 -0.00000000000E+00  0.00000000000E+00  0.41114393064E+03  0.41114393064E+03  0.00000000000E+00 0.  1.
          1   -1    0    0  501    0  0.00000000000E+00 -0.00000000000E+00 -0.42905996203E+03  0.42905996203E+03  0.00000000000E+00 0. -1.
         23    2    1    2    0    0  0.64439393650E+02 -0.39637777033E+03 -0.11431567257E+03  0.42721398591E+03  0.90420929530E+02 0.  0.
         11    1    3    3    0    0  0.91172521568E+01 -0.23336485775E+03 -0.29783602808E+02  0.23543437327E+03  0.00000000000E+00 0. -1.
        -11    1    3    3    0    0  0.55322141493E+02 -0.16301291258E+03 -0.84532069764E+02  0.19177961264E+03  0.00000000000E+00 0.  1.
         22    1    1    2    0    0 -0.64439393650E+02  0.39637777033E+03  0.96399641178E+02  0.41298990676E+03  0.00000000000E+00 0.  1.
<mgrwt>
<rscale>  0 0.84001286E+03</rscale>
<asrwt>0</asrwt>
<pdfrwt beam="1">  1        1 0.66009225E-01 0.84001286E+03</pdfrwt>
<pdfrwt beam="2">  1       -1 0.63252912E-01 0.84001286E+03</pdfrwt>
<totfact> 0.13993591E+02</totfact>
</mgrwt>
</event>
<event>
 6    1  0.1831439E-005  0.1320427E+04  0.7818608E-02  0.9013521E-01
          2   -1    0    0  501    0  0.00000000000E+00  0.00000000000E+00  0.10732553321E+04  0.10732553321E+04  0.00000000000E+00 0.  1.
         -2   -1    0    0    0  501 -0.00000000000E+00 -0.00000000000E+00 -0.40613073355E+03  0.40613073355E+03  0.00000000000E+00 0. -1.
         23    2    1    2    0    0 -0.11779370432E+03  0.51612444275E+03  0.77123514560E+03  0.93985033638E+03  0.90858174079E+02 0.  0.
         11    1    3    3    0    0 -0.96409023342E+02  0.29840438323E+03  0.39154126760E+03  0.50164174462E+03  0.00000000000E+00 0. -1.
        -11    1    3    3    0    0 -0.21384680981E+02  0.21772005953E+03  0.37969387801E+03  0.43820859176E+03  0.00000000000E+00 0.  1.
         22    1    1    2    0    0  0.11779370432E+03 -0.51612444275E+03 -0.10411054702E+03  0.53953572930E+03  0.00000000000E+00 0. -1.
<mgrwt>
<rscale>  0 0.13204272E+04</rscale>
<asrwt>0</asrwt>
<pdfrwt beam="1">  1        2 0.16511620E+00 0.13204272E+04</pdfrwt>
<pdfrwt beam="2">  1       -2 0.62481652E-01 0.13204272E+04</pdfrwt>
<totfact> 0.52649939E+01</totfact>
</mgrwt>
</event>
<event>
 6    1  0.1831439E-005  0.3582277E+04  0.7818608E-02  0.8094563E-01
         -1   -1    0    0    0  501 -0.00000000000E+00  0.00000000000E+00  0.14020220124E+04  0.14020220124E+04  0.00000000000E+00 0.  1.
          1   -1    0    0  501    0  0.00000000000E+00 -0.00000000000E+00 -0.22882500023E+04  0.22882500023E+04  0.00000000000E+00 0. -1.
         23    2    1    2    0    0 -0.71302726847E+03  0.72419507897E+03  0.10745049970E+04  0.14818019007E+04  0.91156384324E+02 0.  0.
         13    1    3    3    0    0 -0.11155996712E+03  0.11963757213E+03  0.12741627902E+03  0.20734918155E+03  0.00000000000E+00 0. -1.
        -13    1    3    3    0    0 -0.60146730135E+03  0.60455750684E+03  0.94708871802E+03  0.12744527192E+04  0.00000000000E+00 0.  1.
         22    1    1    2    0    0  0.71302726847E+03 -0.72419507897E+03 -0.19607329870E+04  0.22084701140E+04  0.00000000000E+00 0. -1.
<mgrwt>
<rscale>  0 0.35822769E+04</rscale>
<asrwt>0</asrwt>
<pdfrwt beam="1">  1        1 0.35203846E+00 0.35822769E+04</pdfrwt>
<pdfrwt beam="2">  1       -1 0.21569569E+00 0.35822769E+04</pdfrwt>
<totfact> 0.18071749E-01</totfact>
</mgrwt>
</event>
<event>
 6    1  0.1831439E-005  0.1155066E+04  0.7818608E-02  0.9153122E-01
          2   -1    0    0  501    0  0.00000000000E+00  0.00000000000E+00  0.40888848820E+03  0.40888848820E+03  0.00000000000E+00 0.  1.
         -2   -1    0    0    0  501 -0.00000000000E+00 -0.00000000000E+00 -0.81573490495E+03  0.81573490495E+03  0.00000000000E+00 0. -1.
         23    2    1    2    0    0 -0.52296766479E+03  0.26585855335E+02 -0.45363367483E+03  0.69889434351E+03  0.92020684288E+02 0.  0.
         11    1    3    3    0    0 -0.19016345429E+03 -0.19860261161E+02 -0.12218426321E+03  0.22690430471E+03  0.00000000000E+00 0. -1.
        -11    1    3    3    0    0 -0.33280421050E+03  0.46446116496E+02 -0.33144941163E+03  0.47199003880E+03  0.00000000000E+00 0.  1.
         22    1    1    2    0    0  0.52296766479E+03 -0.26585855335E+02  0.46787258087E+02  0.52572904964E+03  0.00000000000E+00 0.  1.
<mgrwt>
<rscale>  0 0.11550664E+04</rscale>
<asrwt>0</asrwt>
<pdfrwt beam="1">  1        2 0.62905922E-01 0.11550664E+04</pdfrwt>
<pdfrwt beam="2">  1       -2 0.12549768E+00 0.11550664E+04</pdfrwt>
<totfact> 0.36418162E+01</totfact>
</mgrwt>
</event>
<event>
 6    1  0.1831439E-005  0.1066166E+04  0.7818608E-02  0.9238811E-01
          2   -1    0    0  501    0  0.00000000000E+00  0.00000000000E+00  0.22377923084E+04  0.22377923084E+04  0.00000000000E+00 0. -1.
         -2   -1    0    0    0  501 -0.00000000000E+00 -0.00000000000E+00 -0.12699013885E+03  0.12699013885E+03  0.00000000000E+00 0.  1.
         23    2    1    2    0    0 -0.48603330310E+03 -0.13819595930E+02  0.15261140423E+04  0.16043355003E+04  0.91918303681E+02 0.  0.
         13    1    3    3    0    0 -0.28259814536E+03  0.35753283178E+02  0.91840221945E+03  0.96156260623E+03  0.00000000000E+00 0.  1.
        -13    1    3    3    0    0 -0.20343515774E+03 -0.49572879109E+02  0.60771182281E+03  0.64277289406E+03  0.00000000000E+00 0. -1.
         22    1    1    2    0    0  0.48603330310E+03  0.13819595930E+02  0.58468812733E+03  0.76044694700E+03  0.00000000000E+00 0.  1.
<mgrwt>
<rscale>  0 0.10661661E+04</rscale>
<asrwt>0</asrwt>
<pdfrwt beam="1">  1        2 0.34427571E+00 0.10661661E+04</pdfrwt>
<pdfrwt beam="2">  1       -2 0.19536946E-01 0.10661661E+04</pdfrwt>
<totfact> 0.10954504E+02</totfact>
</mgrwt>
</event>
<event>
 6    1  0.1831439E-005  0.2504930E+04  0.7818608E-02  0.8401231E-01
          2   -1    0    0  501    0  0.00000000000E+00  0.00000000000E+00  0.22765007180E+04  0.22765007180E+04  0.00000000000E+00 0. -1.
         -2   -1    0    0    0  501 -0.00000000000E+00 -0.00000000000E+00 -0.68907021884E+03  0.68907021884E+03  0.00000000000E+00 0.  1.
         23    2    1    2    0    0 -0.74682682452E+03  0.14069143492E+03  0.19709802478E+04  0.21143043538E+04  0.89304968821E+02 0.  0.
         11    1    3    3    0    0 -0.51946539144E+03  0.12226107358E+03  0.12856311917E+04  0.13919912442E+04  0.00000000000E+00 0. -1.
        -11    1    3    3    0    0 -0.22736143308E+03  0.18430361339E+02  0.68534905612E+03  0.72231310953E+03  0.00000000000E+00 0.  1.
         22    1    1    2    0    0  0.74682682452E+03 -0.14069143492E+03 -0.38354974868E+03  0.85126658304E+03  0.00000000000E+00 0.  1.
<mgrwt>
<rscale>  0 0.25049302E+04</rscale>
<asrwt>0</asrwt>
<pdfrwt beam="1">  1        2 0.35023088E+00 0.25049302E+04</pdfrwt>
<pdfrwt beam="2">  1       -2 0.10601080E+00 0.25049302E+04</pdfrwt>
<totfact> 0.29934087E+00</totfact>
</mgrwt>
</event>
<event>
 6    1  0.1831439E-005  0.2274647E+04  0.7818608E-02  0.8487985E-01
         -1   -1    0    0    0  501 -0.00000000000E+00  0.00000000000E+00  0.12080916650E+04  0.12080916650E+04  0.00000000000E+00 0.  1.
          1   -1    0    0  501    0  0.00000000000E+00 -0.00000000000E+00 -0.10707005213E+04  0.10707005213E+04  0.00000000000E+00 0. -1.
         23    2    1    2    0    0  0.97518689899E+02  0.78095542246E+03  0.88891710067E+03  0.11905860795E+04  0.88996258982E+02 0.  0.
         13    1    3    3    0    0  0.36431943417E+02  0.38322940150E+03  0.49940040256E+03  0.63054961958E+03  0.00000000000E+00 0.  1.
        -13    1    3    3    0    0  0.61086746483E+02  0.39772602097E+03  0.38951669810E+03  0.56003645993E+03  0.00000000000E+00 0. -1.
         22    1    1    2    0    0 -0.97518689899E+02 -0.78095542246E+03 -0.75152595694E+03  0.10882061067E+04  0.00000000000E+00 0. -1.
<mgrwt>
<rscale>  0 0.22746467E+04</rscale>
<asrwt>0</asrwt>
<pdfrwt beam="1">  1        1 0.16472316E+00 0.22746467E+04</pdfrwt>
<pdfrwt beam="2">  1       -1 0.18586026E+00 0.22746467E+04</pdfrwt>
<totfact> 0.22845752E+00</totfact>
</mgrwt>
</event>
<event>
 6    1  0.1831439E-005  0.2133619E+04  0.7818608E-02  0.8546577E-01
          1   -1    0    0  501    0  0.00000000000E+00  0.00000000000E+00  0.34917506623E+04  0.34917506623E+04  0.00000000000E+00 0. -1.
         -1   -1    0    0    0  501 -0.00000000000E+00 -0.00000000000E+00 -0.32593469286E+03  0.32593469286E+03  0.00000000000E+00 0.  1.
         23    2    1    2    0    0 -0.88515036160E+03 -0.35244438604E+03  0.73424930976E+03  0.12061293768E+04  0.88982114474E+02 0.  0.
         11    1    3    3    0    0 -0.56785362457E+03 -0.21173707535E+03  0.51738281894E+03  0.79685338008E+03  0.00000000000E+00 0.  1.
        -11    1    3    3    0    0 -0.31729673703E+03 -0.14070731069E+03  0.21686649083E+03  0.40927599668E+03  0.00000000000E+00 0. -1.
         22    1    1    2    0    0  0.88515036160E+03  0.35244438604E+03  0.24315666597E+04  0.26115559784E+04  0.00000000000E+00 0.  1.
<mgrwt>
<rscale>  0 0.21336192E+04</rscale>
<asrwt>0</asrwt>
<pdfrwt beam="1">  1        1 0.53719238E+00 0.21336192E+04</pdfrwt>
<pdfrwt beam="2">  1       -1 0.50143801E-01 0.21336192E+04</pdfrwt>
<totfact> 0.93156103E-01</totfact>
</mgrwt>
</event>
<event>
 6    1  0.1831439E-005  0.1373053E+04  0.7818608E-02  0.8973558E-01
          2   -1    0    0  501    0  0.00000000000E+00  0.00000000000E+00  0.16076559771E+04  0.16076559771E+04  0.00000000000E+00 0. -1.
         -2   -1    0    0    0  501 -0.00000000000E+00 -0.00000000000E+00 -0.29317150533E+03  0.29317150533E+03  0.00000000000E+00 0.  1.
         23    2    1    2    0    0 -0.52636874161E+02 -0.16764322467E+02  0.16032689982E+04  0.16068067590E+04  0.91130659386E+02 0.  0.
         11    1    3    3    0    0  0.23296268719E+02 -0.50635164709E+01  0.65375104209E+03  0.65418558557E+03  0.00000000000E+00 0.  1.
        -11    1    3    3    0    0 -0.75933142880E+02 -0.11700805996E+02  0.94951795615E+03  0.95262117345E+03  0.00000000000E+00 0. -1.
         22    1    1    2    0    0  0.52636874161E+02  0.16764322467E+02 -0.28878452650E+03  0.29402072338E+03  0.00000000000E+00 0.  1.
<mgrwt>
<rscale>  0 0.13730534E+04</rscale>
<asrwt>0</asrwt>
<pdfrwt beam="1">  1        2 0.24733168E+00 0.13730534E+04</pdfrwt>
<pdfrwt beam="2">  1       -2 0.45103310E-01 0.13730534E+04</pdfrwt>
<totfact> 0.50187670E+01</totfact>
</mgrwt>
</event>
<event>
 6    1  0.1831439E-005  0.5408323E+03  0.7818608E-02  0.1003638E+00
          1   -1    0    0  501    0  0.00000000000E+00  0.00000000000E+00  0.11795084369E+03  0.11795084369E+03  0.00000000000E+00 0. -1.
         -1   -1    0    0    0  501 -0.00000000000E+00 -0.00000000000E+00 -0.61996078601E+03  0.61996078601E+03  0.00000000000E+00 0.  1.
         23    2    1    2    0    0 -0.13173674510E+03  0.18578654878E+02  0.51165642810E+02  0.16896262987E+03  0.90723265280E+02 0.  0.
         13    1    3    3    0    0 -0.10583608922E+03 -0.12455366492E+02  0.66631433925E+02  0.12568278292E+03  0.00000000000E+00 0. -1.
        -13    1    3    3    0    0 -0.25900655876E+02  0.31034021370E+02 -0.15465791115E+02  0.43279846950E+02  0.00000000000E+00 0.  1.
         22    1    1    2    0    0  0.13173674510E+03 -0.18578654878E+02 -0.55317558513E+03  0.56894899983E+03  0.00000000000E+00 0.  1.
<mgrwt>
<rscale>  0 0.54083231E+03</rscale>
<asrwt>0</asrwt>
<pdfrwt beam="1">  1        1 0.18146284E-01 0.54083231E+03</pdfrwt>
<pdfrwt beam="2">  1       -1 0.95378583E-01 0.54083231E+03</pdfrwt>
<totfact> 0.32227491E+02</totfact>
</mgrwt>
</event>
<event>
 6    1  0.1831439E-005  0.1373616E+04  0.7818608E-02  0.8973141E-01
          2   -1    0    0  501    0  0.00000000000E+00  0.00000000000E+00  0.74427816612E+03  0.74427816612E+03  0.00000000000E+00 0. -1.
         -2   -1    0    0    0  501 -0.00000000000E+00 -0.00000000000E+00 -0.63377589412E+03  0.63377589412E+03  0.00000000000E+00 0.  1.
         23    2    1    2    0    0 -0.22593456860E+03 -0.15725660328E+03  0.68375163642E+03  0.74213668953E+03  0.86455173791E+02 0.  0.
         11    1    3    3    0    0 -0.59152141027E+02 -0.41985342389E+01  0.18838302073E+03  0.19749624295E+03  0.00000000000E+00 0. -1.
        -11    1    3    3    0    0 -0.16678242758E+03 -0.15305806904E+03  0.49536861569E+03  0.54464044659E+03  0.00000000000E+00 0.  1.
         22    1    1    2    0    0  0.22593456860E+03  0.15725660328E+03 -0.57324936442E+03  0.63591737071E+03  0.00000000000E+00 0.  1.
<mgrwt>
<rscale>  0 0.13736165E+04</rscale>
<asrwt>0</asrwt>
<pdfrwt beam="1">  1        2 0.11450433E+00 0.13736165E+04</pdfrwt>
<pdfrwt beam="2">  1       -2 0.97503983E-01 0.13736165E+04</pdfrwt>
<totfact> 0.32392188E+01</totfact>
</mgrwt>
</event>
<event>
 6    1  0.1831439E-005  0.2334497E+04  0.7818608E-02  0.8464442E-01
          1   -1    0    0  501    0  0.00000000000E+00  0.00000000000E+00  0.29450759794E+04  0.29450759794E+04  0.00000000000E+00 0. -1.
         -1   -1    0    0    0  501 -0.00000000000E+00 -0.00000000000E+00 -0.46262614721E+03  0.46262614721E+03  0.00000000000E+00 0.  1.
         23    2    1    2    0    0 -0.25273194303E+03  0.77627453025E+03  0.28193934981E+02  0.82122815800E+03  0.84529333244E+02 0.  0.
         11    1    3    3    0    0 -0.18491664659E+03  0.49416265167E+03  0.51558244146E+02  0.53014068419E+03  0.00000000000E+00 0. -1.
        -11    1    3    3    0    0 -0.67815296438E+02  0.28211187858E+03 -0.23364309165E+02  0.29108747381E+03  0.00000000000E+00 0.  1.
         22    1    1    2    0    0  0.25273194303E+03 -0.77627453025E+03  0.24542558972E+04  0.25864739686E+04  0.00000000000E+00 0. -1.
<mgrwt>
<rscale>  0 0.23344971E+04</rscale>
<asrwt>0</asrwt>
<pdfrwt beam="1">  1        1 0.45308860E+00 0.23344971E+04</pdfrwt>
<pdfrwt beam="2">  1       -1 0.71173255E-01 0.23344971E+04</pdfrwt>
<totfact> 0.11779567E+00</totfact>
</mgrwt>
</event>
<event>
 6    1  0.1831439E-005  0.3060076E+04  0.7818608E-02  0.8226781E-01
          1   -1    0    0  501    0  0.00000000000E+00  0.00000000000E+00  0.20068122924E+04  0.20068122924E+04  0.00000000000E+00 0. -1.
         -1   -1    0    0    0  501 -0.00000000000E+00 -0.00000000000E+00 -0.11665347555E+04  0.11665347555E+04  0.00000000000E+00 0.  1.
         23    2    1    2    0    0 -0.11406948375E+04 -0.63043885077E+03  0.12489514647E+04  0.18074582399E+04  0.91584228997E+02 0.  0.
         11    1    3    3    0    0 -0.24098841534E+03 -0.12397065936E+03  0.31162893404E+03  0.41298514894E+03  0.00000000000E+00 0.  1.
        -11    1    3    3    0    0 -0.89970642211E+03 -0.50646819141E+03  0.93732253066E+03  0.13944730909E+04  0.00000000000E+00 0. -1.
         22    1    1    2    0    0  0.11406948375E+04  0.63043885077E+03 -0.40867392775E+03  0.13658888081E+04  0.00000000000E+00 0.  1.
<mgrwt>
<rscale>  0 0.30600760E+04</rscale>
<asrwt>0</asrwt>
<pdfrwt beam="1">  1        1 0.30874035E+00 0.30600760E+04</pdfrwt>
<pdfrwt beam="2">  1       -1 0.17946689E+00 0.30600760E+04</pdfrwt>
<totfact> 0.52414321E-01</totfact>
</mgrwt>
</event>
<event>
 6    1  0.1831439E-005  0.1978851E+04  0.7818608E-02  0.8616573E-01
          2   -1    0    0  501    0  0.00000000000E+00  0.00000000000E+00  0.89085641808E+03  0.89085641808E+03  0.00000000000E+00 0. -1.
         -2   -1    0    0    0  501 -0.00000000000E+00 -0.00000000000E+00 -0.10989003473E+04  0.10989003473E+04  0.00000000000E+00 0.  1.
         23    2    1    2    0    0 -0.35340552974E+03  0.86856344657E+03  0.20662624540E+03  0.96445228239E+03  0.90420520662E+02 0.  0.
         13    1    3    3    0    0 -0.11856566410E+03  0.19008496147E+03  0.53603031381E+02  0.23035493104E+03  0.00000000000E+00 0.  1.
        -13    1    3    3    0    0 -0.23483986564E+03  0.67847848510E+03  0.15302321402E+03  0.73409735135E+03  0.00000000000E+00 0. -1.
         22    1    1    2    0    0  0.35340552974E+03 -0.86856344657E+03 -0.41467017465E+03  0.10253044830E+04  0.00000000000E+00 0. -1.
<mgrwt>
<rscale>  0 0.19788506E+04</rscale>
<asrwt>0</asrwt>
<pdfrwt beam="1">  1        2 0.13705483E+00 0.19788506E+04</pdfrwt>
<pdfrwt beam="2">  1       -2 0.16906159E+00 0.19788506E+04</pdfrwt>
<totfact> 0.59894009E+00</totfact>
</mgrwt>
</event>
<event>
 6    1  0.1831439E-005  0.1435958E+04  0.7818608E-02  0.8928194E-01
         -2   -1    0    0    0  501 -0.00000000000E+00  0.00000000000E+00  0.20136191190E+04  0.20136191190E+04  0.00000000000E+00 0.  1.
          2   -1    0    0  501    0  0.00000000000E+00 -0.00000000000E+00 -0.25600373665E+03  0.25600373665E+03  0.00000000000E+00 0. -1.
         23    2    1    2    0    0 -0.19738088925E+03  0.54397734775E+03  0.21831148312E+03  0.62513902646E+03  0.90930349350E+02 0.  0.
         13    1    3    3    0    0 -0.12455383940E+03  0.22671090203E+03  0.11959978192E+03  0.28498350803E+03  0.00000000000E+00 0. -1.
        -13    1    3    3    0    0 -0.72827049845E+02  0.31726644571E+03  0.98711701201E+02  0.34015551843E+03  0.00000000000E+00 0.  1.
         22    1    1    2    0    0  0.19738088925E+03 -0.54397734775E+03  0.15393038992E+04  0.16444838292E+04  0.00000000000E+00 0.  1.
<mgrwt>
<rscale>  0 0.14359582E+04</rscale>
<asrwt>0</asrwt>
<pdfrwt beam="1">  1        2 0.39385192E-01 0.14359582E+04</pdfrwt>
<pdfrwt beam="2">  1       -2 0.30978755E+00 0.14359582E+04</pdfrwt>
<totfact> 0.35398874E+00</totfact>
</mgrwt>
</event>
<event>
 6    1  0.1831439E-005  0.3448592E+04  0.7818608E-02  0.8126082E-01
          1   -1    0    0  501    0  0.00000000000E+00  0.00000000000E+00  0.17128443273E+04  0.17128443273E+04  0.00000000000E+00 0. -1.
         -1   -1    0    0    0  501 -0.00000000000E+00 -0.00000000000E+00 -0.17358244851E+04  0.17358244851E+04  0.00000000000E+00 0.  1.
         23    2    1    2    0    0  0.16277988608E+04  0.56360903747E+02 -0.57366460677E+03  0.17293203762E+04  0.92478103490E+02 0.  0.
         11    1    3    3    0    0  0.33717906269E+03  0.11747372399E+02 -0.15912863167E+03  0.37302766987E+03  0.00000000000E+00 0. -1.
        -11    1    3    3    0    0  0.12906197981E+04  0.44613531347E+02 -0.41453597510E+03  0.13562927063E+04  0.00000000000E+00 0.  1.
         22    1    1    2    0    0 -0.16277988608E+04 -0.56360903747E+02  0.55068444900E+03  0.17193484362E+04  0.00000000000E+00 0. -1.
<mgrwt>
<rscale>  0 0.34485922E+04</rscale>
<asrwt>0</asrwt>
<pdfrwt beam="1">  1        1 0.26351451E+00 0.34485922E+04</pdfrwt>
<pdfrwt beam="2">  1       -1 0.26704992E+00 0.34485922E+04</pdfrwt>
<totfact> 0.20664990E-01</totfact>
</mgrwt>
</event>
<event>
 6    1  0.1831439E-005  0.7096686E+03  0.7818608E-02  0.9700839E-01
          1   -1    0    0  501    0  0.00000000000E+00  0.00000000000E+00  0.51738984808E+03  0.51738984808E+03  0.00000000000E+00 0. -1.
         -1   -1    0    0    0  501 -0.00000000000E+00 -0.00000000000E+00 -0.24335110037E+03  0.24335110037E+03  0.00000000000E+00 0.  1.
         23    2    1    2    0    0  0.29039587755E+03 -0.95350239092E+02  0.31989942622E+03  0.45167034871E+03  0.90824155437E+02 0.  0.
         13    1    3    3    0    0  0.28481956615E+02 -0.21086229942E+02  0.85026481037E+02  0.92115978111E+02  0.00000000000E+00 0. -1.
        -13    1    3    3    0    0  0.26191392094E+03 -0.74264009150E+02  0.23487294518E+03  0.35955437060E+03  0.00000000000E+00 0.  1.
         22    1    1    2    0    0 -0.29039587755E+03  0.95350239092E+02 -0.45860678508E+02  0.30907059975E+03  0.00000000000E+00 0.  1.
<mgrwt>
<rscale>  0 0.70966862E+03</rscale>
<asrwt>0</asrwt>
<pdfrwt beam="1">  1        1 0.79598438E-01 0.70966862E+03</pdfrwt>
<pdfrwt beam="2">  1       -1 0.37438631E-01 0.70966862E+03</pdfrwt>
<totfact> 0.29400930E+02</totfact>
</mgrwt>
</event>
<event>
 6    1  0.1831439E-005  0.1384439E+04  0.7818608E-02  0.8965160E-01
          1   -1    0    0  501    0  0.00000000000E+00  0.00000000000E+00  0.74959455483E+03  0.74959455483E+03  0.00000000000E+00 0. -1.
         -1   -1    0    0    0  501 -0.00000000000E+00 -0.00000000000E+00 -0.63923593192E+03  0.63923593192E+03  0.00000000000E+00 0.  1.
         23    2    1    2    0    0 -0.47004046927E+03  0.10118811199E+03 -0.44030075104E+03  0.65780188069E+03  0.87529915495E+02 0.  0.
         11    1    3    3    0    0 -0.23782551716E+03  0.39307288889E+02 -0.27726713864E+03  0.36740047053E+03  0.00000000000E+00 0. -1.
        -11    1    3    3    0    0 -0.23221495211E+03  0.61880823097E+02 -0.16303361240E+03  0.29040141016E+03  0.00000000000E+00 0.  1.
         22    1    1    2    0    0  0.47004046927E+03 -0.10118811199E+03  0.55065937395E+03  0.73102860606E+03  0.00000000000E+00 0. -1.
<mgrwt>
<rscale>  0 0.13844389E+04</rscale>
<asrwt>0</asrwt>
<pdfrwt beam="1">  1        1 0.11532224E+00 0.13844389E+04</pdfrwt>
<pdfrwt beam="2">  1       -1 0.98343989E-01 0.13844389E+04</pdfrwt>
<totfact> 0.23705605E+01</totfact>
</mgrwt>
</event>
<event>
 6    1  0.1831439E-005  0.4297053E+04  0.7818608E-02  0.7947163E-01
         -2   -1    0    0    0  501 -0.00000000000E+00  0.00000000000E+00  0.11547059041E+04  0.11547059041E+04  0.00000000000E+00 0. -1.
          2   -1    0    0  501    0  0.00000000000E+00 -0.00000000000E+00 -0.39976982819E+04  0.39976982819E+04  0.00000000000E+00 0.  1.
         23    2    1    2    0    0  0.11744351568E+04 -0.27149777042E+03 -0.35531812755E+04  0.37533411969E+04  0.97283026583E+02 0.  0.
         13    1    3    3    0    0  0.33584849360E+03 -0.33812961203E+02 -0.96462648191E+03  0.10219793425E+04  0.00000000000E+00 0. -1.
        -13    1    3    3    0    0  0.83858666320E+03 -0.23768480921E+03 -0.25885547936E+04  0.27313618544E+04  0.00000000000E+00 0.  1.
         22    1    1    2    0    0 -0.11744351568E+04  0.27149777042E+03  0.71018889772E+03  0.13990629890E+04  0.00000000000E+00 0. -1.
<mgrwt>
<rscale>  0 0.42970529E+04</rscale>
<asrwt>0</asrwt>
<pdfrwt beam="1">  1        2 0.61503050E+00 0.42970529E+04</pdfrwt>
<pdfrwt beam="2">  1       -2 0.17764706E+00 0.42970529E+04</pdfrwt>
<totfact> 0.49626744E-02</totfact>
</mgrwt>
</event>
<event>
 6    1  0.1831439E-005  0.2723077E+04  0.7818608E-02  0.8327556E-01
         -2   -1    0    0    0  501 -0.00000000000E+00  0.00000000000E+00  0.16063497011E+04  0.16063497011E+04  0.00000000000E+00 0.  1.
          2   -1    0    0  501    0  0.00000000000E+00 -0.00000000000E+00 -0.11540370651E+04  0.11540370651E+04  0.00000000000E+00 0. -1.
         23    2    1    2    0    0  0.80763779954E+03  0.34740240923E+03  0.12783239684E+04  0.15540443727E+04  0.89300026607E+02 0.  0.
         11    1    3    3    0    0  0.36306873250E+03  0.13515363512E+03  0.63354519409E+03  0.74260684252E+03  0.00000000000E+00 0. -1.
        -11    1    3    3    0    0  0.44456906704E+03  0.21224877411E+03  0.64477877435E+03  0.81143753015E+03  0.00000000000E+00 0.  1.
         22    1    1    2    0    0 -0.80763779954E+03 -0.34740240923E+03 -0.82601133246E+03  0.12063423936E+04  0.00000000000E+00 0. -1.
<mgrwt>
<rscale>  0 0.27230770E+04</rscale>
<asrwt>0</asrwt>
<pdfrwt beam="1">  1        2 0.17754416E+00 0.27230770E+04</pdfrwt>
<pdfrwt beam="2">  1       -2 0.24713072E+00 0.27230770E+04</pdfrwt>
<totfact> 0.11831503E+00</totfact>
</mgrwt>
</event>
<event>
 6    1  0.1831439E-005  0.1184819E+04  0.7818608E-02  0.9126249E-01
          1   -1    0    0  501    0  0.00000000000E+00  0.00000000000E+00  0.80016945721E+03  0.80016945721E+03  0.00000000000E+00 0. -1.
         -1   -1    0    0    0  501 -0.00000000000E+00 -0.00000000000E+00 -0.43859309445E+03  0.43859309445E+03  0.00000000000E+00 0.  1.
         23    2    1    2    0    0  0.37229776283E+03  0.36958907767E+03 -0.97566801744E+02  0.54161539643E+03  0.92877587784E+02 0.  0.
         13    1    3    3    0    0  0.22765510096E+03  0.23005137407E+03 -0.10569426831E+03  0.34047284482E+03  0.00000000000E+00 0.  1.
        -13    1    3    3    0    0  0.14464266186E+03  0.13953770360E+03  0.81274665664E+01  0.20114255161E+03  0.00000000000E+00 0. -1.
         22    1    1    2    0    0 -0.37229776283E+03 -0.36958907767E+03  0.45914316450E+03  0.69714715523E+03  0.00000000000E+00 0. -1.
<mgrwt>
<rscale>  0 0.11848186E+04</rscale>
<asrwt>0</asrwt>
<pdfrwt beam="1">  1        1 0.12310299E+00 0.11848186E+04</pdfrwt>
<pdfrwt beam="2">  1       -1 0.67475861E-01 0.11848186E+04</pdfrwt>
<totfact> 0.48722857E+01</totfact>
</mgrwt>
</event>
<event>
 6    1  0.1831439E-005  0.5042689E+04  0.7818608E-02  0.7821956E-01
         -1   -1    0    0    0  501 -0.00000000000E+00  0.00000000000E+00  0.36095108027E+04  0.36095108027E+04  0.00000000000E+00 0.  1.
          1   -1    0    0  501    0  0.00000000000E+00 -0.00000000000E+00 -0.17612298077E+04  0.17612298077E+04  0.00000000000E+00 0. -1.
         23    2    1    2    0    0 -0.21472231749E+04 -0.55302908739E+03  0.22010097289E+04  0.31255622001E+04  0.91031343193E+02 0.  0.
         11    1    3    3    0    0 -0.62125615623E+03 -0.13256746828E+03  0.67507655335E+03  0.92696369842E+03  0.00000000000E+00 0. -1.
        -11    1    3    3    0    0 -0.15259670187E+04 -0.42046161911E+03  0.15259331756E+04  0.21985985017E+04  0.00000000000E+00 0.  1.
         22    1    1    2    0    0  0.21472231749E+04  0.55302908739E+03 -0.35272873400E+03  0.22451784103E+04  0.00000000000E+00 0. -1.
<mgrwt>
<rscale>  0 0.50426890E+04</rscale>
<asrwt>0</asrwt>
<pdfrwt beam="1">  1        1 0.27095843E+00 0.50426890E+04</pdfrwt>
<pdfrwt beam="2">  1       -1 0.55530935E+00 0.50426890E+04</pdfrwt>
<totfact> 0.22163171E-03</totfact>
</mgrwt>
</event>
<event>
 6    1  0.1831439E-005  0.3961375E+04  0.7818608E-02  0.8012384E-01
         -2   -1    0    0    0  501 -0.00000000000E+00  0.00000000000E+00  0.19685844544E+04  0.19685844544E+04  0.00000000000E+00 0. -1.
          2   -1    0    0  501    0  0.00000000000E+00 -0.00000000000E+00 -0.19928653453E+04  0.19928653453E+04  0.00000000000E+00 0.  1.
         23    2    1    2    0    0  0.36179829364E+03  0.17090154763E+04  0.91914211317E+03  0.19760836199E+04  0.91936638075E+02 0.  0.
         11    1    3    3    0    0  0.22525735791E+03  0.97194335637E+03  0.47800634116E+03  0.11063023219E+04  0.00000000000E+00 0. -1.
        -11    1    3    3    0    0  0.13654093573E+03  0.73707211988E+03  0.44113577201E+03  0.86978129802E+03  0.00000000000E+00 0.  1.
         22    1    1    2    0    0 -0.36179829364E+03 -0.17090154763E+04 -0.94342300410E+03  0.19853661798E+04  0.00000000000E+00 0.  1.
<mgrwt>
<rscale>  0 0.39613754E+04</rscale>
<asrwt>0</asrwt>
<pdfrwt beam="1">  1        2 0.30659467E+00 0.39613754E+04</pdfrwt>
<pdfrwt beam="2">  1       -2 0.30285915E+00 0.39613754E+04</pdfrwt>
<totfact> 0.16288531E-01</totfact>
</mgrwt>
</event>
<event>
 6    1  0.1831439E-005  0.2243586E+04  0.7818608E-02  0.8500502E-01
          1   -1    0    0  501    0  0.00000000000E+00  0.00000000000E+00  0.20305402635E+04  0.20305402635E+04  0.00000000000E+00 0. -1.
         -1   -1    0    0    0  501 -0.00000000000E+00 -0.00000000000E+00 -0.61974634331E+03  0.61974634331E+03  0.00000000000E+00 0.  1.
         23    2    1    2    0    0  0.43601522904E+02 -0.88364839632E+03  0.15176926576E+04  0.17591284159E+04  0.91685328928E+02 0.  0.
         11    1    3    3    0    0  0.70472353755E+02 -0.73663850990E+03  0.12663964283E+04  0.14667523856E+04  0.00000000000E+00 0.  1.
        -11    1    3    3    0    0 -0.26870830851E+02 -0.14700988642E+03  0.25129622929E+03  0.29237603033E+03  0.00000000000E+00 0. -1.
         22    1    1    2    0    0 -0.43601522904E+02  0.88364839632E+03 -0.10689873744E+03  0.89115819089E+03  0.00000000000E+00 0.  1.
<mgrwt>
<rscale>  0 0.22435863E+04</rscale>
<asrwt>0</asrwt>
<pdfrwt beam="1">  1        1 0.31239081E+00 0.22435863E+04</pdfrwt>
<pdfrwt beam="2">  1       -1 0.95345592E-01 0.22435863E+04</pdfrwt>
<totfact> 0.27400838E+00</totfact>
</mgrwt>
</event>
<event>
 6    1  0.2977174E-005  0.1446543E+04  0.7818608E-02  0.8920800E-01
         -2   -1    0    0    0  501 -0.00000000000E+00  0.00000000000E+00  0.36764453046E+03  0.36764453046E+03  0.00000000000E+00 0. -1.
          2   -1    0    0  501    0  0.00000000000E+00 -0.00000000000E+00 -0.14229016697E+04  0.14229016697E+04  0.00000000000E+00 0.  1.
         23    2    1    2    0    0  0.47604305104E+03  0.36578424225E+03 -0.37458287546E+02  0.60888228819E+03  0.94442676965E+02 0.  0.
         11    1    3    3    0    0  0.21725646457E+03  0.18622488782E+03  0.26853911120E+02  0.28740426716E+03  0.00000000000E+00 0. -1.
        -11    1    3    3    0    0  0.25878658648E+03  0.17955935443E+03 -0.64312198666E+02  0.32147802103E+03  0.00000000000E+00 0.  1.
         22    1    1    2    0    0 -0.47604305104E+03 -0.36578424225E+03 -0.10177988517E+04  0.11816639119E+04  0.00000000000E+00 0.  1.
<mgrwt>
<rscale>  0 0.14465435E+04</rscale>
<asrwt>0</asrwt>
<pdfrwt beam="1">  1        2 0.21890795E+00 0.14465435E+04</pdfrwt>
<pdfrwt beam="2">  1       -2 0.56560696E-01 0.14465435E+04</pdfrwt>
<totfact> 0.39935141E+01</totfact>
</mgrwt>
</event>
<event>
 6    1  0.1831439E-005  0.1894125E+04  0.7818608E-02  0.8657786E-01
          2   -1    0    0  501    0  0.00000000000E+00  0.00000000000E+00  0.17733283696E+04  0.17733283696E+04  0.00000000000E+00 0. -1.
         -2   -1    0    0    0  501 -0.00000000000E+00 -0.00000000000E+00 -0.50578753555E+03  0.50578753555E+03  0.00000000000E+00 0.  1.
         23    2    1    2    0    0  0.63046986040E+03 -0.12010218735E+03 -0.19901915991E+03  0.67826769368E+03  0.92312826796E+02 0.  0.
         11    1    3    3    0    0  0.46355850345E+03 -0.46547670751E+02 -0.13707086436E+03  0.48563524752E+03  0.00000000000E+00 0.  1.
        -11    1    3    3    0    0  0.16691135695E+03 -0.73554516602E+02 -0.61948295554E+02  0.19263244616E+03  0.00000000000E+00 0. -1.
         22    1    1    2    0    0 -0.63046986040E+03  0.12010218735E+03  0.14665599940E+04  0.16008482115E+04  0.00000000000E+00 0. -1.
<mgrwt>
<rscale>  0 0.18941250E+04</rscale>
<asrwt>0</asrwt>
<pdfrwt beam="1">  1        2 0.27281975E+00 0.18941250E+04</pdfrwt>
<pdfrwt beam="2">  1       -2 0.77813468E-01 0.18941250E+04</pdfrwt>
<totfact> 0.12304883E+01</totfact>
</mgrwt>
</event>
<event>
 6    1  0.1831439E-005  0.2997828E+04  0.7818608E-02  0.8244351E-01
          2   -1    0    0  501    0  0.00000000000E+00  0.00000000000E+00  0.26955623604E+04  0.26955623604E+04  0.00000000000E+00 0. -1.
         -2   -1    0    0    0  501 -0.00000000000E+00 -0.00000000000E+00 -0.83349721646E+03  0.83349721646E+03  0.00000000000E+00 0.  1.
         23    2    1    2    0    0 -0.86841511434E+03  0.81256937602E+03 -0.13948118786E+03  0.12008410476E+04  0.90279666474E+02 0.  0.
         11    1    3    3    0    0 -0.43524330290E+02  0.70341466283E+02 -0.24831946736E+01  0.82755395364E+02  0.00000000000E+00 0. -1.
        -11    1    3    3    0    0 -0.82489078405E+03  0.74222790974E+03 -0.13699799318E+03  0.11180856522E+04  0.00000000000E+00 0.  1.
         22    1    1    2    0    0  0.86841511434E+03 -0.81256937602E+03  0.20015463318E+04  0.23282185293E+04  0.00000000000E+00 0. -1.
<mgrwt>
<rscale>  0 0.29978284E+04</rscale>
<asrwt>0</asrwt>
<pdfrwt beam="1">  1        2 0.41470190E+00 0.29978284E+04</pdfrwt>
<pdfrwt beam="2">  1       -2 0.12823034E+00 0.29978284E+04</pdfrwt>
<totfact> 0.10281294E+00</totfact>
</mgrwt>
</event>
<event>
 6    1  0.1831439E-005  0.3609760E+04  0.7818608E-02  0.8088260E-01
          2   -1    0    0  501    0  0.00000000000E+00  0.00000000000E+00  0.36617929847E+04  0.36617929847E+04  0.00000000000E+00 0. -1.
         -2   -1    0    0    0  501 -0.00000000000E+00 -0.00000000000E+00 -0.88961666230E+03  0.88961666230E+03  0.00000000000E+00 0.  1.
         23    2    1    2    0    0  0.11852517074E+04 -0.79831746516E+03 -0.82625745108E+00  0.14318462652E+04  0.89725467162E+02 0.  0.
         11    1    3    3    0    0  0.52023732812E+03 -0.30703465936E+03 -0.26234360460E+02  0.60465312477E+03  0.00000000000E+00 0.  1.
        -11    1    3    3    0    0  0.66501437928E+03 -0.49128280580E+03  0.25408103009E+02  0.82719314046E+03  0.00000000000E+00 0. -1.
         22    1    1    2    0    0 -0.11852517074E+04  0.79831746516E+03  0.27730025799E+04  0.31195633818E+04  0.00000000000E+00 0. -1.
<mgrwt>
<rscale>  0 0.36097601E+04</rscale>
<asrwt>0</asrwt>
<pdfrwt beam="1">  1        2 0.56335276E+00 0.36097601E+04</pdfrwt>
<pdfrwt beam="2">  1       -2 0.13686410E+00 0.36097601E+04</pdfrwt>
<totfact> 0.19275909E-01</totfact>
</mgrwt>
</event>
<event>
 6    1  0.1831439E-005  0.5113071E+04  0.7818608E-02  0.7811298E-01
          1   -1    0    0  501    0  0.00000000000E+00  0.00000000000E+00  0.33460204089E+04  0.33460204089E+04  0.00000000000E+00 0. -1.
         -1   -1    0    0    0  501 -0.00000000000E+00 -0.00000000000E+00 -0.19533278939E+04  0.19533278939E+04  0.00000000000E+00 0.  1.
         23    2    1    2    0    0 -0.59701876760E+03  0.97031543413E+03 -0.16745917168E+04  0.20273189617E+04  0.88438137162E+02 0.  0.
         11    1    3    3    0    0 -0.12468683736E+03  0.19246703619E+03 -0.40228170370E+03  0.46305608360E+03  0.00000000000E+00 0.  1.
        -11    1    3    3    0    0 -0.47233193024E+03  0.77784839794E+03 -0.12723100131E+04  0.15642628781E+04  0.00000000000E+00 0. -1.
         22    1    1    2    0    0  0.59701876760E+03 -0.97031543413E+03  0.30672842318E+04  0.32720293411E+04  0.00000000000E+00 0. -1.
<mgrwt>
<rscale>  0 0.51130715E+04</rscale>
<asrwt>0</asrwt>
<pdfrwt beam="1">  1        1 0.51477237E+00 0.51130715E+04</pdfrwt>
<pdfrwt beam="2">  1       -1 0.30051198E+00 0.51130715E+04</pdfrwt>
<totfact> 0.77174187E-03</totfact>
</mgrwt>
</event>
<event>
 6    1  0.1831439E-005  0.2487882E+04  0.7818608E-02  0.8407315E-01
          2   -1    0    0  501    0  0.00000000000E+00  0.00000000000E+00  0.14334373206E+04  0.14334373206E+04  0.00000000000E+00 0. -1.
         -2   -1    0    0    0  501 -0.00000000000E+00 -0.00000000000E+00 -0.10794959083E+04  0.10794959083E+04  0.00000000000E+00 0.  1.
         23    2    1    2    0    0  0.80940446304E+03 -0.89868384687E+02  0.11247214364E+04  0.13916331990E+04  0.91829949239E+02 0.  0.
         11    1    3    3    0    0  0.29190042092E+03  0.93757028960E+01  0.37678803418E+03  0.47672107384E+03  0.00000000000E+00 0. -1.
        -11    1    3    3    0    0  0.51750404212E+03 -0.99244087583E+02  0.74793340225E+03  0.91491212514E+03  0.00000000000E+00 0.  1.
         22    1    1    2    0    0 -0.80940446304E+03  0.89868384687E+02 -0.77078002418E+03  0.11213000299E+04  0.00000000000E+00 0.  1.
<mgrwt>
<rscale>  0 0.24878824E+04</rscale>
<asrwt>0</asrwt>
<pdfrwt beam="1">  1        2 0.22052882E+00 0.24878824E+04</pdfrwt>
<pdfrwt beam="2">  1       -2 0.16607629E+00 0.24878824E+04</pdfrwt>
<totfact> 0.28116947E+00</totfact>
</mgrwt>
</event>
<event>
 6    1  0.1831439E-005  0.2260446E+04  0.7818608E-02  0.8493682E-01
          2   -1    0    0  501    0  0.00000000000E+00  0.00000000000E+00  0.19868590267E+04  0.19868590267E+04  0.00000000000E+00 0. -1.
         -2   -1    0    0    0  501 -0.00000000000E+00 -0.00000000000E+00 -0.64292651365E+03  0.64292651365E+03  0.00000000000E+00 0.  1.
         23    2    1    2    0    0 -0.45733753172E+03 -0.44452134718E+02 -0.52576225927E+03  0.70445643813E+03  0.93270090352E+02 0.  0.
         11    1    3    3    0    0 -0.63277455222E+02 -0.37959210512E+02 -0.10010205702E+03  0.12435979986E+03  0.00000000000E+00 0. -1.
        -11    1    3    3    0    0 -0.39406007650E+03 -0.64929242063E+01 -0.42566020225E+03  0.58009663827E+03  0.00000000000E+00 0.  1.
         22    1    1    2    0    0  0.45733753172E+03  0.44452134718E+02  0.18696947723E+04  0.19253291022E+04  0.00000000000E+00 0. -1.
<mgrwt>
<rscale>  0 0.22604463E+04</rscale>
<asrwt>0</asrwt>
<pdfrwt beam="1">  1        2 0.30567062E+00 0.22604463E+04</pdfrwt>
<pdfrwt beam="2">  1       -2 0.98911772E-01 0.22604463E+04</pdfrwt>
<totfact> 0.52383093E+00</totfact>
</mgrwt>
</event>
<event>
 6    1  0.1831439E-005  0.3848184E+04  0.7818608E-02  0.8035893E-01
         -2   -1    0    0    0  501 -0.00000000000E+00  0.00000000000E+00  0.17051298767E+04  0.17051298767E+04  0.00000000000E+00 0.  1.
          2   -1    0    0  501    0  0.00000000000E+00 -0.00000000000E+00 -0.21711715731E+04  0.21711715731E+04  0.00000000000E+00 0. -1.
         23    2    1    2    0    0 -0.17187263410E+04  0.44635409174E+03 -0.97650454984E+03  0.20286476577E+04  0.92725255514E+02 0.  0.
         13    1    3    3    0    0 -0.10092553204E+04  0.22591998163E+03 -0.60175156768E+03  0.11965538388E+04  0.00000000000E+00 0.  1.
        -13    1    3    3    0    0 -0.70947102056E+03  0.22043411011E+03 -0.37475298215E+03  0.83209381895E+03  0.00000000000E+00 0. -1.
         22    1    1    2    0    0  0.17187263410E+04 -0.44635409174E+03  0.51046285344E+03  0.18476537920E+04  0.00000000000E+00 0.  1.
<mgrwt>
<rscale>  0 0.38481837E+04</rscale>
<asrwt>0</asrwt>
<pdfrwt beam="1">  1        2 0.33402640E+00 0.38481837E+04</pdfrwt>
<pdfrwt beam="2">  1       -2 0.26232767E+00 0.38481837E+04</pdfrwt>
<totfact> 0.23116056E-01</totfact>
</mgrwt>
</event>
<event>
 6    1  0.1831439E-005  0.1991947E+04  0.7818608E-02  0.8610395E-01
          2   -1    0    0  501    0  0.00000000000E+00  0.00000000000E+00  0.10451071038E+04  0.10451071038E+04  0.00000000000E+00 0. -1.
         -2   -1    0    0    0  501 -0.00000000000E+00 -0.00000000000E+00 -0.94915014664E+03  0.94915014664E+03  0.00000000000E+00 0.  1.
         23    2    1    2    0    0 -0.18412802812E+03 -0.64932890518E+03  0.77847237211E+03  0.10343830663E+04  0.91640252112E+02 0.  0.
         13    1    3    3    0    0 -0.14635796013E+03 -0.51147712058E+03  0.66663893792E+03  0.85289915636E+03  0.00000000000E+00 0. -1.
        -13    1    3    3    0    0 -0.37770067987E+02 -0.13785178460E+03  0.11183343419E+03  0.18148390991E+03  0.00000000000E+00 0.  1.
         22    1    1    2    0    0  0.18412802812E+03  0.64932890518E+03 -0.68251541493E+03  0.95987418418E+03  0.00000000000E+00 0.  1.
<mgrwt>
<rscale>  0 0.19919473E+04</rscale>
<asrwt>0</asrwt>
<pdfrwt beam="1">  1        2 0.16078571E+00 0.19919473E+04</pdfrwt>
<pdfrwt beam="2">  1       -2 0.14602310E+00 0.19919473E+04</pdfrwt>
<totfact> 0.70498746E+00</totfact>
</mgrwt>
</event>
<event>
 6    1  0.1831439E-005  0.2267721E+04  0.7818608E-02  0.8490758E-01
         -2   -1    0    0    0  501 -0.00000000000E+00  0.00000000000E+00  0.38976652186E+03  0.38976652186E+03  0.00000000000E+00 0.  1.
          2   -1    0    0  501    0  0.00000000000E+00 -0.00000000000E+00 -0.32984869608E+04  0.32984869608E+04  0.00000000000E+00 0. -1.
         23    2    1    2    0    0  0.67598386639E+02  0.10713597823E+04 -0.87405487934E+03  0.13877654335E+04  0.97671086388E+02 0.  0.
         13    1    3    3    0    0  0.18606180988E+02  0.31028166342E+02 -0.24035842716E+02  0.43435685934E+02  0.00000000000E+00 0. -1.
        -13    1    3    3    0    0  0.48992205651E+02  0.10403316160E+04 -0.85001903662E+03  0.13443297475E+04  0.00000000000E+00 0.  1.
         22    1    1    2    0    0 -0.67598386639E+02 -0.10713597823E+04 -0.20346655596E+04  0.23004880492E+04  0.00000000000E+00 0. -1.
<mgrwt>
<rscale>  0 0.22677211E+04</rscale>
<asrwt>0</asrwt>
<pdfrwt beam="1">  1        2 0.50745954E+00 0.22677211E+04</pdfrwt>
<pdfrwt beam="2">  1       -2 0.59964079E-01 0.22677211E+04</pdfrwt>
<totfact> 0.26369862E+00</totfact>
</mgrwt>
</event>
<event>
 6    1  0.1831439E-005  0.2148916E+04  0.7818608E-02  0.8539996E-01
          1   -1    0    0  501    0  0.00000000000E+00  0.00000000000E+00  0.21518654121E+04  0.21518654121E+04  0.00000000000E+00 0. -1.
         -1   -1    0    0    0  501 -0.00000000000E+00 -0.00000000000E+00 -0.53649258017E+03  0.53649258017E+03  0.00000000000E+00 0.  1.
         23    2    1    2    0    0  0.12206158664E+03 -0.67987864482E+03 -0.21721600178E+03  0.72991068993E+03  0.91939225749E+02 0.  0.
         11    1    3    3    0    0  0.10350219910E+03 -0.51517260757E+03 -0.12458451560E+03  0.54003409368E+03  0.00000000000E+00 0. -1.
        -11    1    3    3    0    0  0.18559387546E+02 -0.16470603725E+03 -0.92631486179E+02  0.18987659625E+03  0.00000000000E+00 0.  1.
         22    1    1    2    0    0 -0.12206158664E+03  0.67987864482E+03  0.18325888337E+04  0.19584473023E+04  0.00000000000E+00 0. -1.
<mgrwt>
<rscale>  0 0.21489158E+04</rscale>
<asrwt>0</asrwt>
<pdfrwt beam="1">  1        1 0.33105621E+00 0.21489158E+04</pdfrwt>
<pdfrwt beam="2">  1       -1 0.82537321E-01 0.21489158E+04</pdfrwt>
<totfact> 0.31387611E+00</totfact>
</mgrwt>
</event>
<event>
 6    1  0.1831439E-005  0.4251418E+04  0.7818608E-02  0.7955663E-01
         -1   -1    0    0    0  501 -0.00000000000E+00  0.00000000000E+00  0.14076556687E+04  0.14076556687E+04  0.00000000000E+00 0.  1.
          1   -1    0    0  501    0  0.00000000000E+00 -0.00000000000E+00 -0.32100461973E+04  0.32100461973E+04  0.00000000000E+00 0. -1.
         23    2    1    2    0    0 -0.20841750599E+03 -0.19585203848E+04 -0.17668026787E+04  0.26478017545E+04  0.10011229166E+03 0.  0.
         13    1    3    3    0    0 -0.54737357267E+02 -0.93847185538E+03 -0.81282222768E+03  0.12427411538E+04  0.00000000000E+00 0. -1.
        -13    1    3    3    0    0 -0.15368014872E+03 -0.10200485294E+04 -0.95398045103E+03  0.14050606006E+04  0.00000000000E+00 0.  1.
         22    1    1    2    0    0  0.20841750599E+03  0.19585203848E+04 -0.35587849814E+02  0.19699001116E+04  0.00000000000E+00 0.  1.
<mgrwt>
<rscale>  0 0.42514185E+04</rscale>
<asrwt>0</asrwt>
<pdfrwt beam="1">  1        1 0.49385326E+00 0.42514185E+04</pdfrwt>
<pdfrwt beam="2">  1       -1 0.21656241E+00 0.42514185E+04</pdfrwt>
<totfact> 0.37149329E-02</totfact>
</mgrwt>
</event>
<event>
 6    1  0.1831439E-005  0.1352691E+04  0.7818608E-02  0.8988793E-01
          1   -1    0    0  501    0  0.00000000000E+00  0.00000000000E+00  0.20423463922E+04  0.20423463922E+04  0.00000000000E+00 0. -1.
         -1   -1    0    0    0  501 -0.00000000000E+00 -0.00000000000E+00 -0.22397934401E+03  0.22397934401E+03  0.00000000000E+00 0.  1.
         23    2    1    2    0    0 -0.14159112796E+03 -0.58686223111E+03  0.41398651479E+03  0.73768581509E+03  0.91324703910E+02 0.  0.
         13    1    3    3    0    0 -0.52929999027E+02 -0.39814219735E+03  0.25951659682E+03  0.47819207243E+03  0.00000000000E+00 0. -1.
        -13    1    3    3    0    0 -0.88661128933E+02 -0.18872003376E+03  0.15446991796E+03  0.25949374267E+03  0.00000000000E+00 0.  1.
         22    1    1    2    0    0  0.14159112796E+03  0.58686223111E+03  0.14043805334E+04  0.15286399211E+04  0.00000000000E+00 0. -1.
<mgrwt>
<rscale>  0 0.13526913E+04</rscale>
<asrwt>0</asrwt>
<pdfrwt beam="1">  1        1 0.31420712E+00 0.13526913E+04</pdfrwt>
<pdfrwt beam="2">  1       -1 0.34458362E-01 0.13526913E+04</pdfrwt>
<totfact> 0.21808356E+01</totfact>
</mgrwt>
</event>
<event>
 6    1  0.1831439E-005  0.7918851E+03  0.7818608E-02  0.9571838E-01
          2   -1    0    0  501    0  0.00000000000E+00  0.00000000000E+00  0.16838383131E+04  0.16838383131E+04  0.00000000000E+00 0. -1.
         -2   -1    0    0    0  501 -0.00000000000E+00 -0.00000000000E+00 -0.93103050405E+02  0.93103050405E+02  0.00000000000E+00 0.  1.
         23    2    1    2    0    0 -0.24216758740E+03  0.29612742270E+03  0.98394759079E+03  0.10596353830E+04  0.91310966795E+02 0.  0.
         11    1    3    3    0    0 -0.20917683318E+03  0.28330997965E+03  0.82905641429E+03  0.90075192489E+03  0.00000000000E+00 0. -1.
        -11    1    3    3    0    0 -0.32990754217E+02  0.12817443051E+02  0.15489117650E+03  0.15888345813E+03  0.00000000000E+00 0.  1.
         22    1    1    2    0    0  0.24216758740E+03 -0.29612742270E+03  0.60678767188E+03  0.71730598046E+03  0.00000000000E+00 0.  1.
<mgrwt>
<rscale>  0 0.79188505E+03</rscale>
<asrwt>0</asrwt>
<pdfrwt beam="1">  1        2 0.25905203E+00 0.79188505E+03</pdfrwt>
<pdfrwt beam="2">  1       -2 0.14323547E-01 0.79188505E+03</pdfrwt>
<totfact> 0.38433177E+02</totfact>
</mgrwt>
</event>
<event>
 6    1  0.1831439E-005  0.1847780E+04  0.7818608E-02  0.8681295E-01
          2   -1    0    0  501    0  0.00000000000E+00  0.00000000000E+00  0.22720187373E+04  0.22720187373E+04  0.00000000000E+00 0. -1.
         -2   -1    0    0    0  501 -0.00000000000E+00 -0.00000000000E+00 -0.37568917141E+03  0.37568917141E+03  0.00000000000E+00 0.  1.
         23    2    1    2    0    0  0.60348708469E+03  0.26434607552E+03  0.27081223168E+02  0.66574805145E+03  0.91714591725E+02 0.  0.
         11    1    3    3    0    0  0.32166951408E+03  0.11372272399E+03  0.52492368724E+02  0.34519499274E+03  0.00000000000E+00 0.  1.
        -11    1    3    3    0    0  0.28181757061E+03  0.15062335153E+03 -0.25411145556E+02  0.32055305871E+03  0.00000000000E+00 0. -1.
         22    1    1    2    0    0 -0.60348708469E+03 -0.26434607552E+03  0.18692483427E+04  0.19819598572E+04  0.00000000000E+00 0. -1.
<mgrwt>
<rscale>  0 0.18477801E+04</rscale>
<asrwt>0</asrwt>
<pdfrwt beam="1">  1        2 0.34954134E+00 0.18477801E+04</pdfrwt>
<pdfrwt beam="2">  1       -2 0.57798335E-01 0.18477801E+04</pdfrwt>
<totfact> 0.12397660E+01</totfact>
</mgrwt>
</event>
<event>
 6    1  0.1831439E-005  0.1856211E+04  0.7818608E-02  0.8676965E-01
         -1   -1    0    0    0  501 -0.00000000000E+00  0.00000000000E+00  0.39956686970E+03  0.39956686970E+03  0.00000000000E+00 0.  1.
          1   -1    0    0  501    0  0.00000000000E+00 -0.00000000000E+00 -0.21557833051E+04  0.21557833051E+04  0.00000000000E+00 0. -1.
         23    2    1    2    0    0  0.72318289960E+03  0.48891903712E+03 -0.45515025430E+03  0.98856731213E+03  0.89823412835E+02 0.  0.
         13    1    3    3    0    0  0.57064894736E+03  0.38909478956E+03 -0.31760165387E+03  0.76020114899E+03  0.00000000000E+00 0. -1.
        -13    1    3    3    0    0  0.15253395224E+03  0.99824247557E+02 -0.13754860044E+03  0.22836616314E+03  0.00000000000E+00 0.  1.
         22    1    1    2    0    0 -0.72318289960E+03 -0.48891903712E+03 -0.13010661811E+04  0.15667828626E+04  0.00000000000E+00 0.  1.
<mgrwt>
<rscale>  0 0.18562107E+04</rscale>
<asrwt>0</asrwt>
<pdfrwt beam="1">  1        1 0.33165897E+00 0.18562107E+04</pdfrwt>
<pdfrwt beam="2">  1       -1 0.61471826E-01 0.18562107E+04</pdfrwt>
<totfact> 0.58871360E+00</totfact>
</mgrwt>
</event>
<event>
 6    1  0.1831439E-005  0.1637586E+04  0.7818608E-02  0.8797785E-01
         -1   -1    0    0    0  501 -0.00000000000E+00  0.00000000000E+00  0.38008925043E+03  0.38008925043E+03  0.00000000000E+00 0.  1.
          1   -1    0    0  501    0  0.00000000000E+00 -0.00000000000E+00 -0.17638533765E+04  0.17638533765E+04  0.00000000000E+00 0. -1.
         23    2    1    2    0    0  0.30835778459E+03  0.17988884107E+03 -0.16551499727E+04  0.16955066826E+04  0.88187073998E+02 0.  0.
         11    1    3    3    0    0  0.20454849087E+02  0.18760314723E+02 -0.27825521607E+03  0.27963604118E+03  0.00000000000E+00 0.  1.
        -11    1    3    3    0    0  0.28790293550E+03  0.16112852634E+03 -0.13768947567E+04  0.14158706414E+04  0.00000000000E+00 0. -1.
         22    1    1    2    0    0 -0.30835778459E+03 -0.17988884107E+03  0.27138584663E+03  0.44843594438E+03  0.00000000000E+00 0.  1.
<mgrwt>
<rscale>  0 0.16375857E+04</rscale>
<asrwt>0</asrwt>
<pdfrwt beam="1">  1        1 0.27136206E+00 0.16375857E+04</pdfrwt>
<pdfrwt beam="2">  1       -1 0.58475269E-01 0.16375857E+04</pdfrwt>
<totfact> 0.12222798E+01</totfact>
</mgrwt>
</event>
<event>
 6    1  0.1831439E-005  0.1074309E+04  0.7818608E-02  0.9230600E-01
         -2   -1    0    0    0  501 -0.00000000000E+00  0.00000000000E+00  0.15654229477E+03  0.15654229477E+03  0.00000000000E+00 0. -1.
          2   -1    0    0  501    0  0.00000000000E+00 -0.00000000000E+00 -0.18431755724E+04  0.18431755724E+04  0.00000000000E+00 0.  1.
         23    2    1    2    0    0  0.44043961148E+03 -0.37279233990E+02 -0.29550265280E+03  0.54005310839E+03  0.94650670506E+02 0.  0.
         11    1    3    3    0    0  0.26496933578E+03 -0.33156671741E+02 -0.23091014881E+03  0.35302635966E+03  0.00000000000E+00 0.  1.
        -11    1    3    3    0    0  0.17547027570E+03 -0.41225622492E+01 -0.64592503984E+02  0.18702674874E+03  0.00000000000E+00 0. -1.
         22    1    1    2    0    0 -0.44043961148E+03  0.37279233990E+02 -0.13911306249E+04  0.14596647588E+04  0.00000000000E+00 0.  1.
<mgrwt>
<rscale>  0 0.10743090E+04</rscale>
<asrwt>0</asrwt>
<pdfrwt beam="1">  1        2 0.28356548E+00 0.10743090E+04</pdfrwt>
<pdfrwt beam="2">  1       -2 0.24083429E-01 0.10743090E+04</pdfrwt>
<totfact> 0.12476008E+02</totfact>
</mgrwt>
</event>
<event>
 6    1  0.1831439E-005  0.3590867E+04  0.7818608E-02  0.8092587E-01
          1   -1    0    0  501    0  0.00000000000E+00  0.00000000000E+00  0.25015371508E+04  0.25015371508E+04  0.00000000000E+00 0. -1.
         -1   -1    0    0    0  501 -0.00000000000E+00 -0.00000000000E+00 -0.12886400951E+04  0.12886400951E+04  0.00000000000E+00 0.  1.
         23    2    1    2    0    0  0.47924498581E+03  0.10801143657E+04 -0.81815432683E+03  0.14403916135E+04  0.95019462603E+02 0.  0.
         11    1    3    3    0    0  0.24844985029E+03  0.67298993375E+03 -0.48612526292E+03  0.86657980030E+03  0.00000000000E+00 0.  1.
        -11    1    3    3    0    0  0.23079513552E+03  0.40712443194E+03 -0.33202906391E+03  0.57381181318E+03  0.00000000000E+00 0. -1.
         22    1    1    2    0    0 -0.47924498581E+03 -0.10801143657E+04  0.20310513825E+04  0.23497856323E+04  0.00000000000E+00 0. -1.
<mgrwt>
<rscale>  0 0.35908668E+04</rscale>
<asrwt>0</asrwt>
<pdfrwt beam="1">  1        1 0.38485187E+00 0.35908668E+04</pdfrwt>
<pdfrwt beam="2">  1       -1 0.19825232E+00 0.35908668E+04</pdfrwt>
<totfact> 0.16930842E-01</totfact>
</mgrwt>
</event>
<event>
 6    1  0.1831439E-005  0.2724316E+04  0.7818608E-02  0.8327158E-01
         -1   -1    0    0    0  501 -0.00000000000E+00  0.00000000000E+00  0.60521741085E+03  0.60521741085E+03  0.00000000000E+00 0.  1.
          1   -1    0    0  501    0  0.00000000000E+00 -0.00000000000E+00 -0.30657991468E+04  0.30657991468E+04  0.00000000000E+00 0. -1.
         23    2    1    2    0    0  0.43436329866E+03 -0.86090038293E+03 -0.25251986416E+04  0.27045817233E+04  0.91176608816E+02 0.  0.
         13    1    3    3    0    0  0.35335575157E+03 -0.70500186528E+03 -0.19596388851E+04  0.21123618244E+04  0.00000000000E+00 0.  1.
        -13    1    3    3    0    0  0.81007547086E+02 -0.15589851766E+03 -0.56555975646E+03  0.59221989887E+03  0.00000000000E+00 0. -1.
         22    1    1    2    0    0 -0.43436329866E+03  0.86090038293E+03  0.64616905637E+02  0.96643483435E+03  0.00000000000E+00 0.  1.
<mgrwt>
<rscale>  0 0.27243164E+04</rscale>
<asrwt>0</asrwt>
<pdfrwt beam="1">  1        1 0.47166142E+00 0.27243164E+04</pdfrwt>
<pdfrwt beam="2">  1       -1 0.93110369E-01 0.27243164E+04</pdfrwt>
<totfact> 0.52178379E-01</totfact>
</mgrwt>
</event>
<event>
 6    1  0.1831439E-005  0.6943910E+03  0.7818608E-02  0.9726873E-01
         -2   -1    0    0    0  501 -0.00000000000E+00  0.00000000000E+00  0.19016447072E+03  0.19016447072E+03  0.00000000000E+00 0.  1.
          2   -1    0    0  501    0  0.00000000000E+00 -0.00000000000E+00 -0.63389705935E+03  0.63389705935E+03  0.00000000000E+00 0. -1.
         23    2    1    2    0    0  0.17367642137E+03 -0.15718553549E+03 -0.52002512931E+03  0.57770539828E+03  0.91905387139E+02 0.  0.
         13    1    3    3    0    0  0.12374583567E+03 -0.13700935568E+03 -0.46682443598E+03  0.50200562688E+03  0.00000000000E+00 0.  1.
        -13    1    3    3    0    0  0.49930585700E+02 -0.20176179806E+02 -0.53200693331E+02  0.75699771405E+02  0.00000000000E+00 0. -1.
         22    1    1    2    0    0 -0.17367642137E+03  0.15718553549E+03  0.76292540682E+02  0.24635613179E+03  0.00000000000E+00 0.  1.
<mgrwt>
<rscale>  0 0.69439095E+03</rscale>
<asrwt>0</asrwt>
<pdfrwt beam="1">  1        2 0.97522625E-01 0.69439095E+03</pdfrwt>
<pdfrwt beam="2">  1       -2 0.29256072E-01 0.69439095E+03</pdfrwt>
<totfact> 0.50128535E+02</totfact>
</mgrwt>
</event>
<event>
 6    1  0.1831439E-005  0.2258408E+04  0.7818608E-02  0.8494503E-01
          2   -1    0    0  501    0  0.00000000000E+00  0.00000000000E+00  0.32744769200E+04  0.32744769200E+04  0.00000000000E+00 0. -1.
         -2   -1    0    0    0  501 -0.00000000000E+00 -0.00000000000E+00 -0.38940617491E+03  0.38940617491E+03  0.00000000000E+00 0.  1.
         23    2    1    2    0    0 -0.82500760013E+02  0.11212984273E+04  0.15769469688E+04  0.19389760387E+04  0.93540352916E+02 0.  0.
         11    1    3    3    0    0 -0.87431297032E+02  0.10629231827E+04  0.15232976001E+04  0.18595390565E+04  0.00000000000E+00 0. -1.
        -11    1    3    3    0    0  0.49305370194E+01  0.58375244647E+02  0.53649368657E+02  0.79436982195E+02  0.00000000000E+00 0.  1.
         22    1    1    2    0    0  0.82500760013E+02 -0.11212984273E+04  0.13081237763E+04  0.17249070563E+04  0.00000000000E+00 0. -1.
<mgrwt>
<rscale>  0 0.22584079E+04</rscale>
<asrwt>0</asrwt>
<pdfrwt beam="1">  1        2 0.50376566E+00 0.22584079E+04</pdfrwt>
<pdfrwt beam="2">  1       -2 0.59908644E-01 0.22584079E+04</pdfrwt>
<totfact> 0.27431602E+00</totfact>
</mgrwt>
</event>
<event>
 6    1  0.1831439E-005  0.1736938E+04  0.7818608E-02  0.8740573E-01
          2   -1    0    0  501    0  0.00000000000E+00  0.00000000000E+00  0.55182187301E+03  0.55182187301E+03  0.00000000000E+00 0.  1.
         -2   -1    0    0    0  501 -0.00000000000E+00 -0.00000000000E+00 -0.13668155452E+04  0.13668155452E+04  0.00000000000E+00 0. -1.
         23    2    1    2    0    0  0.18524147515E+03  0.41920979581E+03 -0.12194556168E+04  0.13073758362E+04  0.11003780559E+03 0.  0.
         11    1    3    3    0    0 -0.40962932191E+01  0.91832806964E+02 -0.27784689365E+03  0.29265840218E+03  0.00000000000E+00 0. -1.
        -11    1    3    3    0    0  0.18933776837E+03  0.32737698884E+03 -0.94160872318E+03  0.10147174340E+04  0.00000000000E+00 0.  1.
         22    1    1    2    0    0 -0.18524147515E+03 -0.41920979581E+03  0.40446194461E+03  0.61126158202E+03  0.00000000000E+00 0.  1.
<mgrwt>
<rscale>  0 0.17369384E+04</rscale>
<asrwt>0</asrwt>
<pdfrwt beam="1">  1        2 0.84895673E-01 0.17369384E+04</pdfrwt>
<pdfrwt beam="2">  1       -2 0.21027931E+00 0.17369384E+04</pdfrwt>
<totfact> 0.59282436E+00</totfact>
</mgrwt>
</event>
<event>
 6    1  0.1831439E-005  0.4794712E+04  0.7818608E-02  0.7860979E-01
         -2   -1    0    0    0  501 -0.00000000000E+00  0.00000000000E+00  0.20020836505E+04  0.20020836505E+04  0.00000000000E+00 0. -1.
          2   -1    0    0  501    0  0.00000000000E+00 -0.00000000000E+00 -0.28706674809E+04  0.28706674809E+04  0.00000000000E+00 0.  1.
         23    2    1    2    0    0 -0.12051080470E+04  0.14578276641E+04  0.10611794453E+04  0.21706161971E+04  0.89027842240E+02 0.  0.
         13    1    3    3    0    0 -0.20665564134E+03  0.30391187741E+03  0.21475033625E+03  0.42566029912E+03  0.00000000000E+00 0.  1.
        -13    1    3    3    0    0 -0.99845240562E+03  0.11539157867E+04  0.84642910905E+03  0.17449558979E+04  0.00000000000E+00 0. -1.
         22    1    1    2    0    0  0.12051080470E+04 -0.14578276641E+04 -0.19297632756E+04  0.27021349343E+04  0.00000000000E+00 0.  1.
<mgrwt>
<rscale>  0 0.47947123E+04</rscale>
<asrwt>0</asrwt>
<pdfrwt beam="1">  1        2 0.44164115E+00 0.47947123E+04</pdfrwt>
<pdfrwt beam="2">  1       -2 0.30801287E+00 0.47947123E+04</pdfrwt>
<totfact> 0.43969974E-02</totfact>
</mgrwt>
</event>
<event>
 6    1  0.1831439E-005  0.2480771E+04  0.7818608E-02  0.8409868E-01
         -1   -1    0    0    0  501 -0.00000000000E+00  0.00000000000E+00  0.21393795933E+04  0.21393795933E+04  0.00000000000E+00 0.  1.
          1   -1    0    0  501    0  0.00000000000E+00 -0.00000000000E+00 -0.71915985335E+03  0.71915985335E+03  0.00000000000E+00 0. -1.
         23    2    1    2    0    0  0.12121296337E+04 -0.25439344591E+03  0.68601259233E+03  0.14187358455E+04  0.90685435115E+02 0.  0.
         11    1    3    3    0    0  0.19101527343E+03 -0.72507444319E+02  0.10050520103E+03  0.22769598064E+03  0.00000000000E+00 0.  1.
        -11    1    3    3    0    0  0.10211143603E+04 -0.18188600159E+03  0.58550739131E+03  0.11910398649E+04  0.00000000000E+00 0. -1.
         22    1    1    2    0    0 -0.12121296337E+04  0.25439344591E+03  0.73420714765E+03  0.14398036012E+04  0.00000000000E+00 0.  1.
<mgrwt>
<rscale>  0 0.24807708E+04</rscale>
<asrwt>0</asrwt>
<pdfrwt beam="1">  1        1 0.11063998E+00 0.24807708E+04</pdfrwt>
<pdfrwt beam="2">  1       -1 0.32913532E+00 0.24807708E+04</pdfrwt>
<totfact> 0.49626200E-01</totfact>
</mgrwt>
</event>
<event>
 6    1  0.1831439E-005  0.2505623E+04  0.7818608E-02  0.8400985E-01
          1   -1    0    0  501    0  0.00000000000E+00  0.00000000000E+00  0.12503907124E+04  0.12503907124E+04  0.00000000000E+00 0. -1.
         -1   -1    0    0    0  501 -0.00000000000E+00 -0.00000000000E+00 -0.12552374296E+04  0.12552374296E+04  0.00000000000E+00 0.  1.
         23    2    1    2    0    0  0.14036400622E+03  0.26952527377E+03  0.12112413672E+04  0.12521465281E+04  0.91757020571E+02 0.  0.
         13    1    3    3    0    0 -0.21360667788E+01  0.72729578830E+02  0.33730632589E+03  0.34506479378E+03  0.00000000000E+00 0.  1.
        -13    1    3    3    0    0  0.14250007300E+03  0.19679569494E+03  0.87393504129E+03  0.90708173433E+03  0.00000000000E+00 0. -1.
         22    1    1    2    0    0 -0.14036400622E+03 -0.26952527377E+03 -0.12160880844E+04  0.12534816139E+04  0.00000000000E+00 0.  1.
<mgrwt>
<rscale>  0 0.25056235E+04</rscale>
<asrwt>0</asrwt>
<pdfrwt beam="1">  1        1 0.19236780E+00 0.25056235E+04</pdfrwt>
<pdfrwt beam="2">  1       -1 0.19311345E+00 0.25056235E+04</pdfrwt>
<totfact> 0.14654033E+00</totfact>
</mgrwt>
</event>
<event>
 6    1  0.1831439E-005  0.1680660E+04  0.7818608E-02  0.8772472E-01
         -1   -1    0    0    0  501 -0.00000000000E+00  0.00000000000E+00  0.81767784099E+03  0.81767784099E+03  0.00000000000E+00 0. -1.
          1   -1    0    0  501    0  0.00000000000E+00 -0.00000000000E+00 -0.86360937622E+03  0.86360937622E+03  0.00000000000E+00 0.  1.
         23    2    1    2    0    0 -0.21526471093E+03 -0.80947315654E+03 -0.43940026881E+00  0.84244562235E+03  0.90159562012E+02 0.  0.
         13    1    3    3    0    0 -0.11807837459E+03 -0.42038627371E+03 -0.44857078034E+02  0.43895247934E+03  0.00000000000E+00 0. -1.
        -13    1    3    3    0    0 -0.97186336339E+02 -0.38908688283E+03  0.44417677765E+02  0.40349314301E+03  0.00000000000E+00 0.  1.
         22    1    1    2    0    0  0.21526471093E+03  0.80947315654E+03 -0.45492134960E+02  0.83884159486E+03  0.00000000000E+00 0.  1.
<mgrwt>
<rscale>  0 0.16806597E+04</rscale>
<asrwt>0</asrwt>
<pdfrwt beam="1">  1        1 0.13286298E+00 0.16806597E+04</pdfrwt>
<pdfrwt beam="2">  1       -1 0.12579659E+00 0.16806597E+04</pdfrwt>
<totfact> 0.10243490E+01</totfact>
</mgrwt>
</event>
<event>
 6    1  0.1831439E-005  0.1042689E+04  0.7818608E-02  0.9262925E-01
         -2   -1    0    0    0  501 -0.00000000000E+00  0.00000000000E+00  0.29302114310E+03  0.29302114310E+03  0.00000000000E+00 0.  1.
          2   -1    0    0  501    0  0.00000000000E+00 -0.00000000000E+00 -0.92757831059E+03  0.92757831059E+03  0.00000000000E+00 0. -1.
         23    2    1    2    0    0 -0.46804836192E+03  0.11505945611E+03 -0.10015041665E+03  0.50094778596E+03  0.92793484498E+02 0.  0.
         11    1    3    3    0    0 -0.29273565384E+03  0.47232992297E+02 -0.21881235629E+02  0.29732794531E+03  0.00000000000E+00 0. -1.
        -11    1    3    3    0    0 -0.17531270808E+03  0.67826463816E+02 -0.78269181018E+02  0.20361984065E+03  0.00000000000E+00 0.  1.
         22    1    1    2    0    0  0.46804836192E+03 -0.11505945611E+03 -0.53440675084E+03  0.71965166774E+03  0.00000000000E+00 0. -1.
<mgrwt>
<rscale>  0 0.10426889E+04</rscale>
<asrwt>0</asrwt>
<pdfrwt beam="1">  1        2 0.14270435E+00 0.10426889E+04</pdfrwt>
<pdfrwt beam="2">  1       -2 0.45080177E-01 0.10426889E+04</pdfrwt>
<totfact> 0.13054360E+02</totfact>
</mgrwt>
</event>
<event>
 6    1  0.1831439E-005  0.1730300E+04  0.7818608E-02  0.8744269E-01
          1   -1    0    0  501    0  0.00000000000E+00  0.00000000000E+00  0.25165482834E+04  0.25165482834E+04  0.00000000000E+00 0. -1.
         -1   -1    0    0    0  501 -0.00000000000E+00 -0.00000000000E+00 -0.29742506236E+03  0.29742506236E+03  0.00000000000E+00 0.  1.
         23    2    1    2    0    0  0.57817459424E+03  0.21710892752E+03  0.20915979922E+04  0.21833507710E+04  0.10400134868E+03 0.  0.
         13    1    3    3    0    0  0.38871271768E+03  0.16909570596E+03  0.15739312334E+04  0.16300154791E+04  0.00000000000E+00 0. -1.
        -13    1    3    3    0    0  0.18946187656E+03  0.48013221561E+02  0.51766675878E+03  0.55333529190E+03  0.00000000000E+00 0.  1.
         22    1    1    2    0    0 -0.57817459424E+03 -0.21710892752E+03  0.12752522891E+03  0.63062257479E+03  0.00000000000E+00 0.  1.
<mgrwt>
<rscale>  0 0.17303000E+04</rscale>
<asrwt>0</asrwt>
<pdfrwt beam="1">  1        1 0.38716126E+00 0.17303000E+04</pdfrwt>
<pdfrwt beam="2">  1       -1 0.45757703E-01 0.17303000E+04</pdfrwt>
<totfact> 0.59529217E+00</totfact>
</mgrwt>
</event>
<event>
 6    1  0.1831439E-005  0.2759265E+04  0.7818608E-02  0.8316028E-01
          2   -1    0    0  501    0  0.00000000000E+00  0.00000000000E+00  0.15884292177E+04  0.15884292177E+04  0.00000000000E+00 0. -1.
         -2   -1    0    0    0  501 -0.00000000000E+00 -0.00000000000E+00 -0.11982815258E+04  0.11982815258E+04  0.00000000000E+00 0.  1.
         23    2    1    2    0    0  0.51832770497E+02  0.13742804873E+04  0.10642691647E+03  0.13824917533E+04  0.92861538580E+02 0.  0.
         11    1    3    3    0    0  0.50898557719E+02  0.46554293667E+03  0.74159211513E+01  0.46837579458E+03  0.00000000000E+00 0.  1.
        -11    1    3    3    0    0  0.93421277751E+00  0.90873755068E+03  0.99010995315E+02  0.91411595870E+03  0.00000000000E+00 0. -1.
         22    1    1    2    0    0 -0.51832770497E+02 -0.13742804873E+04  0.28372077541E+03  0.14042189902E+04  0.00000000000E+00 0. -1.
<mgrwt>
<rscale>  0 0.27592647E+04</rscale>
<asrwt>0</asrwt>
<pdfrwt beam="1">  1        2 0.24437373E+00 0.27592647E+04</pdfrwt>
<pdfrwt beam="2">  1       -2 0.18435100E+00 0.27592647E+04</pdfrwt>
<totfact> 0.16730628E+00</totfact>
</mgrwt>
</event>
<event>
 6    1  0.1831439E-005  0.8329738E+03  0.7818608E-02  0.9513478E-01
          1   -1    0    0  501    0  0.00000000000E+00  0.00000000000E+00  0.17087076659E+03  0.17087076659E+03  0.00000000000E+00 0. -1.
         -1   -1    0    0    0  501 -0.00000000000E+00 -0.00000000000E+00 -0.10151609378E+04  0.10151609378E+04  0.00000000000E+00 0.  1.
         23    2    1    2    0    0 -0.27699484609E+03 -0.21581277387E+03 -0.73316140291E+03  0.81772354364E+03  0.88571174666E+02 0.  0.
         13    1    3    3    0    0 -0.38714077037E+02 -0.63031621812E+02 -0.10201244448E+03  0.12600914228E+03  0.00000000000E+00 0. -1.
        -13    1    3    3    0    0 -0.23828076905E+03 -0.15278115206E+03 -0.63114895843E+03  0.69171440136E+03  0.00000000000E+00 0.  1.
         22    1    1    2    0    0  0.27699484609E+03  0.21581277387E+03 -0.11112876828E+03  0.36830816074E+03  0.00000000000E+00 0. -1.
<mgrwt>
<rscale>  0 0.83297378E+03</rscale>
<asrwt>0</asrwt>
<pdfrwt beam="1">  1        1 0.26287810E-01 0.83297378E+03</pdfrwt>
<pdfrwt beam="2">  1       -1 0.15617861E+00 0.83297378E+03</pdfrwt>
<totfact> 0.57882634E+01</totfact>
</mgrwt>
</event>
<event>
 6    1  0.1831439E-005  0.2718918E+04  0.7818608E-02  0.8328893E-01
         -2   -1    0    0    0  501 -0.00000000000E+00  0.00000000000E+00  0.66410242804E+03  0.66410242804E+03  0.00000000000E+00 0.  1.
          2   -1    0    0  501    0  0.00000000000E+00 -0.00000000000E+00 -0.27828971000E+04  0.27828971000E+04  0.00000000000E+00 0. -1.
         23    2    1    2    0    0  0.97049283525E+03 -0.90035465242E+03 -0.14441767365E+04  0.19611986658E+04  0.90326724189E+02 0.  0.
         13    1    3    3    0    0  0.18865084005E+03 -0.17402429648E+03 -0.33488259372E+03  0.42192410075E+03  0.00000000000E+00 0. -1.
        -13    1    3    3    0    0  0.78184199519E+03 -0.72633035594E+03 -0.11092941427E+04  0.15392745650E+04  0.00000000000E+00 0.  1.
         22    1    1    2    0    0 -0.97049283525E+03  0.90035465242E+03 -0.67461793549E+03  0.14858008623E+04  0.00000000000E+00 0.  1.
<mgrwt>
<rscale>  0 0.27189180E+04</rscale>
<asrwt>0</asrwt>
<pdfrwt beam="1">  1        2 0.42813801E+00 0.27189180E+04</pdfrwt>
<pdfrwt beam="2">  1       -2 0.10216961E+00 0.27189180E+04</pdfrwt>
<totfact> 0.16274748E+00</totfact>
</mgrwt>
</event>
<event>
 6    1  0.1831439E-005  0.3541572E+04  0.7818608E-02  0.8104008E-01
         -1   -1    0    0    0  501 -0.00000000000E+00  0.00000000000E+00  0.10613822953E+04  0.10613822953E+04  0.00000000000E+00 0.  1.
          1   -1    0    0  501    0  0.00000000000E+00 -0.00000000000E+00 -0.29543382973E+04  0.29543382973E+04  0.00000000000E+00 0. -1.
         23    2    1    2    0    0  0.50511467191E+03 -0.16457929013E+04 -0.48281657199E+03  0.17903513384E+04  0.92037855307E+02 0.  0.
         11    1    3    3    0    0  0.38498013742E+03 -0.11084046711E+04 -0.32591912938E+03  0.12177823697E+04  0.00000000000E+00 0.  1.
        -11    1    3    3    0    0  0.12013453449E+03 -0.53738823023E+03 -0.15689744262E+03  0.57256896866E+03  0.00000000000E+00 0. -1.
         22    1    1    2    0    0 -0.50511467191E+03  0.16457929013E+04 -0.14101394300E+04  0.22253692543E+04  0.00000000000E+00 0. -1.
<mgrwt>
<rscale>  0 0.35415716E+04</rscale>
<asrwt>0</asrwt>
<pdfrwt beam="1">  1        1 0.45451358E+00 0.35415716E+04</pdfrwt>
<pdfrwt beam="2">  1       -1 0.16328958E+00 0.35415716E+04</pdfrwt>
<totfact> 0.14470686E-01</totfact>
</mgrwt>
</event>
<event>
 6    1  0.1831439E-005  0.2432155E+04  0.7818608E-02  0.8427562E-01
          2   -1    0    0  501    0  0.00000000000E+00  0.00000000000E+00  0.38158250057E+04  0.38158250057E+04  0.00000000000E+00 0. -1.
         -2   -1    0    0    0  501 -0.00000000000E+00 -0.00000000000E+00 -0.38755563967E+03  0.38755563967E+03  0.00000000000E+00 0.  1.
         23    2    1    2    0    0  0.24240056372E+03  0.10844794958E+04  0.87136253191E+03  0.14154376100E+04  0.96628957961E+02 0.  0.
         11    1    3    3    0    0  0.33869016256E+02  0.16336751684E+03  0.89265428569E+02  0.18922043377E+03  0.00000000000E+00 0. -1.
        -11    1    3    3    0    0  0.20853154746E+03  0.92111197901E+03  0.78209710334E+03  0.12262171762E+04  0.00000000000E+00 0.  1.
         22    1    1    2    0    0 -0.24240056372E+03 -0.10844794958E+04  0.25569068342E+04  0.27879430354E+04  0.00000000000E+00 0. -1.
<mgrwt>
<rscale>  0 0.24321550E+04</rscale>
<asrwt>0</asrwt>
<pdfrwt beam="1">  1        2 0.58704998E+00 0.24321550E+04</pdfrwt>
<pdfrwt beam="2">  1       -2 0.59623947E-01 0.24321550E+04</pdfrwt>
<totfact> 0.11279541E+00</totfact>
</mgrwt>
</event>
<event>
 6    1  0.1831439E-005  0.3264760E+04  0.7818608E-02  0.8171921E-01
         -2   -1    0    0    0  501 -0.00000000000E+00  0.00000000000E+00  0.26121628304E+04  0.26121628304E+04  0.00000000000E+00 0.  1.
          2   -1    0    0  501    0  0.00000000000E+00 -0.00000000000E+00 -0.10200988344E+04  0.10200988344E+04  0.00000000000E+00 0. -1.
         23    2    1    2    0    0 -0.64304692803E+03  0.77638666713E+03 -0.63000646558E+03  0.11922037260E+04  0.90310403552E+02 0.  0.
         11    1    3    3    0    0 -0.49729994917E+03  0.65324763588E+03 -0.49887583782E+03  0.96068559622E+03  0.00000000000E+00 0. -1.
        -11    1    3    3    0    0 -0.14574697886E+03  0.12313903125E+03 -0.13113062776E+03  0.23151812975E+03  0.00000000000E+00 0.  1.
         22    1    1    2    0    0  0.64304692803E+03 -0.77638666713E+03  0.22220704616E+04  0.24400579388E+04  0.00000000000E+00 0.  1.
<mgrwt>
<rscale>  0 0.32647599E+04</rscale>
<asrwt>0</asrwt>
<pdfrwt beam="1">  1        2 0.15693828E+00 0.32647599E+04</pdfrwt>
<pdfrwt beam="2">  1       -2 0.40187120E+00 0.32647599E+04</pdfrwt>
<totfact> 0.14765682E-01</totfact>
</mgrwt>
</event>
<event>
 6    1  0.1831439E-005  0.4378003E+03  0.7818608E-02  0.1031424E+00
          1   -1    0    0  501    0  0.00000000000E+00  0.00000000000E+00  0.68915483507E+02  0.68915483507E+02  0.00000000000E+00 0. -1.
         -1   -1    0    0    0  501 -0.00000000000E+00 -0.00000000000E+00 -0.69530488392E+03  0.69530488392E+03  0.00000000000E+00 0.  1.
         23    2    1    2    0    0 -0.16519477644E+03  0.89136943410E+02 -0.49198990524E+03  0.53335691613E+03  0.84739744398E+02 0.  0.
         13    1    3    3    0    0 -0.10778481331E+03  0.58440312957E+02 -0.20323967272E+03  0.23735880166E+03  0.00000000000E+00 0. -1.
        -13    1    3    3    0    0 -0.57409963129E+02  0.30696630453E+02 -0.28875023252E+03  0.29599811447E+03  0.00000000000E+00 0.  1.
         22    1    1    2    0    0  0.16519477644E+03 -0.89136943410E+02 -0.13439949517E+03  0.23086345130E+03  0.00000000000E+00 0. -1.
<mgrwt>
<rscale>  0 0.43780028E+03</rscale>
<asrwt>0</asrwt>
<pdfrwt beam="1">  1        1 0.10602382E-01 0.43780028E+03</pdfrwt>
<pdfrwt beam="2">  1       -1 0.10696999E+00 0.43780028E+03</pdfrwt>
<totfact> 0.51260785E+02</totfact>
</mgrwt>
</event>
<event>
 6    1  0.1831439E-005  0.3013441E+04  0.7818608E-02  0.8239903E-01
          2   -1    0    0  501    0  0.00000000000E+00  0.00000000000E+00  0.26531288589E+04  0.26531288589E+04  0.00000000000E+00 0.  1.
         -2   -1    0    0    0  501 -0.00000000000E+00 -0.00000000000E+00 -0.85567144659E+03  0.85567144659E+03  0.00000000000E+00 0. -1.
         23    2    1    2    0    0 -0.58527386241E+03  0.10880985396E+04 -0.10110187831E+03  0.12436223200E+04  0.99352701443E+02 0.  0.
         13    1    3    3    0    0 -0.68814834042E+02  0.10390107780E+03  0.17469644424E+02  0.12584158227E+03  0.00000000000E+00 0. -1.
        -13    1    3    3    0    0 -0.51645902837E+03  0.98419746175E+03 -0.11857152273E+03  0.11177807378E+04  0.00000000000E+00 0.  1.
         22    1    1    2    0    0  0.58527386241E+03 -0.10880985396E+04  0.18985592906E+04  0.22651779855E+04  0.00000000000E+00 0.  1.
<mgrwt>
<rscale>  0 0.30134410E+04</rscale>
<asrwt>0</asrwt>
<pdfrwt beam="1">  1        2 0.40817366E+00 0.30134410E+04</pdfrwt>
<pdfrwt beam="2">  1       -2 0.13164176E+00 0.30134410E+04</pdfrwt>
<totfact> 0.10181484E+00</totfact>
</mgrwt>
</event>
<event>
 6    1  0.1831439E-005  0.9093643E+03  0.7818608E-02  0.9413951E-01
         -1   -1    0    0    0  501 -0.00000000000E+00  0.00000000000E+00  0.77867331810E+03  0.77867331810E+03  0.00000000000E+00 0.  1.
          1   -1    0    0  501    0  0.00000000000E+00 -0.00000000000E+00 -0.26549754353E+03  0.26549754353E+03  0.00000000000E+00 0. -1.
         23    2    1    2    0    0  0.34093514034E+02 -0.40515618430E+03  0.39798400530E+02  0.42015159940E+03  0.98130282893E+02 0.  0.
         11    1    3    3    0    0  0.63156190368E+02 -0.17209975603E+03  0.21491353730E+02  0.18457764950E+03  0.00000000000E+00 0. -1.
        -11    1    3    3    0    0 -0.29062676334E+02 -0.23305642826E+03  0.18307046801E+02  0.23557394990E+03  0.00000000000E+00 0.  1.
         22    1    1    2    0    0 -0.34093514034E+02  0.40515618430E+03  0.47337737404E+03  0.62401926222E+03  0.00000000000E+00 0.  1.
<mgrwt>
<rscale>  0 0.90936429E+03</rscale>
<asrwt>0</asrwt>
<pdfrwt beam="1">  1        1 0.40845776E-01 0.90936429E+03</pdfrwt>
<pdfrwt beam="2">  1       -1 0.11979589E+00 0.90936429E+03</pdfrwt>
<totfact> 0.64433011E+01</totfact>
</mgrwt>
</event>
<event>
 6    1  0.1831439E-005  0.1404494E+04  0.7818608E-02  0.8950572E-01
         -2   -1    0    0    0  501 -0.00000000000E+00  0.00000000000E+00  0.36888577186E+03  0.36888577186E+03  0.00000000000E+00 0. -1.
          2   -1    0    0  501    0  0.00000000000E+00 -0.00000000000E+00 -0.13368655193E+04  0.13368655193E+04  0.00000000000E+00 0.  1.
         23    2    1    2    0    0 -0.29930410932E+03  0.62801571185E+03 -0.39736577120E+03  0.80598076815E+03  0.87856464313E+02 0.  0.
         11    1    3    3    0    0 -0.93012084732E+02  0.26339406493E+03 -0.19547743788E+03  0.34093857228E+03  0.00000000000E+00 0. -1.
        -11    1    3    3    0    0 -0.20629202459E+03  0.36462164692E+03 -0.20188833331E+03  0.46504219587E+03  0.00000000000E+00 0.  1.
         22    1    1    2    0    0  0.29930410932E+03 -0.62801571185E+03 -0.57061397622E+03  0.89977052299E+03  0.00000000000E+00 0.  1.
<mgrwt>
<rscale>  0 0.14044937E+04</rscale>
<asrwt>0</asrwt>
<pdfrwt beam="1">  1        2 0.20567162E+00 0.14044937E+04</pdfrwt>
<pdfrwt beam="2">  1       -2 0.56751657E-01 0.14044937E+04</pdfrwt>
<totfact> 0.44576520E+01</totfact>
</mgrwt>
</event>
<event>
 6    1  0.1831439E-005  0.1764380E+04  0.7818608E-02  0.8725474E-01
         -2   -1    0    0    0  501 -0.00000000000E+00  0.00000000000E+00  0.53583172805E+03  0.53583172805E+03  0.00000000000E+00 0.  1.
          2   -1    0    0  501    0  0.00000000000E+00 -0.00000000000E+00 -0.14524326161E+04  0.14524326161E+04  0.00000000000E+00 0. -1.
         23    2    1    2    0    0 -0.96712463125E+02  0.25972036732E+03 -0.14007128905E+04  0.14304360546E+04  0.85689759341E+02 0.  0.
         11    1    3    3    0    0 -0.88654881404E+02  0.13246593392E+03 -0.88150941571E+03  0.89580453316E+03  0.00000000000E+00 0.  1.
        -11    1    3    3    0    0 -0.80575817211E+01  0.12725443340E+03 -0.51920347481E+03  0.53463152142E+03  0.00000000000E+00 0. -1.
         22    1    1    2    0    0  0.96712463125E+02 -0.25972036732E+03  0.48411200247E+03  0.55782828958E+03  0.00000000000E+00 0.  1.
<mgrwt>
<rscale>  0 0.17643803E+04</rscale>
<asrwt>0</asrwt>
<pdfrwt beam="1">  1        2 0.22345117E+00 0.17643803E+04</pdfrwt>
<pdfrwt beam="2">  1       -2 0.82435652E-01 0.17643803E+04</pdfrwt>
<totfact> 0.16519010E+01</totfact>
</mgrwt>
</event>
<event>
 6    1  0.1831439E-005  0.2633333E+04  0.7818608E-02  0.8356966E-01
          2   -1    0    0  501    0  0.00000000000E+00  0.00000000000E+00  0.13949848770E+04  0.13949848770E+04  0.00000000000E+00 0. -1.
         -2   -1    0    0    0  501 -0.00000000000E+00 -0.00000000000E+00 -0.12427452904E+04  0.12427452904E+04  0.00000000000E+00 0.  1.
         23    2    1    2    0    0 -0.31233150950E+03 -0.81628794113E+03 -0.90810916206E+03  0.12636062852E+04  0.90341680141E+02 0.  0.
         11    1    3    3    0    0 -0.24664390445E+03 -0.58370147354E+03 -0.70482198954E+03  0.94779463111E+03  0.00000000000E+00 0.  1.
        -11    1    3    3    0    0 -0.65687605053E+02 -0.23258646759E+03 -0.20328717252E+03  0.31581165412E+03  0.00000000000E+00 0. -1.
         22    1    1    2    0    0  0.31233150950E+03  0.81628794113E+03  0.10603487486E+04  0.13741238821E+04  0.00000000000E+00 0. -1.
<mgrwt>
<rscale>  0 0.26333332E+04</rscale>
<asrwt>0</asrwt>
<pdfrwt beam="1">  1        2 0.21461306E+00 0.26333332E+04</pdfrwt>
<pdfrwt beam="2">  1       -2 0.19119158E+00 0.26333332E+04</pdfrwt>
<totfact> 0.19555994E+00</totfact>
</mgrwt>
</event>
<event>
 6    1  0.1831439E-005  0.3956573E+04  0.7818608E-02  0.8013365E-01
         -1   -1    0    0    0  501 -0.00000000000E+00  0.00000000000E+00  0.23525471517E+04  0.23525471517E+04  0.00000000000E+00 0.  1.
          1   -1    0    0  501    0  0.00000000000E+00 -0.00000000000E+00 -0.16635658452E+04  0.16635658452E+04  0.00000000000E+00 0. -1.
         23    2    1    2    0    0  0.19299493878E+04 -0.27458450484E+03  0.68050188292E+03  0.20667097060E+04  0.90027254234E+02 0.  0.
         13    1    3    3    0    0  0.52450344865E+03 -0.53836788017E+02  0.14793515092E+03  0.54761946301E+03  0.00000000000E+00 0. -1.
        -13    1    3    3    0    0  0.14054459392E+04 -0.22074771682E+03  0.53256673200E+03  0.15190902430E+04  0.00000000000E+00 0.  1.
         22    1    1    2    0    0 -0.19299493878E+04  0.27458450484E+03  0.84794235774E+01  0.19494032909E+04  0.00000000000E+00 0. -1.
<mgrwt>
<rscale>  0 0.39565728E+04</rscale>
<asrwt>0</asrwt>
<pdfrwt beam="1">  1        1 0.25593321E+00 0.39565728E+04</pdfrwt>
<pdfrwt beam="2">  1       -1 0.36193033E+00 0.39565728E+04</pdfrwt>
<totfact> 0.51276481E-02</totfact>
</mgrwt>
</event>
<event>
 6    1  0.1831439E-005  0.2059811E+04  0.7818608E-02  0.8579157E-01
         -2   -1    0    0    0  501 -0.00000000000E+00  0.00000000000E+00  0.59469389577E+03  0.59469389577E+03  0.00000000000E+00 0. -1.
          2   -1    0    0  501    0  0.00000000000E+00 -0.00000000000E+00 -0.17836153065E+04  0.17836153065E+04  0.00000000000E+00 0.  1.
         23    2    1    2    0    0 -0.67227386496E+03  0.76809677211E+03 -0.73572319798E+03  0.12614773345E+04  0.90064646414E+02 0.  0.
         13    1    3    3    0    0 -0.46587086103E+03  0.57865620505E+03 -0.50161791565E+03  0.89638116675E+03  0.00000000000E+00 0.  1.
        -13    1    3    3    0    0 -0.20640300393E+03  0.18944056706E+03 -0.23410528233E+03  0.36509616773E+03  0.00000000000E+00 0. -1.
         22    1    1    2    0    0  0.67227386496E+03 -0.76809677211E+03 -0.45319821272E+03  0.11168318678E+04  0.00000000000E+00 0.  1.
<mgrwt>
<rscale>  0 0.20598108E+04</rscale>
<asrwt>0</asrwt>
<pdfrwt beam="1">  1        2 0.27440235E+00 0.20598108E+04</pdfrwt>
<pdfrwt beam="2">  1       -2 0.91491371E-01 0.20598108E+04</pdfrwt>
<totfact> 0.82881381E+00</totfact>
</mgrwt>
</event>
<event>
 6    1  0.1831439E-005  0.1312840E+04  0.7818608E-02  0.9019444E-01
          1   -1    0    0  501    0  0.00000000000E+00  0.00000000000E+00  0.76708168441E+03  0.76708168441E+03  0.00000000000E+00 0. -1.
         -1   -1    0    0    0  501 -0.00000000000E+00 -0.00000000000E+00 -0.56172294823E+03  0.56172294823E+03  0.00000000000E+00 0.  1.
         23    2    1    2    0    0 -0.16607047048E+03 -0.27257539956E+03 -0.47400273946E+03  0.57819903435E+03  0.88083918487E+02 0.  0.
         13    1    3    3    0    0 -0.16513050817E+03 -0.23568598646E+03 -0.37607036863E+03  0.47354502543E+03  0.00000000000E+00 0.  1.
        -13    1    3    3    0    0 -0.93996231190E+00 -0.36889413100E+02 -0.97932370826E+02  0.10465400892E+03  0.00000000000E+00 0. -1.
         22    1    1    2    0    0  0.16607047048E+03  0.27257539956E+03  0.67936147564E+03  0.75060559830E+03  0.00000000000E+00 0. -1.
<mgrwt>
<rscale>  0 0.13128403E+04</rscale>
<asrwt>0</asrwt>
<pdfrwt beam="1">  1        1 0.11801257E+00 0.13128403E+04</pdfrwt>
<pdfrwt beam="2">  1       -1 0.86418915E-01 0.13128403E+04</pdfrwt>
<totfact> 0.30659938E+01</totfact>
</mgrwt>
</event>
<event>
 6    1  0.1831439E-005  0.3615644E+04  0.7818608E-02  0.8086918E-01
          2   -1    0    0  501    0  0.00000000000E+00  0.00000000000E+00  0.14359910267E+04  0.14359910267E+04  0.00000000000E+00 0. -1.
         -2   -1    0    0    0  501 -0.00000000000E+00 -0.00000000000E+00 -0.22759338398E+04  0.22759338398E+04  0.00000000000E+00 0.  1.
         23    2    1    2    0    0 -0.88538592929E+03  0.18837079669E+03 -0.20254191890E+04  0.22203666080E+04  0.91176652448E+02 0.  0.
         11    1    3    3    0    0 -0.72690175426E+03  0.13009022745E+03 -0.15812493127E+04  0.17451816572E+04  0.00000000000E+00 0.  1.
        -11    1    3    3    0    0 -0.15848417503E+03  0.58280569242E+02 -0.44416987627E+03  0.47518495080E+03  0.00000000000E+00 0. -1.
         22    1    1    2    0    0  0.88538592929E+03 -0.18837079669E+03  0.11854763759E+04  0.14915582585E+04  0.00000000000E+00 0. -1.
<mgrwt>
<rscale>  0 0.36156441E+04</rscale>
<asrwt>0</asrwt>
<pdfrwt beam="1">  1        2 0.22092170E+00 0.36156441E+04</pdfrwt>
<pdfrwt beam="2">  1       -2 0.35014367E+00 0.36156441E+04</pdfrwt>
<totfact> 0.17434672E-01</totfact>
</mgrwt>
</event>
<event>
 6    1  0.1831439E-005  0.3524423E+04  0.7818608E-02  0.8108026E-01
         -2   -1    0    0    0  501 -0.00000000000E+00  0.00000000000E+00  0.23007773610E+04  0.23007773610E+04  0.00000000000E+00 0.  1.
          2   -1    0    0  501    0  0.00000000000E+00 -0.00000000000E+00 -0.13497132763E+04  0.13497132763E+04  0.00000000000E+00 0. -1.
         23    2    1    2    0    0  0.16683018574E+04 -0.38014797710E+02  0.10585922215E+04  0.19782949214E+04  0.91417134889E+02 0.  0.
         13    1    3    3    0    0  0.10136855638E+04  0.29521408786E+01  0.68542833529E+03  0.12236744421E+04  0.00000000000E+00 0.  1.
        -13    1    3    3    0    0  0.65461629354E+03 -0.40966938589E+02  0.37316388621E+03  0.75462047931E+03  0.00000000000E+00 0. -1.
         22    1    1    2    0    0 -0.16683018574E+04  0.38014797710E+02 -0.10752813683E+03  0.16721957159E+04  0.00000000000E+00 0.  1.
<mgrwt>
<rscale>  0 0.35244232E+04</rscale>
<asrwt>0</asrwt>
<pdfrwt beam="1">  1        2 0.20764820E+00 0.35244232E+04</pdfrwt>
<pdfrwt beam="2">  1       -2 0.35396575E+00 0.35244232E+04</pdfrwt>
<totfact> 0.18620573E-01</totfact>
</mgrwt>
</event>
<event>
 6    1  0.1831439E-005  0.1717457E+04  0.7818608E-02  0.8751470E-01
         -1   -1    0    0    0  501 -0.00000000000E+00  0.00000000000E+00  0.61555437592E+03  0.61555437592E+03  0.00000000000E+00 0.  1.
          1   -1    0    0  501    0  0.00000000000E+00 -0.00000000000E+00 -0.11979676979E+04  0.11979676979E+04  0.00000000000E+00 0. -1.
         23    2    1    2    0    0 -0.66597627138E+03 -0.20982899751E+03 -0.81531744329E+03  0.10774535091E+04  0.92795090263E+02 0.  0.
         13    1    3    3    0    0 -0.20360289274E+03 -0.90016468545E+02 -0.20662659335E+03  0.30372956988E+03  0.00000000000E+00 0.  1.
        -13    1    3    3    0    0 -0.46237337864E+03 -0.11981252896E+03 -0.60869084994E+03  0.77372393926E+03  0.00000000000E+00 0. -1.
         22    1    1    2    0    0  0.66597627138E+03  0.20982899751E+03  0.23290412128E+03  0.73606856471E+03  0.00000000000E+00 0.  1.
<mgrwt>
<rscale>  0 0.17174566E+04</rscale>
<asrwt>0</asrwt>
<pdfrwt beam="1">  1        1 0.18430272E+00 0.17174566E+04</pdfrwt>
<pdfrwt beam="2">  1       -1 0.94700675E-01 0.17174566E+04</pdfrwt>
<totfact> 0.10988422E+01</totfact>
</mgrwt>
</event>
<event>
 6    1  0.1831439E-005  0.3011919E+04  0.7818608E-02  0.8240336E-01
          1   -1    0    0  501    0  0.00000000000E+00  0.00000000000E+00  0.13066055975E+04  0.13066055975E+04  0.00000000000E+00 0. -1.
         -1   -1    0    0    0  501 -0.00000000000E+00 -0.00000000000E+00 -0.17357292427E+04  0.17357292427E+04  0.00000000000E+00 0.  1.
         23    2    1    2    0    0  0.25446261579E+02  0.99911820056E+03  0.92123032636E+03  0.13623525368E+04  0.91947971451E+02 0.  0.
         13    1    3    3    0    0  0.23959331206E+02  0.63912513736E+03  0.64742001114E+03  0.91005915279E+03  0.00000000000E+00 0.  1.
        -13    1    3    3    0    0  0.14869303724E+01  0.35999306320E+03  0.27381031523E+03  0.45229338403E+03  0.00000000000E+00 0. -1.
         22    1    1    2    0    0 -0.25446261579E+02 -0.99911820056E+03 -0.13503539716E+04  0.16799823033E+04  0.00000000000E+00 0.  1.
<mgrwt>
<rscale>  0 0.30119187E+04</rscale>
<asrwt>0</asrwt>
<pdfrwt beam="1">  1        1 0.20101625E+00 0.30119187E+04</pdfrwt>
<pdfrwt beam="2">  1       -1 0.26703527E+00 0.30119187E+04</pdfrwt>
<totfact> 0.41084596E-01</totfact>
</mgrwt>
</event>
<event>
 6    1  0.1831439E-005  0.3062421E+04  0.7818608E-02  0.8226128E-01
          2   -1    0    0  501    0  0.00000000000E+00  0.00000000000E+00  0.19875934488E+04  0.19875934488E+04  0.00000000000E+00 0. -1.
         -2   -1    0    0    0  501 -0.00000000000E+00 -0.00000000000E+00 -0.11796201202E+04  0.11796201202E+04  0.00000000000E+00 0.  1.
         23    2    1    2    0    0  0.35458023743E+02  0.31900499232E+03  0.19514238403E+04  0.19795686181E+04  0.87266561384E+02 0.  0.
         11    1    3    3    0    0 -0.26864337135E+02  0.11529270451E+03  0.61828291885E+03  0.62951399354E+03  0.00000000000E+00 0.  1.
        -11    1    3    3    0    0  0.62322360879E+02  0.20371228782E+03  0.13331409215E+04  0.13500546246E+04  0.00000000000E+00 0. -1.
         22    1    1    2    0    0 -0.35458023743E+02 -0.31900499232E+03 -0.11434505118E+04  0.11876449509E+04  0.00000000000E+00 0.  1.
<mgrwt>
<rscale>  0 0.30624208E+04</rscale>
<asrwt>0</asrwt>
<pdfrwt beam="1">  1        2 0.30578361E+00 0.30624208E+04</pdfrwt>
<pdfrwt beam="2">  1       -2 0.18148002E+00 0.30624208E+04</pdfrwt>
<totfact> 0.10240159E+00</totfact>
</mgrwt>
</event>
<event>
 6    1  0.1831439E-005  0.2767475E+04  0.7818608E-02  0.8313438E-01
         -2   -1    0    0    0  501 -0.00000000000E+00  0.00000000000E+00  0.86507061644E+03  0.86507061644E+03  0.00000000000E+00 0.  1.
          2   -1    0    0  501    0  0.00000000000E+00 -0.00000000000E+00 -0.22133790591E+04  0.22133790591E+04  0.00000000000E+00 0. -1.
         23    2    1    2    0    0  0.44663313472E+03  0.81041031143E+03 -0.18169614968E+04  0.20412024943E+04  0.94406100072E+02 0.  0.
         11    1    3    3    0    0  0.22998778684E+03  0.32235998313E+03 -0.75432550304E+03  0.85194912134E+03  0.00000000000E+00 0. -1.
        -11    1    3    3    0    0  0.21664534788E+03  0.48805032830E+03 -0.10626359938E+04  0.11892533729E+04  0.00000000000E+00 0.  1.
         22    1    1    2    0    0 -0.44663313472E+03 -0.81041031143E+03  0.46865305416E+03  0.10372471813E+04  0.00000000000E+00 0.  1.
<mgrwt>
<rscale>  0 0.27674748E+04</rscale>
<asrwt>0</asrwt>
<pdfrwt beam="1">  1        2 0.34051985E+00 0.27674748E+04</pdfrwt>
<pdfrwt beam="2">  1       -2 0.13308779E+00 0.27674748E+04</pdfrwt>
<totfact> 0.18115056E+00</totfact>
</mgrwt>
</event>
<event>
 6    1  0.1831439E-005  0.1937015E+04  0.7818608E-02  0.8636648E-01
         -1   -1    0    0    0  501 -0.00000000000E+00  0.00000000000E+00  0.52243215606E+03  0.52243215606E+03  0.00000000000E+00 0.  1.
          1   -1    0    0  501    0  0.00000000000E+00 -0.00000000000E+00 -0.17954605702E+04  0.17954605702E+04  0.00000000000E+00 0. -1.
         23    2    1    2    0    0 -0.68286408591E+03 -0.48971949141E+03 -0.12083209239E+04  0.14750904960E+04  0.98610223111E+02 0.  0.
         13    1    3    3    0    0 -0.38671310895E+03 -0.22374422714E+03 -0.67889963579E+03  0.81271964618E+03  0.00000000000E+00 0.  1.
        -13    1    3    3    0    0 -0.29615097696E+03 -0.26597526427E+03 -0.52942128808E+03  0.66237084977E+03  0.00000000000E+00 0. -1.
         22    1    1    2    0    0  0.68286408591E+03  0.48971949141E+03 -0.64707490255E+02  0.84280223030E+03  0.00000000000E+00 0.  1.
<mgrwt>
<rscale>  0 0.19370145E+04</rscale>
<asrwt>0</asrwt>
<pdfrwt beam="1">  1        1 0.27622471E+00 0.19370145E+04</pdfrwt>
<pdfrwt beam="2">  1       -1 0.80374176E-01 0.19370145E+04</pdfrwt>
<totfact> 0.59097274E+00</totfact>
</mgrwt>
</event>
<event>
 6    1  0.1894704E-005  0.2400206E+04  0.7818608E-02  0.8439427E-01
          2   -1    0    0  501    0  0.00000000000E+00  0.00000000000E+00  0.19864137166E+04  0.19864137166E+04  0.00000000000E+00 0. -1.
         -2   -1    0    0    0  501 -0.00000000000E+00 -0.00000000000E+00 -0.72504879932E+03  0.72504879932E+03  0.00000000000E+00 0.  1.
         23    2    1    2    0    0 -0.44513489832E+02  0.95673697684E+03 -0.18242070679E+03  0.97887946685E+03  0.87181435629E+02 0.  0.
         13    1    3    3    0    0 -0.10896094290E+01  0.62210922229E+03 -0.14966464495E+03  0.63985981094E+03  0.00000000000E+00 0.  1.
        -13    1    3    3    0    0 -0.43423880403E+02  0.33462775456E+03 -0.32756061840E+02  0.33901965592E+03  0.00000000000E+00 0. -1.
         22    1    1    2    0    0  0.44513489832E+02 -0.95673697684E+03  0.14437856241E+04  0.17325830491E+04  0.00000000000E+00 0.  1.
<mgrwt>
<rscale>  0 0.24002057E+04</rscale>
<asrwt>0</asrwt>
<pdfrwt beam="1">  1        2 0.30560211E+00 0.24002057E+04</pdfrwt>
<pdfrwt beam="2">  1       -2 0.11154597E+00 0.24002057E+04</pdfrwt>
<totfact> 0.38827297E+00</totfact>
</mgrwt>
</event>
<event>
 6    1  0.1831439E-005  0.5775199E+04  0.7818608E-02  0.7718917E-01
          2   -1    0    0  501    0  0.00000000000E+00  0.00000000000E+00  0.39951520405E+04  0.39951520405E+04  0.00000000000E+00 0. -1.
         -2   -1    0    0    0  501 -0.00000000000E+00 -0.00000000000E+00 -0.20870870766E+04  0.20870870766E+04  0.00000000000E+00 0.  1.
         23    2    1    2    0    0  0.17121671263E+04  0.43525111024E+03  0.33590417998E+04  0.37961302886E+04  0.80520540454E+02 0.  0.
         13    1    3    3    0    0  0.12851801461E+04  0.29069472344E+03  0.25103625229E+04  0.28351563320E+04  0.00000000000E+00 0.  1.
        -13    1    3    3    0    0  0.42698698017E+03  0.14455638680E+03  0.84867927691E+03  0.96097395659E+03  0.00000000000E+00 0. -1.
         22    1    1    2    0    0 -0.17121671263E+04 -0.43525111024E+03 -0.14509768359E+04  0.22861088285E+04  0.00000000000E+00 0.  1.
<mgrwt>
<rscale>  0 0.57751988E+04</rscale>
<asrwt>0</asrwt>
<pdfrwt beam="1">  1        2 0.61463878E+00 0.57751988E+04</pdfrwt>
<pdfrwt beam="2">  1       -2 0.32109032E+00 0.57751988E+04</pdfrwt>
<totfact> 0.55449224E-03</totfact>
</mgrwt>
</event>
<event>
 6    1  0.1831439E-005  0.3037542E+04  0.7818608E-02  0.8233091E-01
         -1   -1    0    0    0  501 -0.00000000000E+00  0.00000000000E+00  0.12611511916E+04  0.12611511916E+04  0.00000000000E+00 0.  1.
          1   -1    0    0  501    0  0.00000000000E+00 -0.00000000000E+00 -0.18290153878E+04  0.18290153878E+04  0.00000000000E+00 0. -1.
         23    2    1    2    0    0 -0.28525592700E+02 -0.64249816993E+03  0.11140525343E+04  0.12894829603E+04  0.89641775723E+02 0.  0.
         13    1    3    3    0    0 -0.27595371707E+02 -0.45238374239E+03  0.86062954946E+03  0.97267454800E+03  0.00000000000E+00 0.  1.
        -13    1    3    3    0    0 -0.93022099358E+00 -0.19011442754E+03  0.25342298487E+03  0.31680841234E+03  0.00000000000E+00 0. -1.
         22    1    1    2    0    0  0.28525592700E+02  0.64249816993E+03 -0.16819167305E+04  0.18006836191E+04  0.00000000000E+00 0. -1.
<mgrwt>
<rscale>  0 0.30375417E+04</rscale>
<asrwt>0</asrwt>
<pdfrwt beam="1">  1        1 0.28138698E+00 0.30375417E+04</pdfrwt>
<pdfrwt beam="2">  1       -1 0.19402326E+00 0.30375417E+04</pdfrwt>
<totfact> 0.54693762E-01</totfact>
</mgrwt>
</event>
<event>
 6    1  0.1831439E-005  0.3449464E+04  0.7818608E-02  0.8125872E-01
          1   -1    0    0  501    0  0.00000000000E+00  0.00000000000E+00  0.27139466126E+04  0.27139466126E+04  0.00000000000E+00 0. -1.
         -1   -1    0    0    0  501 -0.00000000000E+00 -0.00000000000E+00 -0.10960795064E+04  0.10960795064E+04  0.00000000000E+00 0.  1.
         23    2    1    2    0    0 -0.15306513153E+04  0.38279579531E+03  0.43419730276E+02  0.15810553677E+04  0.91786343502E+02 0.  0.
         11    1    3    3    0    0 -0.88943727168E+03  0.25592326278E+03  0.56892065767E+02  0.92727131080E+03  0.00000000000E+00 0. -1.
        -11    1    3    3    0    0 -0.64121404366E+03  0.12687253253E+03 -0.13472335492E+02  0.65378405695E+03  0.00000000000E+00 0.  1.
         22    1    1    2    0    0  0.15306513153E+04 -0.38279579531E+03  0.15744473759E+04  0.22289707512E+04  0.00000000000E+00 0. -1.
<mgrwt>
<rscale>  0 0.34494645E+04</rscale>
<asrwt>0</asrwt>
<pdfrwt beam="1">  1        1 0.41753025E+00 0.34494645E+04</pdfrwt>
<pdfrwt beam="2">  1       -1 0.16862762E+00 0.34494645E+04</pdfrwt>
<totfact> 0.19788263E-01</totfact>
</mgrwt>
</event>
<event>
 6    1  0.1831439E-005  0.1650228E+04  0.7818608E-02  0.8790272E-01
         -1   -1    0    0    0  501 -0.00000000000E+00  0.00000000000E+00  0.48733112234E+03  0.48733112234E+03  0.00000000000E+00 0.  1.
          1   -1    0    0  501    0  0.00000000000E+00 -0.00000000000E+00 -0.13970234953E+04  0.13970234953E+04  0.00000000000E+00 0. -1.
         23    2    1    2    0    0  0.31123451179E+03  0.14884860861E+03 -0.13089754985E+04  0.13566711482E+04  0.90093945440E+02 0.  0.
         13    1    3    3    0    0  0.49339221879E+02 -0.14742653193E+01 -0.11588967441E+03  0.12596407785E+03  0.00000000000E+00 0.  1.
        -13    1    3    3    0    0  0.26189528991E+03  0.15032287393E+03 -0.11930858241E+04  0.12307070704E+04  0.00000000000E+00 0. -1.
         22    1    1    2    0    0 -0.31123451179E+03 -0.14884860861E+03  0.39928312553E+03  0.52768346947E+03  0.00000000000E+00 0.  1.
<mgrwt>
<rscale>  0 0.16502279E+04</rscale>
<asrwt>0</asrwt>
<pdfrwt beam="1">  1        1 0.21492669E+00 0.16502279E+04</pdfrwt>
<pdfrwt beam="2">  1       -1 0.74974019E-01 0.16502279E+04</pdfrwt>
<totfact> 0.13198708E+01</totfact>
</mgrwt>
</event>
<event>
 6    1  0.1831439E-005  0.1464962E+04  0.7818608E-02  0.8908093E-01
          1   -1    0    0  501    0  0.00000000000E+00  0.00000000000E+00  0.10048777112E+04  0.10048777112E+04  0.00000000000E+00 0. -1.
         -1   -1    0    0    0  501 -0.00000000000E+00 -0.00000000000E+00 -0.53392394620E+03  0.53392394620E+03  0.00000000000E+00 0.  1.
         23    2    1    2    0    0  0.51630165941E+03  0.10288456480E+03 -0.29431898176E+03  0.60993405966E+03  0.90792383690E+02 0.  0.
         13    1    3    3    0    0  0.42097272101E+03  0.78790076292E+02 -0.27710769158E+03  0.51011232164E+03  0.00000000000E+00 0. -1.
        -13    1    3    3    0    0  0.95328938397E+02  0.24094488507E+02 -0.17211290173E+02  0.99821738022E+02  0.00000000000E+00 0.  1.
         22    1    1    2    0    0 -0.51630165941E+03 -0.10288456480E+03  0.76527274677E+03  0.92886759774E+03  0.00000000000E+00 0. -1.
<mgrwt>
<rscale>  0 0.14649618E+04</rscale>
<asrwt>0</asrwt>
<pdfrwt beam="1">  1        1 0.15459657E+00 0.14649618E+04</pdfrwt>
<pdfrwt beam="2">  1       -1 0.82142146E-01 0.14649618E+04</pdfrwt>
<totfact> 0.21452848E+01</totfact>
</mgrwt>
</event>
<event>
 6    1  0.1831439E-005  0.2692643E+04  0.7818608E-02  0.8337396E-01
          2   -1    0    0  501    0  0.00000000000E+00  0.00000000000E+00  0.16489326299E+04  0.16489326299E+04  0.00000000000E+00 0. -1.
         -2   -1    0    0    0  501 -0.00000000000E+00 -0.00000000000E+00 -0.10992456519E+04  0.10992456519E+04  0.00000000000E+00 0.  1.
         23    2    1    2    0    0 -0.13965333089E+03 -0.94723519676E+03 -0.68799250570E+03  0.11833753949E+04  0.10142024687E+03 0.  0.
         11    1    3    3    0    0 -0.35945595367E+02 -0.26434435911E+03 -0.24920775001E+03  0.36506784121E+03  0.00000000000E+00 0. -1.
        -11    1    3    3    0    0 -0.10370773552E+03 -0.68289083765E+03 -0.43878475569E+03  0.81830755366E+03  0.00000000000E+00 0.  1.
         22    1    1    2    0    0  0.13965333089E+03  0.94723519676E+03  0.12376794837E+04  0.15648028870E+04  0.00000000000E+00 0. -1.
<mgrwt>
<rscale>  0 0.26926433E+04</rscale>
<asrwt>0</asrwt>
<pdfrwt beam="1">  1        2 0.25368194E+00 0.26926433E+04</pdfrwt>
<pdfrwt beam="2">  1       -2 0.16911472E+00 0.26926433E+04</pdfrwt>
<totfact> 0.19881122E+00</totfact>
</mgrwt>
</event>
<event>
 6    1  0.1831439E-005  0.1130592E+04  0.7818608E-02  0.9175877E-01
          2   -1    0    0  501    0  0.00000000000E+00  0.00000000000E+00  0.10313726564E+04  0.10313726564E+04  0.00000000000E+00 0. -1.
         -2   -1    0    0    0  501 -0.00000000000E+00 -0.00000000000E+00 -0.30983913156E+03  0.30983913156E+03  0.00000000000E+00 0.  1.
         23    2    1    2    0    0  0.39055959504E+03  0.25970398343E+03  0.72962318911E+03  0.87211862131E+03  0.90873182315E+02 0.  0.
         11    1    3    3    0    0  0.93912743572E+02  0.45417106582E+02  0.23246200587E+03  0.25479580285E+03  0.00000000000E+00 0.  1.
        -11    1    3    3    0    0  0.29664685147E+03  0.21428687685E+03  0.49716118323E+03  0.61732281846E+03  0.00000000000E+00 0. -1.
         22    1    1    2    0    0 -0.39055959504E+03 -0.25970398343E+03 -0.80896642955E+01  0.46909316661E+03  0.00000000000E+00 0.  1.
<mgrwt>
<rscale>  0 0.11305921E+04</rscale>
<asrwt>0</asrwt>
<pdfrwt beam="1">  1        2 0.15867272E+00 0.11305921E+04</pdfrwt>
<pdfrwt beam="2">  1       -2 0.47667559E-01 0.11305921E+04</pdfrwt>
<totfact> 0.99376065E+01</totfact>
</mgrwt>
</event>
<event>
 6    1  0.1831439E-005  0.1122678E+04  0.7818608E-02  0.9183366E-01
         -2   -1    0    0    0  501 -0.00000000000E+00  0.00000000000E+00  0.40176539603E+03  0.40176539603E+03  0.00000000000E+00 0. -1.
          2   -1    0    0  501    0  0.00000000000E+00 -0.00000000000E+00 -0.78429271461E+03  0.78429271461E+03  0.00000000000E+00 0.  1.
         23    2    1    2    0    0 -0.11749485195E+03  0.53048524828E+03 -0.60393173501E+02  0.55440152175E+03  0.92163295503E+02 0.  0.
         13    1    3    3    0    0 -0.47554548158E+02  0.34104738437E+03 -0.73266826969E+02  0.35205508286E+03  0.00000000000E+00 0.  1.
        -13    1    3    3    0    0 -0.69940303789E+02  0.18943786391E+03  0.12873653468E+02  0.20234643888E+03  0.00000000000E+00 0. -1.
         22    1    1    2    0    0  0.11749485195E+03 -0.53048524828E+03 -0.32213414508E+03  0.63165658890E+03  0.00000000000E+00 0. -1.
<mgrwt>
<rscale>  0 0.11226784E+04</rscale>
<asrwt>0</asrwt>
<pdfrwt beam="1">  1        2 0.12066042E+00 0.11226784E+04</pdfrwt>
<pdfrwt beam="2">  1       -2 0.61810061E-01 0.11226784E+04</pdfrwt>
<totfact> 0.85295879E+01</totfact>
</mgrwt>
</event>
<event>
 6    1  0.1831439E-005  0.2545399E+04  0.7818608E-02  0.8386988E-01
          2   -1    0    0  501    0  0.00000000000E+00  0.00000000000E+00  0.30505647032E+04  0.30505647032E+04  0.00000000000E+00 0. -1.
         -2   -1    0    0    0  501 -0.00000000000E+00 -0.00000000000E+00 -0.53097198660E+03  0.53097198660E+03  0.00000000000E+00 0.  1.
         23    2    1    2    0    0  0.91212490692E+03  0.43972197442E+03  0.17839985493E+03  0.10307502863E+04  0.72748772435E+02 0.  0.
         13    1    3    3    0    0  0.77880006868E+03  0.35661065257E+03  0.13011363093E+03  0.86638920899E+03  0.00000000000E+00 0. -1.
        -13    1    3    3    0    0  0.13332483825E+03  0.83111321858E+02  0.48286223999E+02  0.16436107733E+03  0.00000000000E+00 0.  1.
         22    1    1    2    0    0 -0.91212490692E+03 -0.43972197442E+03  0.23411928617E+04  0.25507864035E+04  0.00000000000E+00 0. -1.
<mgrwt>
<rscale>  0 0.25453993E+04</rscale>
<asrwt>0</asrwt>
<pdfrwt beam="1">  1        2 0.46931764E+00 0.25453993E+04</pdfrwt>
<pdfrwt beam="2">  1       -2 0.81688000E-01 0.25453993E+04</pdfrwt>
<totfact> 0.18959793E+00</totfact>
</mgrwt>
</event>
<event>
 6    1  0.1831439E-005  0.3424148E+04  0.7818608E-02  0.8132005E-01
         -1   -1    0    0    0  501 -0.00000000000E+00  0.00000000000E+00  0.12995237999E+04  0.12995237999E+04  0.00000000000E+00 0.  1.
          1   -1    0    0  501    0  0.00000000000E+00 -0.00000000000E+00 -0.22555931120E+04  0.22555931120E+04  0.00000000000E+00 0. -1.
         23    2    1    2    0    0 -0.17664093748E+03  0.15295545012E+04  0.29593024968E+03  0.15706164972E+04  0.92317256259E+02 0.  0.
         13    1    3    3    0    0 -0.12315377696E+03  0.93825377591E+03  0.22497087749E+03  0.97267615192E+03  0.00000000000E+00 0. -1.
        -13    1    3    3    0    0 -0.53487160518E+02  0.59130072527E+03  0.70959372195E+02  0.59794034531E+03  0.00000000000E+00 0.  1.
         22    1    1    2    0    0  0.17664093748E+03 -0.15295545012E+04 -0.12519995619E+04  0.19845004147E+04  0.00000000000E+00 0. -1.
<mgrwt>
<rscale>  0 0.34241477E+04</rscale>
<asrwt>0</asrwt>
<pdfrwt beam="1">  1        1 0.34701432E+00 0.34241477E+04</pdfrwt>
<pdfrwt beam="2">  1       -1 0.19992674E+00 0.34241477E+04</pdfrwt>
<totfact> 0.24694413E-01</totfact>
</mgrwt>
</event>
<event>
 6    1  0.1831439E-005  0.7357432E+03  0.7818608E-02  0.9657986E-01
          1   -1    0    0  501    0  0.00000000000E+00  0.00000000000E+00  0.15692909195E+03  0.15692909195E+03  0.00000000000E+00 0. -1.
         -1   -1    0    0    0  501 -0.00000000000E+00 -0.00000000000E+00 -0.86236084963E+03  0.86236084963E+03  0.00000000000E+00 0.  1.
         23    2    1    2    0    0 -0.55856139606E+02  0.18036522846E+03  0.68287164509E+02  0.22286512119E+03  0.96717120708E+02 0.  0.
         11    1    3    3    0    0 -0.75601131869E+01  0.92147416479E+02  0.79148161062E+02  0.12170757197E+03  0.00000000000E+00 0. -1.
        -11    1    3    3    0    0 -0.48296026419E+02  0.88217811976E+02 -0.10860996554E+02  0.10115754922E+03  0.00000000000E+00 0.  1.
         22    1    1    2    0    0  0.55856139606E+02 -0.18036522846E+03 -0.77371892220E+03  0.79642482039E+03  0.00000000000E+00 0.  1.
<mgrwt>
<rscale>  0 0.73574318E+03</rscale>
<asrwt>0</asrwt>
<pdfrwt beam="1">  1        1 0.24142938E-01 0.73574318E+03</pdfrwt>
<pdfrwt beam="2">  1       -1 0.13267090E+00 0.73574318E+03</pdfrwt>
<totfact> 0.10010370E+02</totfact>
</mgrwt>
</event>
<event>
 6    1  0.1831439E-005  0.8797805E+03  0.7818608E-02  0.9451216E-01
          1   -1    0    0  501    0  0.00000000000E+00  0.00000000000E+00  0.16699131706E+04  0.16699131706E+04  0.00000000000E+00 0. -1.
         -1   -1    0    0    0  501 -0.00000000000E+00 -0.00000000000E+00 -0.11587634876E+03  0.11587634876E+03  0.00000000000E+00 0.  1.
         23    2    1    2    0    0  0.29681313086E+03 -0.20448887197E+03  0.29018762627E+03  0.47154885550E+03  0.90750929902E+02 0.  0.
         11    1    3    3    0    0  0.19714011920E+03 -0.12905797781E+03  0.13249573559E+03  0.27032444985E+03  0.00000000000E+00 0.  1.
        -11    1    3    3    0    0  0.99673011659E+02 -0.75430894156E+02  0.15769189068E+03  0.20122440566E+03  0.00000000000E+00 0. -1.
         22    1    1    2    0    0 -0.29681313086E+03  0.20448887197E+03  0.12638491955E+04  0.13142406638E+04  0.00000000000E+00 0.  1.
<mgrwt>
<rscale>  0 0.87978052E+03</rscale>
<asrwt>0</asrwt>
<pdfrwt beam="1">  1        1 0.25690970E+00 0.87978052E+03</pdfrwt>
<pdfrwt beam="2">  1       -1 0.17827132E-01 0.87978052E+03</pdfrwt>
<totfact> 0.12531213E+02</totfact>
</mgrwt>
</event>
<event>
 6    1  0.1831439E-005  0.2002702E+04  0.7818608E-02  0.8605358E-01
         -2   -1    0    0    0  501 -0.00000000000E+00  0.00000000000E+00  0.22886981604E+04  0.22886981604E+04  0.00000000000E+00 0.  1.
          2   -1    0    0  501    0  0.00000000000E+00 -0.00000000000E+00 -0.43811101013E+03  0.43811101013E+03  0.00000000000E+00 0. -1.
         23    2    1    2    0    0  0.51442864463E+03  0.54469751834E+03  0.26918710927E+02  0.75523650041E+03  0.91243288280E+02 0.  0.
         13    1    3    3    0    0  0.13717548929E+03  0.10557993770E+03  0.33346078020E+02  0.17628442650E+03  0.00000000000E+00 0.  1.
        -13    1    3    3    0    0  0.37725315534E+03  0.43911758064E+03 -0.64273670925E+01  0.57895207391E+03  0.00000000000E+00 0. -1.
         22    1    1    2    0    0 -0.51442864463E+03 -0.54469751834E+03  0.18236684394E+04  0.19715726701E+04  0.00000000000E+00 0. -1.
<mgrwt>
<rscale>  0 0.20027020E+04</rscale>
<asrwt>0</asrwt>
<pdfrwt beam="1">  1        2 0.67401695E-01 0.20027020E+04</pdfrwt>
<pdfrwt beam="2">  1       -2 0.35210740E+00 0.20027020E+04</pdfrwt>
<totfact> 0.10074893E+00</totfact>
</mgrwt>
</event>
<event>
 6    1  0.1831439E-005  0.1498225E+04  0.7818608E-02  0.8885634E-01
          2   -1    0    0  501    0  0.00000000000E+00  0.00000000000E+00  0.21517480019E+04  0.21517480019E+04  0.00000000000E+00 0. -1.
         -2   -1    0    0    0  501 -0.00000000000E+00 -0.00000000000E+00 -0.26079709995E+03  0.26079709995E+03  0.00000000000E+00 0.  1.
         23    2    1    2    0    0 -0.34809339357E+03 -0.27706532532E+03  0.19139766002E+04  0.19670516811E+04  0.89731181634E+02 0.  0.
         13    1    3    3    0    0 -0.27782463084E+03 -0.18006982608E+03  0.14995994707E+04  0.15357116397E+04  0.00000000000E+00 0.  1.
        -13    1    3    3    0    0 -0.70268762732E+02 -0.96995499239E+02  0.41437712948E+03  0.43134004141E+03  0.00000000000E+00 0. -1.
         22    1    1    2    0    0  0.34809339357E+03  0.27706532532E+03 -0.23025698244E+02  0.44549342074E+03  0.00000000000E+00 0.  1.
<mgrwt>
<rscale>  0 0.14982251E+04</rscale>
<asrwt>0</asrwt>
<pdfrwt beam="1">  1        2 0.33103814E+00 0.14982251E+04</pdfrwt>
<pdfrwt beam="2">  1       -2 0.40122632E-01 0.14982251E+04</pdfrwt>
<totfact> 0.31252933E+01</totfact>
</mgrwt>
</event>
<event>
 6    1  0.1831439E-005  0.1624789E+04  0.7818608E-02  0.8805462E-01
          2   -1    0    0  501    0  0.00000000000E+00  0.00000000000E+00  0.89140441752E+03  0.89140441752E+03  0.00000000000E+00 0. -1.
         -2   -1    0    0    0  501 -0.00000000000E+00 -0.00000000000E+00 -0.74038784333E+03  0.74038784333E+03  0.00000000000E+00 0.  1.
         23    2    1    2    0    0 -0.50853854163E+03 -0.48218738961E+03  0.48325695092E+03  0.85622808237E+03  0.92049559512E+02 0.  0.
         11    1    3    3    0    0 -0.30866694419E+03 -0.31875870628E+03  0.25595216855E+03  0.51224399250E+03  0.00000000000E+00 0. -1.
        -11    1    3    3    0    0 -0.19987159744E+03 -0.16342868333E+03  0.22730478236E+03  0.34398408987E+03  0.00000000000E+00 0.  1.
         22    1    1    2    0    0  0.50853854163E+03  0.48218738961E+03 -0.33224037673E+03  0.77556417849E+03  0.00000000000E+00 0.  1.
<mgrwt>
<rscale>  0 0.16247892E+04</rscale>
<asrwt>0</asrwt>
<pdfrwt beam="1">  1        2 0.13713914E+00 0.16247892E+04</pdfrwt>
<pdfrwt beam="2">  1       -2 0.11390582E+00 0.16247892E+04</pdfrwt>
<totfact> 0.17169209E+01</totfact>
</mgrwt>
</event>
<event>
 6    1  0.1831439E-005  0.2993875E+04  0.7818608E-02  0.8245482E-01
         -2   -1    0    0    0  501 -0.00000000000E+00  0.00000000000E+00  0.10247457152E+04  0.10247457152E+04  0.00000000000E+00 0.  1.
          2   -1    0    0  501    0  0.00000000000E+00 -0.00000000000E+00 -0.21867096810E+04  0.21867096810E+04  0.00000000000E+00 0. -1.
         23    2    1    2    0    0  0.10239323497E+04 -0.91077891463E+03 -0.12239172367E+04  0.18396704656E+04  0.91969189649E+02 0.  0.
         13    1    3    3    0    0  0.50481222104E+03 -0.49061996878E+03 -0.58265620480E+03  0.91380062665E+03  0.00000000000E+00 0. -1.
        -13    1    3    3    0    0  0.51912012864E+03 -0.42015894585E+03 -0.64126103189E+03  0.92586983899E+03  0.00000000000E+00 0.  1.
         22    1    1    2    0    0 -0.10239323497E+04  0.91077891463E+03  0.61953270827E+02  0.13717849306E+04  0.00000000000E+00 0.  1.
<mgrwt>
<rscale>  0 0.29938747E+04</rscale>
<asrwt>0</asrwt>
<pdfrwt beam="1">  1        2 0.33641687E+00 0.29938747E+04</pdfrwt>
<pdfrwt beam="2">  1       -2 0.15765319E+00 0.29938747E+04</pdfrwt>
<totfact> 0.11797917E+00</totfact>
</mgrwt>
</event>
<event>
 6    1  0.1831439E-005  0.4126194E+04  0.7818608E-02  0.7979562E-01
          2   -1    0    0  501    0  0.00000000000E+00  0.00000000000E+00  0.20983708186E+04  0.20983708186E+04  0.00000000000E+00 0. -1.
         -2   -1    0    0    0  501 -0.00000000000E+00 -0.00000000000E+00 -0.20284157552E+04  0.20284157552E+04  0.00000000000E+00 0.  1.
         23    2    1    2    0    0  0.85266704740E+03  0.11595434649E+04 -0.14419026547E+04  0.20393728868E+04  0.91522484501E+02 0.  0.
         11    1    3    3    0    0  0.48061532352E+03  0.65461821193E+03 -0.74903220438E+03  0.11047919876E+04  0.00000000000E+00 0. -1.
        -11    1    3    3    0    0  0.37205172388E+03  0.50492525296E+03 -0.69287045035E+03  0.93458089927E+03  0.00000000000E+00 0.  1.
         22    1    1    2    0    0 -0.85266704740E+03 -0.11595434649E+04  0.15118577181E+04  0.20874136869E+04  0.00000000000E+00 0. -1.
<mgrwt>
<rscale>  0 0.41261936E+04</rscale>
<asrwt>0</asrwt>
<pdfrwt beam="1">  1        2 0.32282628E+00 0.41261936E+04</pdfrwt>
<pdfrwt beam="2">  1       -2 0.31206396E+00 0.41261936E+04</pdfrwt>
<totfact> 0.12322878E-01</totfact>
</mgrwt>
</event>
<event>
 6    1  0.1831439E-005  0.1962060E+04  0.7818608E-02  0.8624567E-01
          1   -1    0    0  501    0  0.00000000000E+00  0.00000000000E+00  0.10862973259E+04  0.10862973259E+04  0.00000000000E+00 0. -1.
         -1   -1    0    0    0  501 -0.00000000000E+00 -0.00000000000E+00 -0.88596318188E+03  0.88596318188E+03  0.00000000000E+00 0.  1.
         23    2    1    2    0    0  0.88036077516E+03  0.41676456884E+03  0.20605832824E+01  0.97825839249E+03  0.90870436332E+02 0.  0.
         11    1    3    3    0    0  0.80897545178E+03  0.40701532274E+03  0.10969561616E+02  0.90566168397E+03  0.00000000000E+00 0. -1.
        -11    1    3    3    0    0  0.71385323377E+02  0.97492460996E+01 -0.89089783335E+01  0.72596708521E+02  0.00000000000E+00 0.  1.
         22    1    1    2    0    0 -0.88036077516E+03 -0.41676456884E+03  0.19827356072E+03  0.99400211527E+03  0.00000000000E+00 0. -1.
<mgrwt>
<rscale>  0 0.19620596E+04</rscale>
<asrwt>0</asrwt>
<pdfrwt beam="1">  1        1 0.16712266E+00 0.19620596E+04</pdfrwt>
<pdfrwt beam="2">  1       -1 0.13630203E+00 0.19620596E+04</pdfrwt>
<totfact> 0.54314631E+00</totfact>
</mgrwt>
</event>
<event>
 6    1  0.1831439E-005  0.8245585E+03  0.7818608E-02  0.9525135E-01
         -1   -1    0    0    0  501 -0.00000000000E+00  0.00000000000E+00  0.36584930166E+03  0.36584930166E+03  0.00000000000E+00 0.  1.
          1   -1    0    0  501    0  0.00000000000E+00 -0.00000000000E+00 -0.46460165074E+03  0.46460165074E+03  0.00000000000E+00 0. -1.
         23    2    1    2    0    0 -0.32467678009E+03  0.19343058991E+03  0.10328489700E+03  0.40190754334E+03  0.89618629784E+02 0.  0.
         13    1    3    3    0    0 -0.19772290381E+03  0.10733661555E+03  0.10552615501E+03  0.24849801834E+03  0.00000000000E+00 0. -1.
        -13    1    3    3    0    0 -0.12695387628E+03  0.86093974363E+02 -0.22412580064E+01  0.15340952500E+03  0.00000000000E+00 0.  1.
         22    1    1    2    0    0  0.32467678009E+03 -0.19343058991E+03 -0.20203724608E+03  0.42854340905E+03  0.00000000000E+00 0. -1.
<mgrwt>
<rscale>  0 0.82455852E+03</rscale>
<asrwt>0</asrwt>
<pdfrwt beam="1">  1        1 0.71477177E-01 0.82455852E+03</pdfrwt>
<pdfrwt beam="2">  1       -1 0.56284508E-01 0.82455852E+03</pdfrwt>
<totfact> 0.15833329E+02</totfact>
</mgrwt>
</event>
<event>
 6    1  0.1831439E-005  0.3406474E+04  0.7818608E-02  0.8136319E-01
          2   -1    0    0  501    0  0.00000000000E+00  0.00000000000E+00  0.23976280750E+04  0.23976280750E+04  0.00000000000E+00 0. -1.
         -2   -1    0    0    0  501 -0.00000000000E+00 -0.00000000000E+00 -0.12099528345E+04  0.12099528345E+04  0.00000000000E+00 0.  1.
         23    2    1    2    0    0 -0.23090520903E+03  0.11651341553E+04  0.18851583749E+04  0.22301421492E+04  0.94112123937E+02 0.  0.
         13    1    3    3    0    0 -0.16383317230E+03  0.79826958844E+03  0.13722643130E+04  0.15959902847E+04  0.00000000000E+00 0.  1.
        -13    1    3    3    0    0 -0.67072036732E+02  0.36686456683E+03  0.51289406197E+03  0.63415186455E+03  0.00000000000E+00 0. -1.
         22    1    1    2    0    0  0.23090520903E+03 -0.11651341553E+04 -0.69748313451E+03  0.13774387603E+04  0.00000000000E+00 0.  1.
<mgrwt>
<rscale>  0 0.34064744E+04</rscale>
<asrwt>0</asrwt>
<pdfrwt beam="1">  1        2 0.36886586E+00 0.34064744E+04</pdfrwt>
<pdfrwt beam="2">  1       -2 0.18614659E+00 0.34064744E+04</pdfrwt>
<totfact> 0.54338009E-01</totfact>
</mgrwt>
</event>
<event>
 6    1  0.1831439E-005  0.3399668E+04  0.7818608E-02  0.8137988E-01
         -1   -1    0    0    0  501 -0.00000000000E+00  0.00000000000E+00  0.10284536720E+04  0.10284536720E+04  0.00000000000E+00 0.  1.
          1   -1    0    0  501    0  0.00000000000E+00 -0.00000000000E+00 -0.28094949894E+04  0.28094949894E+04  0.00000000000E+00 0. -1.
         23    2    1    2    0    0 -0.98301666150E+03  0.12888906540E+04 -0.14642602342E+04  0.21863097391E+04  0.91276324093E+02 0.  0.
         13    1    3    3    0    0 -0.53741911249E+03  0.75265143987E+03 -0.78813997409E+03  0.12151000416E+04  0.00000000000E+00 0.  1.
        -13    1    3    3    0    0 -0.44559754900E+03  0.53623921415E+03 -0.67612026008E+03  0.97120969752E+03  0.00000000000E+00 0. -1.
         22    1    1    2    0    0  0.98301666150E+03 -0.12888906540E+04 -0.31678108331E+03  0.16516389223E+04  0.00000000000E+00 0.  1.
<mgrwt>
<rscale>  0 0.33996679E+04</rscale>
<asrwt>0</asrwt>
<pdfrwt beam="1">  1        1 0.43223000E+00 0.33996679E+04</pdfrwt>
<pdfrwt beam="2">  1       -1 0.15822364E+00 0.33996679E+04</pdfrwt>
<totfact> 0.20339116E-01</totfact>
</mgrwt>
</event>
<event>
 6    1  0.1831439E-005  0.1591196E+04  0.7818608E-02  0.8825975E-01
         -2   -1    0    0    0  501 -0.00000000000E+00  0.00000000000E+00  0.57471591633E+03  0.57471591633E+03  0.00000000000E+00 0.  1.
          2   -1    0    0  501    0  0.00000000000E+00 -0.00000000000E+00 -0.11013719406E+04  0.11013719406E+04  0.00000000000E+00 0. -1.
         23    2    1    2    0    0 -0.27127441614E+03  0.73392556354E+03 -0.40183340196E+03  0.88373867339E+03  0.85366376458E+02 0.  0.
         11    1    3    3    0    0 -0.78756638351E+02  0.11905594020E+03 -0.76601177912E+02  0.16200205381E+03  0.00000000000E+00 0.  1.
        -11    1    3    3    0    0 -0.19251777779E+03  0.61486962334E+03 -0.32523222405E+03  0.72173661957E+03  0.00000000000E+00 0. -1.
         22    1    1    2    0    0  0.27127441614E+03 -0.73392556354E+03 -0.12482262234E+03  0.79234918358E+03  0.00000000000E+00 0. -1.
<mgrwt>
<rscale>  0 0.15911958E+04</rscale>
<asrwt>0</asrwt>
<pdfrwt beam="1">  1        2 0.16944184E+00 0.15911958E+04</pdfrwt>
<pdfrwt beam="2">  1       -2 0.88417834E-01 0.15911958E+04</pdfrwt>
<totfact> 0.22974593E+01</totfact>
</mgrwt>
</event>
<event>
 6    1  0.1831439E-005  0.3214568E+04  0.7818608E-02  0.8184980E-01
         -2   -1    0    0    0  501 -0.00000000000E+00  0.00000000000E+00  0.20974573467E+04  0.20974573467E+04  0.00000000000E+00 0.  1.
          2   -1    0    0  501    0  0.00000000000E+00 -0.00000000000E+00 -0.12316636617E+04  0.12316636617E+04  0.00000000000E+00 0. -1.
         23    2    1    2    0    0  0.89231300087E+02 -0.74769462816E+03  0.19023303151E+04  0.20479427744E+04  0.90551078768E+02 0.  0.
         13    1    3    3    0    0  0.52116515677E+02 -0.67071790880E+03  0.16715678470E+04  0.18018650648E+04  0.00000000000E+00 0. -1.
        -13    1    3    3    0    0  0.37114784410E+02 -0.76976719358E+02  0.23076246804E+03  0.24607770968E+03  0.00000000000E+00 0.  1.
         22    1    1    2    0    0 -0.89231300087E+02  0.74769462816E+03 -0.10365366300E+04  0.12811782340E+04  0.00000000000E+00 0. -1.
<mgrwt>
<rscale>  0 0.32145681E+04</rscale>
<asrwt>0</asrwt>
<pdfrwt beam="1">  1        2 0.18948672E+00 0.32145681E+04</pdfrwt>
<pdfrwt beam="2">  1       -2 0.32268575E+00 0.32145681E+04</pdfrwt>
<totfact> 0.35143069E-01</totfact>
</mgrwt>
</event>
<event>
 6    1  0.1831439E-005  0.2187512E+04  0.7818608E-02  0.8523644E-01
         -1   -1    0    0    0  501 -0.00000000000E+00  0.00000000000E+00  0.36050855792E+03  0.36050855792E+03  0.00000000000E+00 0.  1.
          1   -1    0    0  501    0  0.00000000000E+00 -0.00000000000E+00 -0.33183745130E+04  0.33183745130E+04  0.00000000000E+00 0. -1.
         23    2    1    2    0    0  0.78732152931E+03  0.52827535857E+03 -0.23920594679E+04  0.25747603305E+04  0.92153223233E+02 0.  0.
         11    1    3    3    0    0  0.61167471170E+03  0.38627120314E+03 -0.17273060903E+04  0.18726819604E+04  0.00000000000E+00 0.  1.
        -11    1    3    3    0    0  0.17564681761E+03  0.14200415543E+03 -0.66475337763E+03  0.70207837010E+03  0.00000000000E+00 0. -1.
         22    1    1    2    0    0 -0.78732152931E+03 -0.52827535857E+03 -0.56580648719E+03  0.11041227404E+04  0.00000000000E+00 0.  1.
<mgrwt>
<rscale>  0 0.21875122E+04</rscale>
<asrwt>0</asrwt>
<pdfrwt beam="1">  1        1 0.51051916E+00 0.21875122E+04</pdfrwt>
<pdfrwt beam="2">  1       -1 0.55462854E-01 0.21875122E+04</pdfrwt>
<totfact> 0.10394745E+00</totfact>
</mgrwt>
</event>
<event>
 6    1  0.1831439E-005  0.4184915E+04  0.7818608E-02  0.7968248E-01
          1   -1    0    0  501    0  0.00000000000E+00  0.00000000000E+00  0.20081362298E+04  0.20081362298E+04  0.00000000000E+00 0. -1.
         -1   -1    0    0    0  501 -0.00000000000E+00 -0.00000000000E+00 -0.21803198497E+04  0.21803198497E+04  0.00000000000E+00 0.  1.
         23    2    1    2    0    0  0.18999321584E+04 -0.71809059631E+03  0.41314291097E+03  0.20746908469E+04  0.90877578653E+02 0.  0.
         11    1    3    3    0    0  0.10454464454E+04 -0.34732744947E+03  0.23111342561E+03  0.11256145179E+04  0.00000000000E+00 0.  1.
        -11    1    3    3    0    0  0.85448571296E+03 -0.37076314684E+03  0.18202948536E+03  0.94907632899E+03  0.00000000000E+00 0. -1.
         22    1    1    2    0    0 -0.18999321584E+04  0.71809059631E+03 -0.58532653090E+03  0.21137652327E+04  0.00000000000E+00 0.  1.
<mgrwt>
<rscale>  0 0.41849154E+04</rscale>
<asrwt>0</asrwt>
<pdfrwt beam="1">  1        1 0.30894403E+00 0.41849154E+04</pdfrwt>
<pdfrwt beam="2">  1       -1 0.33543382E+00 0.41849154E+04</pdfrwt>
<totfact> 0.43978142E-02</totfact>
</mgrwt>
</event>
<event>
 6    1  0.1831439E-005  0.7108993E+04  0.7818608E-02  0.7566298E-01
          2   -1    0    0  501    0  0.00000000000E+00  0.00000000000E+00  0.29287541361E+04  0.29287541361E+04  0.00000000000E+00 0. -1.
         -2   -1    0    0    0  501 -0.00000000000E+00 -0.00000000000E+00 -0.43139311263E+04  0.43139311263E+04  0.00000000000E+00 0.  1.
         23    2    1    2    0    0 -0.52408245636E+03  0.33829285711E+04  0.27972126054E+03  0.34360129198E+04  0.95250526217E+02 0.  0.
         11    1    3    3    0    0 -0.15280195365E+03  0.96482026739E+03  0.36831607561E+02  0.97753933564E+03  0.00000000000E+00 0.  1.
        -11    1    3    3    0    0 -0.37128050270E+03  0.24181083038E+04  0.24288965298E+03  0.24584735841E+04  0.00000000000E+00 0. -1.
         22    1    1    2    0    0  0.52408245636E+03 -0.33829285711E+04 -0.16648982508E+04  0.38066723426E+04  0.00000000000E+00 0. -1.
<mgrwt>
<rscale>  0 0.71089925E+04</rscale>
<asrwt>0</asrwt>
<pdfrwt beam="1">  1        2 0.45057756E+00 0.71089925E+04</pdfrwt>
<pdfrwt beam="2">  1       -2 0.66368170E+00 0.71089925E+04</pdfrwt>
<totfact> 0.37168793E-04</totfact>
</mgrwt>
</event>
<event>
 6    1  0.1831439E-005  0.2014779E+04  0.7818608E-02  0.8599742E-01
          1   -1    0    0  501    0  0.00000000000E+00  0.00000000000E+00  0.10583972347E+04  0.10583972347E+04  0.00000000000E+00 0. -1.
         -1   -1    0    0    0  501 -0.00000000000E+00 -0.00000000000E+00 -0.95883992223E+03  0.95883992223E+03  0.00000000000E+00 0.  1.
         23    2    1    2    0    0 -0.22564980889E+03 -0.65309482041E+03 -0.68115178296E+03  0.97466467868E+03  0.92481369630E+02 0.  0.
         11    1    3    3    0    0 -0.15278459135E+02 -0.78815859922E+02 -0.44290707159E+02  0.91689900368E+02  0.00000000000E+00 0. -1.
        -11    1    3    3    0    0 -0.21037134976E+03 -0.57427896049E+03 -0.63686107580E+03  0.88297477831E+03  0.00000000000E+00 0.  1.
         22    1    1    2    0    0  0.22564980889E+03  0.65309482041E+03  0.78070909542E+03  0.10425724782E+04  0.00000000000E+00 0. -1.
<mgrwt>
<rscale>  0 0.20147789E+04</rscale>
<asrwt>0</asrwt>
<pdfrwt beam="1">  1        1 0.16283034E+00 0.20147789E+04</pdfrwt>
<pdfrwt beam="2">  1       -1 0.14751383E+00 0.20147789E+04</pdfrwt>
<totfact> 0.46107549E+00</totfact>
</mgrwt>
</event>
<event>
 6    1  0.1831439E-005  0.4096884E+04  0.7818608E-02  0.7985282E-01
         -2   -1    0    0    0  501 -0.00000000000E+00  0.00000000000E+00  0.12060887953E+04  0.12060887953E+04  0.00000000000E+00 0.  1.
          2   -1    0    0  501    0  0.00000000000E+00 -0.00000000000E+00 -0.34791095877E+04  0.34791095877E+04  0.00000000000E+00 0. -1.
         23    2    1    2    0    0 -0.62830893421E+03 -0.39682120999E+03 -0.33188880983E+04  0.34022028214E+04  0.87901302437E+02 0.  0.
         11    1    3    3    0    0 -0.23389460538E+03 -0.16354179240E+03 -0.10938959228E+04  0.11305135533E+04  0.00000000000E+00 0. -1.
        -11    1    3    3    0    0 -0.39441432882E+03 -0.23327941759E+03 -0.22249921755E+04  0.22716892680E+04  0.00000000000E+00 0.  1.
         22    1    1    2    0    0  0.62830893421E+03  0.39682120999E+03  0.10458673060E+04  0.12829955616E+04  0.00000000000E+00 0.  1.
<mgrwt>
<rscale>  0 0.40968842E+04</rscale>
<asrwt>0</asrwt>
<pdfrwt beam="1">  1        2 0.53524763E+00 0.40968842E+04</pdfrwt>
<pdfrwt beam="2">  1       -2 0.18555212E+00 0.40968842E+04</pdfrwt>
<totfact> 0.10912382E-01</totfact>
</mgrwt>
</event>
<event>
 6    1  0.1831439E-005  0.3856913E+04  0.7818608E-02  0.8034051E-01
         -1   -1    0    0    0  501 -0.00000000000E+00  0.00000000000E+00  0.16440858572E+04  0.16440858572E+04  0.00000000000E+00 0.  1.
          1   -1    0    0  501    0  0.00000000000E+00 -0.00000000000E+00 -0.22620132760E+04  0.22620132760E+04  0.00000000000E+00 0. -1.
         23    2    1    2    0    0 -0.10137811707E+03  0.10437276790E+04  0.13286235362E+04  0.16950573853E+04  0.91291005654E+02 0.  0.
         13    1    3    3    0    0 -0.70108996353E+02  0.87020170178E+03  0.10526536550E+04  0.13675693732E+04  0.00000000000E+00 0. -1.
        -13    1    3    3    0    0 -0.31269120713E+02  0.17352597725E+03  0.27596988128E+03  0.32748801210E+03  0.00000000000E+00 0.  1.
         22    1    1    2    0    0  0.10137811707E+03 -0.10437276790E+04 -0.19465509550E+04  0.22110417479E+04  0.00000000000E+00 0. -1.
<mgrwt>
<rscale>  0 0.38569128E+04</rscale>
<asrwt>0</asrwt>
<pdfrwt beam="1">  1        1 0.34800204E+00 0.38569128E+04</pdfrwt>
<pdfrwt beam="2">  1       -1 0.25293628E+00 0.38569128E+04</pdfrwt>
<totfact> 0.10439381E-01</totfact>
</mgrwt>
</event>
<event>
 6    1  0.1831439E-005  0.2456432E+04  0.7818608E-02  0.8418673E-01
          1   -1    0    0  501    0  0.00000000000E+00  0.00000000000E+00  0.37175728701E+04  0.37175728701E+04  0.00000000000E+00 0. -1.
         -1   -1    0    0    0  501 -0.00000000000E+00 -0.00000000000E+00 -0.40577949075E+03  0.40577949075E+03  0.00000000000E+00 0.  1.
         23    2    1    2    0    0  0.36673178939E+03  0.66112748612E+03  0.37475903639E+02  0.76288562391E+03  0.94911925306E+02 0.  0.
         11    1    3    3    0    0  0.90925685594E+02  0.21277261080E+03  0.48327357512E+02  0.23637935124E+03  0.00000000000E+00 0. -1.
        -11    1    3    3    0    0  0.27580610380E+03  0.44835487532E+03 -0.10851453873E+02  0.52650627268E+03  0.00000000000E+00 0.  1.
         22    1    1    2    0    0 -0.36673178939E+03 -0.66112748612E+03  0.32743174757E+04  0.33604667369E+04  0.00000000000E+00 0. -1.
<mgrwt>
<rscale>  0 0.24564322E+04</rscale>
<asrwt>0</asrwt>
<pdfrwt beam="1">  1        1 0.57193427E+00 0.24564322E+04</pdfrwt>
<pdfrwt beam="2">  1       -1 0.62427616E-01 0.24564322E+04</pdfrwt>
<totfact> 0.38803950E-01</totfact>
</mgrwt>
</event>
<event>
 6    1  0.1831439E-005  0.1306516E+04  0.7818608E-02  0.9024414E-01
          2   -1    0    0  501    0  0.00000000000E+00  0.00000000000E+00  0.65849397002E+03  0.65849397002E+03  0.00000000000E+00 0. -1.
         -2   -1    0    0    0  501 -0.00000000000E+00 -0.00000000000E+00 -0.64806404710E+03  0.64806404710E+03  0.00000000000E+00 0.  1.
         23    2    1    2    0    0  0.43247176521E+03 -0.48227555142E+03  0.58916779201E+02  0.65696390506E+03  0.92243430575E+02 0.  0.
         13    1    3    3    0    0  0.74281002178E+02 -0.13067145075E+03  0.35779833164E+02  0.15450854923E+03  0.00000000000E+00 0. -1.
        -13    1    3    3    0    0  0.35819076303E+03 -0.35160410067E+03  0.23136946037E+02  0.50245535583E+03  0.00000000000E+00 0.  1.
         22    1    1    2    0    0 -0.43247176521E+03  0.48227555142E+03 -0.48486856278E+02  0.64959411206E+03  0.00000000000E+00 0.  1.
<mgrwt>
<rscale>  0 0.13065164E+04</rscale>
<asrwt>0</asrwt>
<pdfrwt beam="1">  1        2 0.10130676E+00 0.13065164E+04</pdfrwt>
<pdfrwt beam="2">  1       -2 0.99702161E-01 0.13065164E+04</pdfrwt>
<totfact> 0.36067808E+01</totfact>
</mgrwt>
</event>
<event>
 6    1  0.2279590E-005  0.5119392E+04  0.7818608E-02  0.7810349E-01
          1   -1    0    0  501    0  0.00000000000E+00  0.00000000000E+00  0.38114628235E+04  0.38114628235E+04  0.00000000000E+00 0. -1.
         -1   -1    0    0    0  501 -0.00000000000E+00 -0.00000000000E+00 -0.17190364055E+04  0.17190364055E+04  0.00000000000E+00 0.  1.
         23    2    1    2    0    0 -0.23509646098E+04 -0.10040125231E+04  0.92623201408E+03  0.27206798165E+04  0.95483908739E+02 0.  0.
         11    1    3    3    0    0 -0.10090393043E+04 -0.45188635929E+03  0.35466832592E+03  0.11610991434E+04  0.00000000000E+00 0.  1.
        -11    1    3    3    0    0 -0.13419253055E+04 -0.55212616383E+03  0.57156368816E+03  0.15595806731E+04  0.00000000000E+00 0. -1.
         22    1    1    2    0    0  0.23509646098E+04  0.10040125231E+04  0.11661944040E+04  0.28098194125E+04  0.00000000000E+00 0. -1.
<mgrwt>
<rscale>  0 0.51193919E+04</rscale>
<asrwt>0</asrwt>
<pdfrwt beam="1">  1        1 0.58637890E+00 0.51193919E+04</pdfrwt>
<pdfrwt beam="2">  1       -1 0.26446714E+00 0.51193919E+04</pdfrwt>
<totfact> 0.55819353E-03</totfact>
</mgrwt>
</event>
<event>
 6    1  0.1831439E-005  0.2376007E+04  0.7818608E-02  0.8448541E-01
          2   -1    0    0  501    0  0.00000000000E+00  0.00000000000E+00  0.24099599980E+04  0.24099599980E+04  0.00000000000E+00 0. -1.
         -2   -1    0    0    0  501 -0.00000000000E+00 -0.00000000000E+00 -0.58563331187E+03  0.58563331187E+03  0.00000000000E+00 0.  1.
         23    2    1    2    0    0  0.11890121026E+03  0.28864156990E+03  0.23564162214E+04  0.23786891624E+04  0.89516864301E+02 0.  0.
         11    1    3    3    0    0  0.10346697565E+03  0.14728142182E+03  0.14622886231E+04  0.14733245568E+04  0.00000000000E+00 0.  1.
        -11    1    3    3    0    0  0.15434234608E+02  0.14136014808E+03  0.89412759827E+03  0.90536460559E+03  0.00000000000E+00 0. -1.
         22    1    1    2    0    0 -0.11890121026E+03 -0.28864156990E+03 -0.53208953527E+03  0.61690414751E+03  0.00000000000E+00 0.  1.
<mgrwt>
<rscale>  0 0.23760075E+04</rscale>
<asrwt>0</asrwt>
<pdfrwt beam="1">  1        2 0.37076307E+00 0.23760075E+04</pdfrwt>
<pdfrwt beam="2">  1       -2 0.90097434E-01 0.23760075E+04</pdfrwt>
<totfact> 0.37261168E+00</totfact>
</mgrwt>
</event>
<event>
 6    1  0.1831439E-005  0.4334101E+04  0.7818608E-02  0.7940342E-01
          2   -1    0    0  501    0  0.00000000000E+00  0.00000000000E+00  0.33515930879E+04  0.33515930879E+04  0.00000000000E+00 0. -1.
         -2   -1    0    0    0  501 -0.00000000000E+00 -0.00000000000E+00 -0.14011570677E+04  0.14011570677E+04  0.00000000000E+00 0.  1.
         23    2    1    2    0    0 -0.19704790194E+04 -0.13296204513E+03  0.19511191187E+04  0.27777901717E+04  0.93733406232E+02 0.  0.
         13    1    3    3    0    0 -0.96686817664E+03 -0.11036604384E+03  0.94214283098E+03  0.13544917307E+04  0.00000000000E+00 0. -1.
        -13    1    3    3    0    0 -0.10036108427E+04 -0.22596001292E+02  0.10089762877E+04  0.14232984410E+04  0.00000000000E+00 0.  1.
         22    1    1    2    0    0  0.19704790194E+04  0.13296204513E+03 -0.68309849699E+00  0.19749599839E+04  0.00000000000E+00 0. -1.
<mgrwt>
<rscale>  0 0.43341012E+04</rscale>
<asrwt>0</asrwt>
<pdfrwt beam="1">  1        2 0.51562970E+00 0.43341012E+04</pdfrwt>
<pdfrwt beam="2">  1       -2 0.21556263E+00 0.43341012E+04</pdfrwt>
<totfact> 0.83181278E-02</totfact>
</mgrwt>
</event>
<event>
 6    1  0.1864203E-005  0.3501425E+04  0.7818608E-02  0.8113452E-01
          2   -1    0    0  501    0  0.00000000000E+00  0.00000000000E+00  0.18976793840E+04  0.18976793840E+04  0.00000000000E+00 0. -1.
         -2   -1    0    0    0  501 -0.00000000000E+00 -0.00000000000E+00 -0.16151271296E+04  0.16151271296E+04  0.00000000000E+00 0.  1.
         23    2    1    2    0    0  0.16856380084E+04  0.45994021351E+03  0.50924813991E+02  0.17502595592E+04  0.88852081244E+02 0.  0.
         11    1    3    3    0    0  0.10225055813E+04  0.31428437850E+03  0.57921455617E+02  0.10712829829E+04  0.00000000000E+00 0.  1.
        -11    1    3    3    0    0  0.66313242712E+03  0.14565583501E+03 -0.69966416259E+01  0.67897657630E+03  0.00000000000E+00 0. -1.
         22    1    1    2    0    0 -0.16856380084E+04 -0.45994021351E+03  0.23162744041E+03  0.17625469545E+04  0.00000000000E+00 0. -1.
<mgrwt>
<rscale>  0 0.35014245E+04</rscale>
<asrwt>0</asrwt>
<pdfrwt beam="1">  1        2 0.29195067E+00 0.35014245E+04</pdfrwt>
<pdfrwt beam="2">  1       -2 0.24848110E+00 0.35014245E+04</pdfrwt>
<totfact> 0.41089421E-01</totfact>
</mgrwt>
</event>
<event>
 6    1  0.1831439E-005  0.2033010E+04  0.7818608E-02  0.8591341E-01
          2   -1    0    0  501    0  0.00000000000E+00  0.00000000000E+00  0.13587998251E+04  0.13587998251E+04  0.00000000000E+00 0. -1.
         -2   -1    0    0    0  501 -0.00000000000E+00 -0.00000000000E+00 -0.76043762175E+03  0.76043762175E+03  0.00000000000E+00 0.  1.
         23    2    1    2    0    0 -0.58777659756E+03  0.23321200510E+03 -0.52737285719E+03  0.82805636177E+03  0.87670062229E+02 0.  0.
         13    1    3    3    0    0 -0.34972905189E+03  0.18451645648E+03 -0.32801568226E+03  0.51376163758E+03  0.00000000000E+00 0. -1.
        -13    1    3    3    0    0 -0.23804754567E+03  0.48695548616E+02 -0.19935717493E+03  0.31429472418E+03  0.00000000000E+00 0.  1.
         22    1    1    2    0    0  0.58777659756E+03 -0.23321200510E+03  0.11257350605E+04  0.12911810851E+04  0.00000000000E+00 0. -1.
<mgrwt>
<rscale>  0 0.20330101E+04</rscale>
<asrwt>0</asrwt>
<pdfrwt beam="1">  1        2 0.20904613E+00 0.20330101E+04</pdfrwt>
<pdfrwt beam="2">  1       -2 0.11699040E+00 0.20330101E+04</pdfrwt>
<totfact> 0.80073897E+00</totfact>
</mgrwt>
</event>
<event>
 6    1  0.1831439E-005  0.2821088E+04  0.7818608E-02  0.8296751E-01
         -2   -1    0    0    0  501 -0.00000000000E+00  0.00000000000E+00  0.15871739953E+04  0.15871739953E+04  0.00000000000E+00 0.  1.
          2   -1    0    0  501    0  0.00000000000E+00 -0.00000000000E+00 -0.12535699812E+04  0.12535699812E+04  0.00000000000E+00 0. -1.
         23    2    1    2    0    0  0.11410595925E+04  0.71241306323E+03  0.58904905917E+03  0.14715100530E+04  0.93881178701E+02 0.  0.
         11    1    3    3    0    0  0.69133057512E+03  0.42833753025E+03  0.30582008459E+03  0.86887106526E+03  0.00000000000E+00 0.  1.
        -11    1    3    3    0    0  0.44972901734E+03  0.28407553299E+03  0.28322897458E+03  0.60263898772E+03  0.00000000000E+00 0. -1.
         22    1    1    2    0    0 -0.11410595925E+04 -0.71241306323E+03 -0.25544504510E+03  0.13692339235E+04  0.00000000000E+00 0. -1.
<mgrwt>
<rscale>  0 0.28210875E+04</rscale>
<asrwt>0</asrwt>
<pdfrwt beam="1">  1        2 0.19285692E+00 0.28210875E+04</pdfrwt>
<pdfrwt beam="2">  1       -2 0.24418061E+00 0.28210875E+04</pdfrwt>
<totfact> 0.10671648E+00</totfact>
</mgrwt>
</event>
<event>
 6    1  0.1831439E-005  0.2608272E+04  0.7818608E-02  0.8365397E-01
          2   -1    0    0  501    0  0.00000000000E+00  0.00000000000E+00  0.90437435322E+03  0.90437435322E+03  0.00000000000E+00 0.  1.
         -2   -1    0    0    0  501 -0.00000000000E+00 -0.00000000000E+00 -0.18806047498E+04  0.18806047498E+04  0.00000000000E+00 0. -1.
         23    2    1    2    0    0 -0.11639880843E+04  0.48998614977E+03 -0.14854777248E+03  0.12750078405E+04  0.92864768216E+02 0.  0.
         13    1    3    3    0    0 -0.44977732379E+03  0.15418488077E+03 -0.87313060221E+02  0.48342133687E+03  0.00000000000E+00 0.  1.
        -13    1    3    3    0    0 -0.71421076054E+03  0.33580126900E+03 -0.61234712261E+02  0.79158650362E+03  0.00000000000E+00 0. -1.
         22    1    1    2    0    0  0.11639880843E+04 -0.48998614977E+03 -0.82768262413E+03  0.15099712626E+04  0.00000000000E+00 0. -1.
<mgrwt>
<rscale>  0 0.26082720E+04</rscale>
<asrwt>0</asrwt>
<pdfrwt beam="1">  1        2 0.13913452E+00 0.26082720E+04</pdfrwt>
<pdfrwt beam="2">  1       -2 0.28932380E+00 0.26082720E+04</pdfrwt>
<totfact> 0.95096440E-01</totfact>
</mgrwt>
</event>
<event>
 6    1  0.1831439E-005  0.9204289E+03  0.7818608E-02  0.9400398E-01
         -2   -1    0    0    0  501 -0.00000000000E+00  0.00000000000E+00  0.69876674991E+02  0.69876674991E+02  0.00000000000E+00 0.  1.
          2   -1    0    0  501    0  0.00000000000E+00 -0.00000000000E+00 -0.30310165497E+04  0.30310165497E+04  0.00000000000E+00 0. -1.
         23    2    1    2    0    0  0.26249327566E+03  0.36724428641E+01 -0.27502458186E+04  0.27641551818E+04  0.88236047813E+02 0.  0.
         13    1    3    3    0    0  0.10190073666E+03  0.20115062378E+02 -0.14893269906E+04  0.14929444935E+04  0.00000000000E+00 0.  1.
        -13    1    3    3    0    0  0.16059253899E+03 -0.16442619514E+02 -0.12609188280E+04  0.12712106883E+04  0.00000000000E+00 0. -1.
         22    1    1    2    0    0 -0.26249327566E+03 -0.36724428641E+01 -0.21089405620E+03  0.33673804291E+03  0.00000000000E+00 0.  1.
<mgrwt>
<rscale>  0 0.92042894E+03</rscale>
<asrwt>0</asrwt>
<pdfrwt beam="1">  1        2 0.46631016E+00 0.92042894E+03</pdfrwt>
<pdfrwt beam="2">  1       -2 0.10750259E-01 0.92042894E+03</pdfrwt>
<totfact> 0.10516823E+02</totfact>
</mgrwt>
</event>
<event>
 6    1  0.1831439E-005  0.8839731E+03  0.7818608E-02  0.9445841E-01
         -2   -1    0    0    0  501 -0.00000000000E+00  0.00000000000E+00  0.11376381225E+03  0.11376381225E+03  0.00000000000E+00 0.  1.
          2   -1    0    0  501    0  0.00000000000E+00 -0.00000000000E+00 -0.17171727738E+04  0.17171727738E+04  0.00000000000E+00 0. -1.
         23    2    1    2    0    0  0.17799662374E+03  0.19648233753E+03 -0.91265064415E+02  0.29572739096E+03  0.94006759089E+02 0.  0.
         11    1    3    3    0    0  0.17669705399E+03  0.16472039985E+03 -0.10193855051E+03  0.26219482660E+03  0.00000000000E+00 0. -1.
        -11    1    3    3    0    0  0.12995697489E+01  0.31761937689E+02  0.10673486093E+02  0.33532564362E+02  0.00000000000E+00 0.  1.
         22    1    1    2    0    0 -0.17799662374E+03 -0.19648233753E+03 -0.15121438971E+04  0.15352091951E+04  0.00000000000E+00 0. -1.
<mgrwt>
<rscale>  0 0.88397312E+03</rscale>
<asrwt>0</asrwt>
<pdfrwt beam="1">  1        2 0.26418041E+00 0.88397312E+03</pdfrwt>
<pdfrwt beam="2">  1       -2 0.17502126E-01 0.88397312E+03</pdfrwt>
<totfact> 0.26028379E+02</totfact>
</mgrwt>
</event>
<event>
 6    1  0.1831439E-005  0.2058179E+04  0.7818608E-02  0.8579893E-01
         -1   -1    0    0    0  501 -0.00000000000E+00  0.00000000000E+00  0.87417381201E+03  0.87417381201E+03  0.00000000000E+00 0.  1.
          1   -1    0    0  501    0  0.00000000000E+00 -0.00000000000E+00 -0.12114582310E+04  0.12114582310E+04  0.00000000000E+00 0. -1.
         23    2    1    2    0    0 -0.14626228791E+03  0.45067583391E+03 -0.10922893636E+04  0.11942657712E+04  0.93130630598E+02 0.  0.
         13    1    3    3    0    0 -0.76066999926E+02  0.36036269227E+03 -0.81883624628E+03  0.89785313758E+03  0.00000000000E+00 0.  1.
        -13    1    3    3    0    0 -0.70195287982E+02  0.90313141641E+02 -0.27345311731E+03  0.29641263363E+03  0.00000000000E+00 0. -1.
         22    1    1    2    0    0  0.14626228791E+03 -0.45067583391E+03  0.75500494460E+03  0.89136627180E+03  0.00000000000E+00 0.  1.
<mgrwt>
<rscale>  0 0.20581789E+04</rscale>
<asrwt>0</asrwt>
<pdfrwt beam="1">  1        1 0.18637819E+00 0.20581789E+04</pdfrwt>
<pdfrwt beam="2">  1       -1 0.13448828E+00 0.20581789E+04</pdfrwt>
<totfact> 0.45005189E+00</totfact>
</mgrwt>
</event>
<event>
 6    1  0.1831439E-005  0.3394735E+04  0.7818608E-02  0.8139200E-01
         -1   -1    0    0    0  501 -0.00000000000E+00  0.00000000000E+00  0.15171323574E+04  0.15171323574E+04  0.00000000000E+00 0.  1.
          1   -1    0    0  501    0  0.00000000000E+00 -0.00000000000E+00 -0.18990142699E+04  0.18990142699E+04  0.00000000000E+00 0. -1.
         23    2    1    2    0    0 -0.65420281128E+03  0.11884609010E+04  0.83335628897E+03  0.15948216925E+04  0.92481863393E+02 0.  0.
         13    1    3    3    0    0 -0.32011024556E+03  0.48663476541E+03  0.35674649292E+03  0.68304613639E+03  0.00000000000E+00 0. -1.
        -13    1    3    3    0    0 -0.33409256572E+03  0.70182613560E+03  0.47660979605E+03  0.91177555614E+03  0.00000000000E+00 0.  1.
         22    1    1    2    0    0  0.65420281128E+03 -0.11884609010E+04 -0.12152382015E+04  0.18213249347E+04  0.00000000000E+00 0. -1.
<mgrwt>
<rscale>  0 0.33947347E+04</rscale>
<asrwt>0</asrwt>
<pdfrwt beam="1">  1        1 0.29215604E+00 0.33947347E+04</pdfrwt>
<pdfrwt beam="2">  1       -1 0.23340498E+00 0.33947347E+04</pdfrwt>
<totfact> 0.25739321E-01</totfact>
</mgrwt>
</event>
<event>
 6    1  0.1831439E-005  0.2614217E+04  0.7818608E-02  0.8363388E-01
         -2   -1    0    0    0  501 -0.00000000000E+00  0.00000000000E+00  0.99100330434E+03  0.99100330434E+03  0.00000000000E+00 0.  1.
          2   -1    0    0  501    0  0.00000000000E+00 -0.00000000000E+00 -0.17240429863E+04  0.17240429863E+04  0.00000000000E+00 0. -1.
         23    2    1    2    0    0  0.34941887110E+02  0.72822588638E+03  0.75789257855E+03  0.10554038947E+04  0.89119824767E+02 0.  0.
         11    1    3    3    0    0  0.75883641665E+00  0.63382079685E+03  0.66381565262E+03  0.91781294337E+03  0.00000000000E+00 0. -1.
        -11    1    3    3    0    0  0.34183050693E+02  0.94405089530E+02  0.94076925936E+02  0.13759095129E+03  0.00000000000E+00 0.  1.
         22    1    1    2    0    0 -0.34941887110E+02 -0.72822588638E+03 -0.14909322605E+04  0.16596423959E+04  0.00000000000E+00 0. -1.
<mgrwt>
<rscale>  0 0.26142167E+04</rscale>
<asrwt>0</asrwt>
<pdfrwt beam="1">  1        2 0.26523738E+00 0.26142167E+04</pdfrwt>
<pdfrwt beam="2">  1       -2 0.15246205E+00 0.26142167E+04</pdfrwt>
<totfact> 0.24109950E+00</totfact>
</mgrwt>
</event>
<event>
 6    1  0.1831439E-005  0.3427457E+04  0.7818608E-02  0.8131200E-01
          2   -1    0    0  501    0  0.00000000000E+00  0.00000000000E+00  0.18966651872E+04  0.18966651872E+04  0.00000000000E+00 0. -1.
         -2   -1    0    0    0  501 -0.00000000000E+00 -0.00000000000E+00 -0.15484360145E+04  0.15484360145E+04  0.00000000000E+00 0.  1.
         23    2    1    2    0    0  0.10747624944E+04 -0.13393991121E+03 -0.11590281921E+04  0.15890626561E+04  0.93378025721E+02 0.  0.
         13    1    3    3    0    0  0.87695362626E+03 -0.11775071746E+03 -0.89264522536E+03  0.12568724647E+04  0.00000000000E+00 0. -1.
        -13    1    3    3    0    0  0.19780886817E+03 -0.16189193747E+02 -0.26638296669E+03  0.33219019140E+03  0.00000000000E+00 0.  1.
         22    1    1    2    0    0 -0.10747624944E+04  0.13393991121E+03  0.15072573647E+04  0.18560385456E+04  0.00000000000E+00 0. -1.
<mgrwt>
<rscale>  0 0.34274566E+04</rscale>
<asrwt>0</asrwt>
<pdfrwt beam="1">  1        2 0.29179464E+00 0.34274566E+04</pdfrwt>
<pdfrwt beam="2">  1       -2 0.23822093E+00 0.34274566E+04</pdfrwt>
<totfact> 0.47897674E-01</totfact>
</mgrwt>
</event>
<event>
 6    1  0.1831439E-005  0.2618620E+04  0.7818608E-02  0.8361904E-01
         -2   -1    0    0    0  501 -0.00000000000E+00  0.00000000000E+00  0.12984113423E+04  0.12984113423E+04  0.00000000000E+00 0.  1.
          2   -1    0    0  501    0  0.00000000000E+00 -0.00000000000E+00 -0.13203001687E+04  0.13203001687E+04  0.00000000000E+00 0. -1.
         23    2    1    2    0    0  0.69474154252E+03  0.11000360440E+04  0.12074249706E+03  0.13098613273E+04  0.91721520337E+02 0.  0.
         11    1    3    3    0    0  0.31288679672E+03  0.41732251917E+03  0.65111132729E+02  0.52563836634E+03  0.00000000000E+00 0. -1.
        -11    1    3    3    0    0  0.38185474580E+03  0.68271352478E+03  0.55631364329E+02  0.78422296097E+03  0.00000000000E+00 0.  1.
         22    1    1    2    0    0 -0.69474154252E+03 -0.11000360440E+04 -0.14263132351E+03  0.13088501837E+04  0.00000000000E+00 0. -1.
<mgrwt>
<rscale>  0 0.26186200E+04</rscale>
<asrwt>0</asrwt>
<pdfrwt beam="1">  1        2 0.20312310E+00 0.26186200E+04</pdfrwt>
<pdfrwt beam="2">  1       -2 0.19975559E+00 0.26186200E+04</pdfrwt>
<totfact> 0.18968007E+00</totfact>
</mgrwt>
</event>
<event>
 6    1  0.1831439E-005  0.1676177E+04  0.7818608E-02  0.8775070E-01
         -1   -1    0    0    0  501 -0.00000000000E+00  0.00000000000E+00  0.28112851565E+03  0.28112851565E+03  0.00000000000E+00 0.  1.
          1   -1    0    0  501    0  0.00000000000E+00 -0.00000000000E+00 -0.24984730067E+04  0.24984730067E+04  0.00000000000E+00 0. -1.
         23    2    1    2    0    0  0.57262046136E+03 -0.59782732642E+03 -0.13007667860E+04  0.15445280855E+04  0.91000386800E+02 0.  0.
         11    1    3    3    0    0  0.19313295615E+03 -0.17809793220E+03 -0.48741246998E+03  0.55370581367E+03  0.00000000000E+00 0. -1.
        -11    1    3    3    0    0  0.37948750521E+03 -0.41972939422E+03 -0.81335431598E+03  0.99082227181E+03  0.00000000000E+00 0.  1.
         22    1    1    2    0    0 -0.57262046136E+03  0.59782732642E+03 -0.91657770504E+03  0.12350734368E+04  0.00000000000E+00 0.  1.
<mgrwt>
<rscale>  0 0.16761766E+04</rscale>
<asrwt>0</asrwt>
<pdfrwt beam="1">  1        1 0.38438045E+00 0.16761766E+04</pdfrwt>
<pdfrwt beam="2">  1       -1 0.43250542E-01 0.16761766E+04</pdfrwt>
<totfact> 0.68394042E+00</totfact>
</mgrwt>
</event>
<event>
 6    1  0.1831439E-005  0.2666020E+04  0.7818608E-02  0.8346115E-01
          2   -1    0    0  501    0  0.00000000000E+00  0.00000000000E+00  0.19569482102E+04  0.19569482102E+04  0.00000000000E+00 0. -1.
         -2   -1    0    0    0  501 -0.00000000000E+00 -0.00000000000E+00 -0.90800345081E+03  0.90800345081E+03  0.00000000000E+00 0.  1.
         23    2    1    2    0    0  0.70535194631E+03  0.81890980871E+03 -0.31014178707E+03  0.11285038836E+04  0.95908520109E+02 0.  0.
         11    1    3    3    0    0  0.43346516997E+03  0.45470649155E+03 -0.14326775430E+03  0.64434128881E+03  0.00000000000E+00 0. -1.
        -11    1    3    3    0    0  0.27188677634E+03  0.36420331716E+03 -0.16687403277E+03  0.48416259479E+03  0.00000000000E+00 0.  1.
         22    1    1    2    0    0 -0.70535194631E+03 -0.81890980871E+03  0.13590865465E+04  0.17364477774E+04  0.00000000000E+00 0. -1.
<mgrwt>
<rscale>  0 0.26660201E+04</rscale>
<asrwt>0</asrwt>
<pdfrwt beam="1">  1        2 0.30106895E+00 0.26660201E+04</pdfrwt>
<pdfrwt beam="2">  1       -2 0.13969284E+00 0.26660201E+04</pdfrwt>
<totfact> 0.22436885E+00</totfact>
</mgrwt>
</event>
<event>
 6    1  0.1831439E-005  0.9444665E+03  0.7818608E-02  0.9371642E-01
          2   -1    0    0  501    0  0.00000000000E+00  0.00000000000E+00  0.95751144100E+03  0.95751144100E+03  0.00000000000E+00 0. -1.
         -2   -1    0    0    0  501 -0.00000000000E+00 -0.00000000000E+00 -0.23289980805E+03  0.23289980805E+03  0.00000000000E+00 0.  1.
         23    2    1    2    0    0 -0.95774938291E+02  0.45559926533E+03  0.30818132253E+03  0.56578517466E+03  0.91616630206E+02 0.  0.
         13    1    3    3    0    0 -0.49719035629E+02  0.19200298960E+03  0.18492831507E+03  0.27117450513E+03  0.00000000000E+00 0. -1.
        -13    1    3    3    0    0 -0.46055902662E+02  0.26359627574E+03  0.12325300746E+03  0.29461066953E+03  0.00000000000E+00 0.  1.
         22    1    1    2    0    0  0.95774938291E+02 -0.45559926533E+03  0.41643031041E+03  0.62462607439E+03  0.00000000000E+00 0. -1.
<mgrwt>
<rscale>  0 0.94446648E+03</rscale>
<asrwt>0</asrwt>
<pdfrwt beam="1">  1        2 0.14730945E+00 0.94446648E+03</pdfrwt>
<pdfrwt beam="2">  1       -2 0.35830740E-01 0.94446648E+03</pdfrwt>
<totfact> 0.19654403E+02</totfact>
</mgrwt>
</event>
<event>
 6    1  0.1831439E-005  0.4690577E+03  0.7818608E-02  0.1022186E+00
         -1   -1    0    0    0  501 -0.00000000000E+00  0.00000000000E+00  0.49776862405E+02  0.49776862405E+02  0.00000000000E+00 0.  1.
          1   -1    0    0  501    0  0.00000000000E+00 -0.00000000000E+00 -0.11050071527E+04  0.11050071527E+04  0.00000000000E+00 0. -1.
         23    2    1    2    0    0  0.21990653994E+03 -0.10887098053E+02 -0.67056572004E+03  0.71156370102E+03  0.90482597807E+02 0.  0.
         11    1    3    3    0    0  0.22944826670E+02  0.74817195997E+01 -0.19512828494E+03  0.19661507771E+03  0.00000000000E+00 0. -1.
        -11    1    3    3    0    0  0.19696171327E+03 -0.18368817653E+02 -0.47543743510E+03  0.51494862332E+03  0.00000000000E+00 0.  1.
         22    1    1    2    0    0 -0.21990653994E+03  0.10887098053E+02 -0.38466457030E+03  0.44322031413E+03  0.00000000000E+00 0.  1.
<mgrwt>
<rscale>  0 0.46905773E+03</rscale>
<asrwt>0</asrwt>
<pdfrwt beam="1">  1        1 0.17000110E+00 0.46905773E+03</pdfrwt>
<pdfrwt beam="2">  1       -1 0.76579788E-02 0.46905773E+03</pdfrwt>
<totfact> 0.12265394E+03</totfact>
</mgrwt>
</event>
<event>
 6    1  0.1831439E-005  0.2071345E+04  0.7818608E-02  0.8573972E-01
          2   -1    0    0  501    0  0.00000000000E+00  0.00000000000E+00  0.33972930833E+04  0.33972930833E+04  0.00000000000E+00 0. -1.
         -2   -1    0    0    0  501 -0.00000000000E+00 -0.00000000000E+00 -0.31572704218E+03  0.31572704218E+03  0.00000000000E+00 0.  1.
         23    2    1    2    0    0  0.81572846921E+03 -0.35518832263E+03  0.24867822903E+04  0.26428148226E+04  0.93874103508E+02 0.  0.
         13    1    3    3    0    0  0.23604248287E+03 -0.14816866526E+03  0.81230183867E+03  0.85878069622E+03  0.00000000000E+00 0. -1.
        -13    1    3    3    0    0  0.57968598634E+03 -0.20701965737E+03  0.16744804517E+04  0.17840341264E+04  0.00000000000E+00 0.  1.
         22    1    1    2    0    0 -0.81572846921E+03  0.35518832263E+03  0.59478375079E+03  0.10702053028E+04  0.00000000000E+00 0. -1.
<mgrwt>
<rscale>  0 0.20713448E+04</rscale>
<asrwt>0</asrwt>
<pdfrwt beam="1">  1        2 0.52266045E+00 0.20713448E+04</pdfrwt>
<pdfrwt beam="2">  1       -2 0.48573393E-01 0.20713448E+04</pdfrwt>
<totfact> 0.35649050E+00</totfact>
</mgrwt>
</event>
<event>
 6    1  0.1831439E-005  0.2921046E+04  0.7818608E-02  0.8266643E-01
         -2   -1    0    0    0  501 -0.00000000000E+00  0.00000000000E+00  0.12534533684E+04  0.12534533684E+04  0.00000000000E+00 0.  1.
          2   -1    0    0  501    0  0.00000000000E+00 -0.00000000000E+00 -0.17018002485E+04  0.17018002485E+04  0.00000000000E+00 0. -1.
         23    2    1    2    0    0  0.83382808566E+03  0.33882202126E+03  0.93774196727E+03  0.13025854919E+04  0.85436104150E+02 0.  0.
         13    1    3    3    0    0  0.20418862039E+03  0.44696651869E+02  0.22550487636E+03  0.30747883284E+03  0.00000000000E+00 0. -1.
        -13    1    3    3    0    0  0.62963946527E+03  0.29412536939E+03  0.71223709091E+03  0.99510665901E+03  0.00000000000E+00 0.  1.
         22    1    1    2    0    0 -0.83382808566E+03 -0.33882202126E+03 -0.13860888475E+04  0.16526681251E+04  0.00000000000E+00 0. -1.
<mgrwt>
<rscale>  0 0.29210459E+04</rscale>
<asrwt>0</asrwt>
<pdfrwt beam="1">  1        2 0.26181542E+00 0.29210459E+04</pdfrwt>
<pdfrwt beam="2">  1       -2 0.19283898E+00 0.29210459E+04</pdfrwt>
<totfact> 0.12508265E+00</totfact>
</mgrwt>
</event>
<event>
 6    1  0.1831439E-005  0.7569503E+03  0.7818608E-02  0.9624509E-01
         -1   -1    0    0    0  501 -0.00000000000E+00  0.00000000000E+00  0.12037379053E+03  0.12037379053E+03  0.00000000000E+00 0.  1.
          1   -1    0    0  501    0  0.00000000000E+00 -0.00000000000E+00 -0.11899885629E+04  0.11899885629E+04  0.00000000000E+00 0. -1.
         23    2    1    2    0    0  0.74024486370E+02 -0.19419401463E+03 -0.54254433758E+01  0.22607001838E+03  0.88810347772E+02 0.  0.
         11    1    3    3    0    0  0.94589398446E+02 -0.15731404719E+03 -0.54185892925E+00  0.18356240724E+03  0.00000000000E+00 0. -1.
        -11    1    3    3    0    0 -0.20564912076E+02 -0.36879967443E+02 -0.48835844466E+01  0.42507611134E+02  0.00000000000E+00 0.  1.
         22    1    1    2    0    0 -0.74024486370E+02  0.19419401463E+03 -0.10641893290E+04  0.10842923350E+04  0.00000000000E+00 0. -1.
<mgrwt>
<rscale>  0 0.75695029E+03</rscale>
<asrwt>0</asrwt>
<pdfrwt beam="1">  1        1 0.18307516E+00 0.75695029E+03</pdfrwt>
<pdfrwt beam="2">  1       -1 0.18519045E-01 0.75695029E+03</pdfrwt>
<totfact> 0.25599683E+02</totfact>
</mgrwt>
</event>
<event>
 6    1  0.1831439E-005  0.1405424E+04  0.7818608E-02  0.8949902E-01
          2   -1    0    0  501    0  0.00000000000E+00  0.00000000000E+00  0.23073285670E+04  0.23073285670E+04  0.00000000000E+00 0. -1.
         -2   -1    0    0    0  501 -0.00000000000E+00 -0.00000000000E+00 -0.21401552701E+03  0.21401552701E+03  0.00000000000E+00 0.  1.
         23    2    1    2    0    0  0.59202335717E+03  0.12688586618E+03  0.16804538955E+04  0.17885109945E+04  0.90854852686E+02 0.  0.
         11    1    3    3    0    0  0.39011303434E+03  0.68323515085E+02  0.97410851780E+03  0.10515434783E+04  0.00000000000E+00 0. -1.
        -11    1    3    3    0    0  0.20191032283E+03  0.58562351094E+02  0.70634537769E+03  0.73696751626E+03  0.00000000000E+00 0.  1.
         22    1    1    2    0    0 -0.59202335717E+03 -0.12688586618E+03  0.41285914452E+03  0.73283309948E+03  0.00000000000E+00 0.  1.
<mgrwt>
<rscale>  0 0.14054240E+04</rscale>
<asrwt>0</asrwt>
<pdfrwt beam="1">  1        2 0.35497361E+00 0.14054240E+04</pdfrwt>
<pdfrwt beam="2">  1       -2 0.32925467E-01 0.14054240E+04</pdfrwt>
<totfact> 0.37683984E+01</totfact>
</mgrwt>
</event>
<event>
 6    1  0.1831439E-005  0.1314257E+04  0.7818608E-02  0.9018335E-01
          1   -1    0    0  501    0  0.00000000000E+00  0.00000000000E+00  0.72102571502E+03  0.72102571502E+03  0.00000000000E+00 0. -1.
         -1   -1    0    0    0  501 -0.00000000000E+00 -0.00000000000E+00 -0.59889406343E+03  0.59889406343E+03  0.00000000000E+00 0.  1.
         23    2    1    2    0    0  0.38837665176E+03 -0.17606730251E+03  0.55931780921E+03  0.70920883614E+03  0.91129813511E+02 0.  0.
         11    1    3    3    0    0  0.25718574482E+03 -0.82535643828E+02  0.39973357773E+03  0.48243504538E+03  0.00000000000E+00 0.  1.
        -11    1    3    3    0    0  0.13119090694E+03 -0.93531658683E+02  0.15958423148E+03  0.22677379076E+03  0.00000000000E+00 0. -1.
         22    1    1    2    0    0 -0.38837665176E+03  0.17606730251E+03 -0.43718615762E+03  0.61071094231E+03  0.00000000000E+00 0.  1.
<mgrwt>
<rscale>  0 0.13142572E+04</rscale>
<asrwt>0</asrwt>
<pdfrwt beam="1">  1        1 0.11092703E+00 0.13142572E+04</pdfrwt>
<pdfrwt beam="2">  1       -1 0.92137548E-01 0.13142572E+04</pdfrwt>
<totfact> 0.29316231E+01</totfact>
</mgrwt>
</event>
<event>
 6    1  0.1831439E-005  0.2092079E+04  0.7818608E-02  0.8564741E-01
         -2   -1    0    0    0  501 -0.00000000000E+00  0.00000000000E+00  0.79407903539E+03  0.79407903539E+03  0.00000000000E+00 0.  1.
          2   -1    0    0  501    0  0.00000000000E+00 -0.00000000000E+00 -0.13779466830E+04  0.13779466830E+04  0.00000000000E+00 0. -1.
         23    2    1    2    0    0  0.26507724410E+03 -0.82594898462E+03  0.31077174393E+03  0.92589678789E+03  0.90819130487E+02 0.  0.
         13    1    3    3    0    0  0.16499483057E+03 -0.36692985980E+03  0.14886709189E+03  0.42897811970E+03  0.00000000000E+00 0. -1.
        -13    1    3    3    0    0  0.10008241353E+03 -0.45901912482E+03  0.16190465204E+03  0.49691866819E+03  0.00000000000E+00 0.  1.
         22    1    1    2    0    0 -0.26507724410E+03  0.82594898462E+03 -0.89463939154E+03  0.12461289305E+04  0.00000000000E+00 0.  1.
<mgrwt>
<rscale>  0 0.20920789E+04</rscale>
<asrwt>0</asrwt>
<pdfrwt beam="1">  1        2 0.21199179E+00 0.20920789E+04</pdfrwt>
<pdfrwt beam="2">  1       -2 0.12216601E+00 0.20920789E+04</pdfrwt>
<totfact> 0.69783152E+00</totfact>
</mgrwt>
</event>
<event>
 6    1  0.1831439E-005  0.1480354E+04  0.7818608E-02  0.8897624E-01
         -3   -1    0    0    0  501 -0.00000000000E+00  0.00000000000E+00  0.90739659781E+03  0.90739659781E+03  0.00000000000E+00 0.  1.
          3   -1    0    0  501    0  0.00000000000E+00 -0.00000000000E+00 -0.60377319962E+03  0.60377319962E+03  0.00000000000E+00 0. -1.
         23    2    1    2    0    0  0.46733755557E+03  0.11650335399E+03 -0.41752458268E+03  0.64397210795E+03  0.91629014766E+02 0.  0.
         11    1    3    3    0    0  0.31323891731E+03  0.57672914931E+02 -0.22238066050E+03  0.38845584382E+03  0.00000000000E+00 0.  1.
        -11    1    3    3    0    0  0.15409863825E+03  0.58830439062E+02 -0.19514392218E+03  0.25551626413E+03  0.00000000000E+00 0. -1.
         22    1    1    2    0    0 -0.46733755557E+03 -0.11650335399E+03  0.72114798086E+03  0.86719768948E+03  0.00000000000E+00 0.  1.
<mgrwt>
<rscale>  0 0.14803537E+04</rscale>
<asrwt>0</asrwt>
<pdfrwt beam="1">  1        3 0.92888185E-01 0.14803537E+04</pdfrwt>
<pdfrwt beam="2">  1       -3 0.13959948E+00 0.14803537E+04</pdfrwt>
<totfact> 0.10205722E+00</totfact>
</mgrwt>
</event>
<event>
 6    1  0.1831439E-005  0.1676314E+04  0.7818608E-02  0.8774990E-01
          1   -1    0    0  501    0  0.00000000000E+00  0.00000000000E+00  0.20813802776E+04  0.20813802776E+04  0.00000000000E+00 0. -1.
         -1   -1    0    0    0  501 -0.00000000000E+00 -0.00000000000E+00 -0.33751974860E+03  0.33751974860E+03  0.00000000000E+00 0.  1.
         23    2    1    2    0    0  0.74348002576E+03  0.32385646433E+03  0.58375933637E+03  0.10034565143E+04  0.92219602705E+02 0.  0.
         13    1    3    3    0    0  0.66490039495E+03  0.31834994850E+03  0.52031976363E+03  0.90231473519E+03  0.00000000000E+00 0. -1.
        -13    1    3    3    0    0  0.78579630812E+02  0.55065158312E+01  0.63439572737E+02  0.10114177912E+03  0.00000000000E+00 0.  1.
         22    1    1    2    0    0 -0.74348002576E+03 -0.32385646433E+03  0.11601011927E+04  0.14154435119E+04  0.00000000000E+00 0. -1.
<mgrwt>
<rscale>  0 0.16763138E+04</rscale>
<asrwt>0</asrwt>
<pdfrwt beam="1">  1        1 0.32021234E+00 0.16763138E+04</pdfrwt>
<pdfrwt beam="2">  1       -1 0.51926116E-01 0.16763138E+04</pdfrwt>
<totfact> 0.93453929E+00</totfact>
</mgrwt>
</event>
<event>
 6    1  0.1831439E-005  0.1209065E+04  0.7818608E-02  0.9104959E-01
          1   -1    0    0  501    0  0.00000000000E+00  0.00000000000E+00  0.52975656726E+03  0.52975656726E+03  0.00000000000E+00 0. -1.
         -1   -1    0    0    0  501 -0.00000000000E+00 -0.00000000000E+00 -0.68986340194E+03  0.68986340194E+03  0.00000000000E+00 0.  1.
         23    2    1    2    0    0  0.30080969958E+03  0.50009703461E+03 -0.22564005872E+03  0.63235672088E+03  0.91531781104E+02 0.  0.
         13    1    3    3    0    0  0.18018530864E+03  0.25654137177E+03 -0.77995464488E+02  0.32305342184E+03  0.00000000000E+00 0.  1.
        -13    1    3    3    0    0  0.12062439094E+03  0.24355566284E+03 -0.14764459424E+03  0.30930329904E+03  0.00000000000E+00 0. -1.
         22    1    1    2    0    0 -0.30080969958E+03 -0.50009703461E+03  0.65533224042E+02  0.58726324833E+03  0.00000000000E+00 0. -1.
<mgrwt>
<rscale>  0 0.12090652E+04</rscale>
<asrwt>0</asrwt>
<pdfrwt beam="1">  1        1 0.81501011E-01 0.12090652E+04</pdfrwt>
<pdfrwt beam="2">  1       -1 0.10613283E+00 0.12090652E+04</pdfrwt>
<totfact> 0.33600755E+01</totfact>
</mgrwt>
</event>
<event>
 6    1  0.1831439E-005  0.1703239E+04  0.7818608E-02  0.8759519E-01
         -1   -1    0    0    0  501 -0.00000000000E+00  0.00000000000E+00  0.18502078874E+03  0.18502078874E+03  0.00000000000E+00 0.  1.
          1   -1    0    0  501    0  0.00000000000E+00 -0.00000000000E+00 -0.39198588977E+04  0.39198588977E+04  0.00000000000E+00 0. -1.
         23    2    1    2    0    0  0.38474873007E+03  0.66230338188E+03 -0.98930861719E+03  0.12545096148E+04  0.91572259607E+02 0.  0.
         11    1    3    3    0    0  0.13804799945E+03  0.32224828526E+03 -0.42324837825E+03  0.54958202045E+03  0.00000000000E+00 0. -1.
        -11    1    3    3    0    0  0.24670073062E+03  0.34005509663E+03 -0.56606023893E+03  0.70492759439E+03  0.00000000000E+00 0.  1.
         22    1    1    2    0    0 -0.38474873007E+03 -0.66230338188E+03 -0.27455294918E+04  0.28503700716E+04  0.00000000000E+00 0.  1.
<mgrwt>
<rscale>  0 0.17032385E+04</rscale>
<asrwt>0</asrwt>
<pdfrwt beam="1">  1        1 0.60305516E+00 0.17032385E+04</pdfrwt>
<pdfrwt beam="2">  1       -1 0.28464739E-01 0.17032385E+04</pdfrwt>
<totfact> 0.12148136E+00</totfact>
</mgrwt>
</event>
<event>
 6    1  0.1831439E-005  0.3272435E+04  0.7818608E-02  0.8169945E-01
          1   -1    0    0  501    0  0.00000000000E+00  0.00000000000E+00  0.16227877597E+04  0.16227877597E+04  0.00000000000E+00 0. -1.
         -1   -1    0    0    0  501 -0.00000000000E+00 -0.00000000000E+00 -0.16497584422E+04  0.16497584422E+04  0.00000000000E+00 0.  1.
         23    2    1    2    0    0  0.14420458741E+04 -0.58538209943E+03 -0.51424745410E+03  0.16417159969E+04  0.92803367281E+02 0.  0.
         11    1    3    3    0    0  0.21819402045E+03 -0.54111727690E+02 -0.80807497047E+02  0.23888608418E+03  0.00000000000E+00 0. -1.
        -11    1    3    3    0    0  0.12238518537E+04 -0.53127037174E+03 -0.43343995705E+03  0.14028299127E+04  0.00000000000E+00 0.  1.
         22    1    1    2    0    0 -0.14420458741E+04  0.58538209943E+03  0.48727677166E+03  0.16308302050E+04  0.00000000000E+00 0. -1.
<mgrwt>
<rscale>  0 0.32724351E+04</rscale>
<asrwt>0</asrwt>
<pdfrwt beam="1">  1        1 0.24965966E+00 0.32724351E+04</pdfrwt>
<pdfrwt beam="2">  1       -1 0.25380899E+00 0.32724351E+04</pdfrwt>
<totfact> 0.29468707E-01</totfact>
</mgrwt>
</event>
<event>
 6    1  0.1831439E-005  0.2464682E+04  0.7818608E-02  0.8415677E-01
         -2   -1    0    0    0  501 -0.00000000000E+00  0.00000000000E+00  0.58637288585E+03  0.58637288585E+03  0.00000000000E+00 0.  1.
          2   -1    0    0  501    0  0.00000000000E+00 -0.00000000000E+00 -0.25899292033E+04  0.25899292033E+04  0.00000000000E+00 0. -1.
         23    2    1    2    0    0 -0.99277038465E+03 -0.18039386887E+03 -0.94641379053E+02  0.10171144580E+04  0.86196551383E+02 0.  0.
         13    1    3    3    0    0 -0.22889722578E+03 -0.36956689427E+02  0.14255193882E+02  0.23229926263E+03  0.00000000000E+00 0. -1.
        -13    1    3    3    0    0 -0.76387315886E+03 -0.14343717944E+03 -0.10889657293E+03  0.78481519536E+03  0.00000000000E+00 0.  1.
         22    1    1    2    0    0  0.99277038465E+03  0.18039386887E+03 -0.19089149384E+04  0.21591876312E+04  0.00000000000E+00 0. -1.
<mgrwt>
<rscale>  0 0.24646819E+04</rscale>
<asrwt>0</asrwt>
<pdfrwt beam="1">  1        2 0.39845064E+00 0.24646819E+04</pdfrwt>
<pdfrwt beam="2">  1       -2 0.90211214E-01 0.24646819E+04</pdfrwt>
<totfact> 0.29000534E+00</totfact>
</mgrwt>
</event>
<event>
 6    1  0.1831439E-005  0.7508346E+03  0.7818608E-02  0.9634042E-01
          1   -1    0    0  501    0  0.00000000000E+00  0.00000000000E+00  0.16170078552E+03  0.16170078552E+03  0.00000000000E+00 0. -1.
         -1   -1    0    0    0  501 -0.00000000000E+00 -0.00000000000E+00 -0.87159847832E+03  0.87159847832E+03  0.00000000000E+00 0.  1.
         23    2    1    2    0    0  0.34115077634E+03  0.10355842969E+03 -0.22487009313E+03  0.43133583222E+03  0.91519619859E+02 0.  0.
         13    1    3    3    0    0  0.23623816119E+03  0.31725179087E+02 -0.17044115185E+03  0.29302754484E+03  0.00000000000E+00 0. -1.
        -13    1    3    3    0    0  0.10491261514E+03  0.71833250608E+02 -0.54428941273E+02  0.13830828738E+03  0.00000000000E+00 0.  1.
         22    1    1    2    0    0 -0.34115077634E+03 -0.10355842969E+03 -0.48502759967E+03  0.60196343161E+03  0.00000000000E+00 0.  1.
<mgrwt>
<rscale>  0 0.75083463E+03</rscale>
<asrwt>0</asrwt>
<pdfrwt beam="1">  1        1 0.24877044E-01 0.75083463E+03</pdfrwt>
<pdfrwt beam="2">  1       -1 0.13409207E+00 0.75083463E+03</pdfrwt>
<totfact> 0.93594522E+01</totfact>
</mgrwt>
</event>
<event>
 6    1  0.1831439E-005  0.2864557E+04  0.7818608E-02  0.8283502E-01
         -1   -1    0    0    0  501 -0.00000000000E+00  0.00000000000E+00  0.12326980209E+04  0.12326980209E+04  0.00000000000E+00 0.  1.
          1   -1    0    0  501    0  0.00000000000E+00 -0.00000000000E+00 -0.16641721913E+04  0.16641721913E+04  0.00000000000E+00 0. -1.
         23    2    1    2    0    0 -0.14637184017E+03 -0.13904273922E+04  0.91192261557E+02  0.14042573194E+04  0.94390370775E+02 0.  0.
         11    1    3    3    0    0 -0.68693821825E+02 -0.28587015475E+03  0.18858382246E+02  0.29461199078E+03  0.00000000000E+00 0. -1.
        -11    1    3    3    0    0 -0.77678018342E+02 -0.11045572374E+04  0.72333879311E+02  0.11096453287E+04  0.00000000000E+00 0.  1.
         22    1    1    2    0    0  0.14637184017E+03  0.13904273922E+04 -0.52266643199E+03  0.14926128928E+04  0.00000000000E+00 0. -1.
<mgrwt>
<rscale>  0 0.28645570E+04</rscale>
<asrwt>0</asrwt>
<pdfrwt beam="1">  1        1 0.25602649E+00 0.28645570E+04</pdfrwt>
<pdfrwt beam="2">  1       -1 0.18964585E+00 0.28645570E+04</pdfrwt>
<totfact> 0.77156338E-01</totfact>
</mgrwt>
</event>
<event>
 6    1  0.1831439E-005  0.1866269E+04  0.7818608E-02  0.8671831E-01
         -1   -1    0    0    0  501 -0.00000000000E+00  0.00000000000E+00  0.61416711075E+03  0.61416711075E+03  0.00000000000E+00 0.  1.
          1   -1    0    0  501    0  0.00000000000E+00 -0.00000000000E+00 -0.14177579731E+04  0.14177579731E+04  0.00000000000E+00 0. -1.
         23    2    1    2    0    0  0.91187076333E+03 -0.13031104991E+03 -0.25612103493E+03  0.96037831835E+03  0.90770430622E+02 0.  0.
         11    1    3    3    0    0  0.59148387214E+03 -0.93751145485E+02 -0.21005667213E+03  0.63463867971E+03  0.00000000000E+00 0. -1.
        -11    1    3    3    0    0  0.32038689119E+03 -0.36559904423E+02 -0.46064362799E+02  0.32573963864E+03  0.00000000000E+00 0.  1.
         22    1    1    2    0    0 -0.91187076333E+03  0.13031104991E+03 -0.54746982745E+03  0.10715467655E+04  0.00000000000E+00 0. -1.
<mgrwt>
<rscale>  0 0.18662693E+04</rscale>
<asrwt>0</asrwt>
<pdfrwt beam="1">  1        1 0.21811661E+00 0.18662693E+04</pdfrwt>
<pdfrwt beam="2">  1       -1 0.94487249E-01 0.18662693E+04</pdfrwt>
<totfact> 0.75921485E+00</totfact>
</mgrwt>
</event>
<event>
 6    1  0.1831439E-005  0.1293182E+04  0.7818608E-02  0.9034990E-01
          1   -1    0    0  501    0  0.00000000000E+00  0.00000000000E+00  0.11769171270E+04  0.11769171270E+04  0.00000000000E+00 0. -1.
         -1   -1    0    0    0  501 -0.00000000000E+00 -0.00000000000E+00 -0.35523283037E+03  0.35523283037E+03  0.00000000000E+00 0.  1.
         23    2    1    2    0    0  0.43267360808E+03 -0.42478790195E+03  0.15815304508E+03  0.63330351076E+03  0.91704625312E+02 0.  0.
         11    1    3    3    0    0  0.44012971302E+02 -0.89566361653E+02  0.31553074125E+02  0.10466552092E+03  0.00000000000E+00 0.  1.
        -11    1    3    3    0    0  0.38866063677E+03 -0.33522154030E+03  0.12659997095E+03  0.52863798984E+03  0.00000000000E+00 0. -1.
         22    1    1    2    0    0 -0.43267360808E+03  0.42478790195E+03  0.66353125152E+03  0.89884644657E+03  0.00000000000E+00 0.  1.
<mgrwt>
<rscale>  0 0.12931815E+04</rscale>
<asrwt>0</asrwt>
<pdfrwt beam="1">  1        1 0.18106417E+00 0.12931815E+04</pdfrwt>
<pdfrwt beam="2">  1       -1 0.54651205E-01 0.12931815E+04</pdfrwt>
<totfact> 0.36941485E+01</totfact>
</mgrwt>
</event>
<event>
 6    1  0.1831439E-005  0.1727082E+04  0.7818608E-02  0.8746067E-01
         -1   -1    0    0    0  501 -0.00000000000E+00  0.00000000000E+00  0.52083742506E+03  0.52083742506E+03  0.00000000000E+00 0.  1.
          1   -1    0    0  501    0  0.00000000000E+00 -0.00000000000E+00 -0.14317393351E+04  0.14317393351E+04  0.00000000000E+00 0. -1.
         23    2    1    2    0    0  0.82639750416E+03  0.23707309724E+03 -0.51490091287E+03  0.10060286747E+04  0.88511332240E+02 0.  0.
         11    1    3    3    0    0  0.56249074574E+03  0.17235705483E+03 -0.39761664852E+03  0.71007168129E+03  0.00000000000E+00 0.  1.
        -11    1    3    3    0    0  0.26390675842E+03  0.64716042413E+02 -0.11728426435E+03  0.29595699341E+03  0.00000000000E+00 0. -1.
         22    1    1    2    0    0 -0.82639750416E+03 -0.23707309724E+03 -0.39600099718E+03  0.94654808546E+03  0.00000000000E+00 0. -1.
<mgrwt>
<rscale>  0 0.17270824E+04</rscale>
<asrwt>0</asrwt>
<pdfrwt beam="1">  1        1 0.22026759E+00 0.17270824E+04</pdfrwt>
<pdfrwt beam="2">  1       -1 0.80128834E-01 0.17270824E+04</pdfrwt>
<totfact> 0.10772733E+01</totfact>
</mgrwt>
</event>
<event>
 6    1  0.1831439E-005  0.3820577E+04  0.7818608E-02  0.8041753E-01
          2   -1    0    0  501    0  0.00000000000E+00  0.00000000000E+00  0.37055536881E+04  0.37055536881E+04  0.00000000000E+00 0. -1.
         -2   -1    0    0    0  501 -0.00000000000E+00 -0.00000000000E+00 -0.98479282158E+03  0.98479282158E+03  0.00000000000E+00 0.  1.
         23    2    1    2    0    0 -0.74461840129E+03  0.81474327222E+03 -0.55142390804E+03  0.12370211033E+04  0.88824099078E+02 0.  0.
         13    1    3    3    0    0 -0.22163018894E+03  0.27704148783E+03 -0.13916487909E+03  0.38110207321E+03  0.00000000000E+00 0.  1.
        -13    1    3    3    0    0 -0.52298821234E+03  0.53770178439E+03 -0.41225902895E+03  0.85591903013E+03  0.00000000000E+00 0. -1.
         22    1    1    2    0    0  0.74461840129E+03 -0.81474327222E+03  0.32721847746E+04  0.34533254064E+04  0.00000000000E+00 0. -1.
<mgrwt>
<rscale>  0 0.38205773E+04</rscale>
<asrwt>0</asrwt>
<pdfrwt beam="1">  1        2 0.57008518E+00 0.38205773E+04</pdfrwt>
<pdfrwt beam="2">  1       -2 0.15150659E+00 0.38205773E+04</pdfrwt>
<totfact> 0.13471599E-01</totfact>
</mgrwt>
</event>
<event>
 6    1  0.1831439E-005  0.1333949E+04  0.7818608E-02  0.9003068E-01
         -1   -1    0    0    0  501 -0.00000000000E+00  0.00000000000E+00  0.50009789728E+03  0.50009789728E+03  0.00000000000E+00 0.  1.
          1   -1    0    0  501    0  0.00000000000E+00 -0.00000000000E+00 -0.88953592921E+03  0.88953592921E+03  0.00000000000E+00 0. -1.
         23    2    1    2    0    0  0.35863815907E+03 -0.26498940996E+02 -0.77681095895E+03  0.86106849694E+03  0.93167416221E+02 0.  0.
         13    1    3    3    0    0  0.26361560363E+03 -0.67172354560E+01 -0.46580164723E+03  0.53526580527E+03  0.00000000000E+00 0.  1.
        -13    1    3    3    0    0  0.95022555444E+02 -0.19781705540E+02 -0.31100931172E+03  0.32580269166E+03  0.00000000000E+00 0. -1.
         22    1    1    2    0    0 -0.35863815907E+03  0.26498940996E+02  0.38737292702E+03  0.52856532955E+03  0.00000000000E+00 0.  1.
<mgrwt>
<rscale>  0 0.13339491E+04</rscale>
<asrwt>0</asrwt>
<pdfrwt beam="1">  1        1 0.13685168E+00 0.13339491E+04</pdfrwt>
<pdfrwt beam="2">  1       -1 0.76938138E-01 0.13339491E+04</pdfrwt>
<totfact> 0.30834106E+01</totfact>
</mgrwt>
</event>
<event>
 6    1  0.1831439E-005  0.9346213E+03  0.7818608E-02  0.9383309E-01
         -2   -1    0    0    0  501 -0.00000000000E+00  0.00000000000E+00  0.23716785306E+03  0.23716785306E+03  0.00000000000E+00 0.  1.
          2   -1    0    0  501    0  0.00000000000E+00 -0.00000000000E+00 -0.92077924544E+03  0.92077924544E+03  0.00000000000E+00 0. -1.
         23    2    1    2    0    0 -0.19693830393E+03 -0.36331800397E+03 -0.60316501357E+03  0.73692894281E+03  0.92041108167E+02 0.  0.
         11    1    3    3    0    0 -0.83806471092E+02 -0.24795110578E+03 -0.37962796434E+03  0.46110808577E+03  0.00000000000E+00 0.  1.
        -11    1    3    3    0    0 -0.11313183284E+03 -0.11536689819E+03 -0.22353704923E+03  0.27582085704E+03  0.00000000000E+00 0. -1.
         22    1    1    2    0    0  0.19693830393E+03  0.36331800397E+03 -0.80446378808E+02  0.42101815569E+03  0.00000000000E+00 0.  1.
<mgrwt>
<rscale>  0 0.93462129E+03</rscale>
<asrwt>0</asrwt>
<pdfrwt beam="1">  1        2 0.14165834E+00 0.93462129E+03</pdfrwt>
<pdfrwt beam="2">  1       -2 0.36487362E-01 0.93462129E+03</pdfrwt>
<totfact> 0.20084194E+02</totfact>
</mgrwt>
</event>
<event>
 6    1  0.1831439E-005  0.1832642E+04  0.7818608E-02  0.8689131E-01
         -1   -1    0    0    0  501 -0.00000000000E+00  0.00000000000E+00  0.28048029571E+03  0.28048029571E+03  0.00000000000E+00 0.  1.
          1   -1    0    0  501    0  0.00000000000E+00 -0.00000000000E+00 -0.29935953466E+04  0.29935953466E+04  0.00000000000E+00 0. -1.
         23    2    1    2    0    0  0.62502831833E+03 -0.37313806392E+03 -0.23467245999E+04  0.24591312417E+04  0.10157609421E+03 0.  0.
         13    1    3    3    0    0  0.12714256637E+03 -0.46334652824E+02 -0.54395278185E+03  0.56053256919E+03  0.00000000000E+00 0.  1.
        -13    1    3    3    0    0  0.49788575196E+03 -0.32680341109E+03 -0.18027718180E+04  0.18985986725E+04  0.00000000000E+00 0. -1.
         22    1    1    2    0    0 -0.62502831833E+03  0.37313806392E+03 -0.36639045102E+03  0.81494440059E+03  0.00000000000E+00 0.  1.
<mgrwt>
<rscale>  0 0.18326424E+04</rscale>
<asrwt>0</asrwt>
<pdfrwt beam="1">  1        1 0.46055313E+00 0.18326424E+04</pdfrwt>
<pdfrwt beam="2">  1       -1 0.43150815E-01 0.18326424E+04</pdfrwt>
<totfact> 0.30195503E+00</totfact>
</mgrwt>
</event>
<event>
 6    1  0.1831439E-005  0.1044295E+04  0.7818608E-02  0.9261254E-01
         -2   -1    0    0    0  501 -0.00000000000E+00  0.00000000000E+00  0.42560520361E+03  0.42560520361E+03  0.00000000000E+00 0. -1.
          2   -1    0    0  501    0  0.00000000000E+00 -0.00000000000E+00 -0.64058877668E+03  0.64058877668E+03  0.00000000000E+00 0.  1.
         23    2    1    2    0    0 -0.72480300850E+02  0.25936013385E+03 -0.56012175672E+03  0.62842527553E+03  0.93063803584E+02 0.  0.
         11    1    3    3    0    0 -0.44223843765E+01  0.12973647676E+02 -0.10949326715E+03  0.11034785258E+03  0.00000000000E+00 0. -1.
        -11    1    3    3    0    0 -0.68057916473E+02  0.24638648617E+03 -0.45062848957E+03  0.51807742295E+03  0.00000000000E+00 0.  1.
         22    1    1    2    0    0  0.72480300850E+02 -0.25936013385E+03  0.34513818365E+03  0.43776870475E+03  0.00000000000E+00 0. -1.
<mgrwt>
<rscale>  0 0.10442948E+04</rscale>
<asrwt>0</asrwt>
<pdfrwt beam="1">  1        2 0.98552119E-01 0.10442948E+04</pdfrwt>
<pdfrwt beam="2">  1       -2 0.65477724E-01 0.10442948E+04</pdfrwt>
<totfact> 0.98054831E+01</totfact>
</mgrwt>
</event>
<event>
 6    1  0.1831439E-005  0.1403973E+04  0.7818608E-02  0.8950948E-01
          1   -1    0    0  501    0  0.00000000000E+00  0.00000000000E+00  0.21900701983E+03  0.21900701983E+03  0.00000000000E+00 0. -1.
         -1   -1    0    0    0  501 -0.00000000000E+00 -0.00000000000E+00 -0.22500863153E+04  0.22500863153E+04  0.00000000000E+00 0.  1.
         23    2    1    2    0    0  0.26136478829E+03 -0.43287785575E+03 -0.17200560963E+03  0.54247719279E+03  0.94872463853E+02 0.  0.
         13    1    3    3    0    0  0.13548275212E+03 -0.21050338352E+03 -0.35709812200E+02  0.25286842682E+03  0.00000000000E+00 0. -1.
        -13    1    3    3    0    0  0.12588203617E+03 -0.22237447223E+03 -0.13629579743E+03  0.28960876597E+03  0.00000000000E+00 0.  1.
         22    1    1    2    0    0 -0.26136478829E+03  0.43287785575E+03 -0.18590736859E+04  0.19266161424E+04  0.00000000000E+00 0.  1.
<mgrwt>
<rscale>  0 0.14039725E+04</rscale>
<asrwt>0</asrwt>
<pdfrwt beam="1">  1        1 0.33693388E-01 0.14039725E+04</pdfrwt>
<pdfrwt beam="2">  1       -1 0.34616712E+00 0.14039725E+04</pdfrwt>
<totfact> 0.21355239E+00</totfact>
</mgrwt>
</event>
<event>
 6    1  0.1831439E-005  0.1398423E+04  0.7818608E-02  0.8954961E-01
         -1   -1    0    0    0  501 -0.00000000000E+00  0.00000000000E+00  0.43621072329E+03  0.43621072329E+03  0.00000000000E+00 0.  1.
          1   -1    0    0  501    0  0.00000000000E+00 -0.00000000000E+00 -0.11207803481E+04  0.11207803481E+04  0.00000000000E+00 0. -1.
         23    2    1    2    0    0  0.49038419506E+03 -0.25883776699E+02  0.20604869905E+03  0.53996224808E+03  0.89199407615E+02 0.  0.
         13    1    3    3    0    0  0.36965365434E+03 -0.44322380384E+02  0.18606646741E+03  0.41620791422E+03  0.00000000000E+00 0.  1.
        -13    1    3    3    0    0  0.12073054072E+03  0.18438603686E+02  0.19982231642E+02  0.12375433386E+03  0.00000000000E+00 0. -1.
         22    1    1    2    0    0 -0.49038419506E+03  0.25883776699E+02 -0.89061832383E+03  0.10170288233E+04  0.00000000000E+00 0. -1.
<mgrwt>
<rscale>  0 0.13984225E+04</rscale>
<asrwt>0</asrwt>
<pdfrwt beam="1">  1        1 0.17242774E+00 0.13984225E+04</pdfrwt>
<pdfrwt beam="2">  1       -1 0.67109343E-01 0.13984225E+04</pdfrwt>
<totfact> 0.26828841E+01</totfact>
</mgrwt>
</event>
<event>
 6    1  0.1831439E-005  0.5988053E+04  0.7818608E-02  0.7691885E-01
         -1   -1    0    0    0  501 -0.00000000000E+00  0.00000000000E+00  0.30871502841E+04  0.30871502841E+04  0.00000000000E+00 0.  1.
          1   -1    0    0  501    0  0.00000000000E+00 -0.00000000000E+00 -0.29037117315E+04  0.29037117315E+04  0.00000000000E+00 0. -1.
         23    2    1    2    0    0 -0.16594528393E+04  0.11464750643E+04  0.23045187759E+04  0.30638891573E+04  0.91766992995E+02 0.  0.
         13    1    3    3    0    0 -0.13969386671E+04  0.10039974025E+04  0.19544448320E+04  0.26037094740E+04  0.00000000000E+00 0. -1.
        -13    1    3    3    0    0 -0.26251417218E+03  0.14247766181E+03  0.35007394392E+03  0.46017968330E+03  0.00000000000E+00 0.  1.
         22    1    1    2    0    0  0.16594528393E+04 -0.11464750643E+04 -0.21210802233E+04  0.29269728582E+04  0.00000000000E+00 0. -1.
<mgrwt>
<rscale>  0 0.59880529E+04</rscale>
<asrwt>0</asrwt>
<pdfrwt beam="1">  1        1 0.44672488E+00 0.59880529E+04</pdfrwt>
<pdfrwt beam="2">  1       -1 0.47494620E+00 0.59880529E+04</pdfrwt>
<totfact> 0.10323943E-03</totfact>
</mgrwt>
</event>
<event>
 6    1  0.1831439E-005  0.4373729E+04  0.7818608E-02  0.7933124E-01
         -2   -1    0    0    0  501 -0.00000000000E+00  0.00000000000E+00  0.15678042020E+04  0.15678042020E+04  0.00000000000E+00 0.  1.
          2   -1    0    0  501    0  0.00000000000E+00 -0.00000000000E+00 -0.30503662718E+04  0.30503662718E+04  0.00000000000E+00 0. -1.
         23    2    1    2    0    0 -0.12537624581E+04 -0.11533338694E+04  0.70470354328E+03  0.18457653486E+04  0.90240359982E+02 0.  0.
         13    1    3    3    0    0 -0.87635743489E+03 -0.86105936171E+03  0.51046093867E+03  0.13304119467E+04  0.00000000000E+00 0.  1.
        -13    1    3    3    0    0 -0.37740502322E+03 -0.29227450768E+03  0.19424260461E+03  0.51535340189E+03  0.00000000000E+00 0. -1.
         22    1    1    2    0    0  0.12537624581E+04  0.11533338694E+04 -0.21872656131E+04  0.27724051251E+04  0.00000000000E+00 0. -1.
<mgrwt>
<rscale>  0 0.43737293E+04</rscale>
<asrwt>0</asrwt>
<pdfrwt beam="1">  1        2 0.46928712E+00 0.43737293E+04</pdfrwt>
<pdfrwt beam="2">  1       -2 0.24120065E+00 0.43737293E+04</pdfrwt>
<totfact> 0.90151367E-02</totfact>
</mgrwt>
</event>
<event>
 6    1  0.1831439E-005  0.2889951E+04  0.7818608E-02  0.8275874E-01
         -1   -1    0    0    0  501 -0.00000000000E+00  0.00000000000E+00  0.10314349875E+04  0.10314349875E+04  0.00000000000E+00 0.  1.
          1   -1    0    0  501    0  0.00000000000E+00 -0.00000000000E+00 -0.20243200429E+04  0.20243200429E+04  0.00000000000E+00 0. -1.
         23    2    1    2    0    0 -0.98222962033E+02  0.59195299007E+03 -0.18851554894E+04  0.19804864035E+04  0.91973269045E+02 0.  0.
         11    1    3    3    0    0 -0.58751650022E+02  0.17448774837E+03 -0.67899868657E+03  0.70351755279E+03  0.00000000000E+00 0. -1.
        -11    1    3    3    0    0 -0.39471312011E+02  0.41746524169E+03 -0.12061568029E+04  0.12769688507E+04  0.00000000000E+00 0.  1.
         22    1    1    2    0    0  0.98222962033E+02 -0.59195299007E+03  0.89227043397E+03  0.10752686269E+04  0.00000000000E+00 0.  1.
<mgrwt>
<rscale>  0 0.28899512E+04</rscale>
<asrwt>0</asrwt>
<pdfrwt beam="1">  1        1 0.31143385E+00 0.28899512E+04</pdfrwt>
<pdfrwt beam="2">  1       -1 0.15868231E+00 0.28899512E+04</pdfrwt>
<totfact> 0.73699986E-01</totfact>
</mgrwt>
</event>
<event>
 6    1  0.1831439E-005  0.1077125E+04  0.7818608E-02  0.9227779E-01
          1   -1    0    0  501    0  0.00000000000E+00  0.00000000000E+00  0.20614038856E+04  0.20614038856E+04  0.00000000000E+00 0. -1.
         -1   -1    0    0    0  501 -0.00000000000E+00 -0.00000000000E+00 -0.14070485878E+03  0.14070485878E+03  0.00000000000E+00 0.  1.
         23    2    1    2    0    0  0.31259775265E+03  0.41341587761E+03  0.69827093508E+03  0.87434352330E+03  0.90907948728E+02 0.  0.
         11    1    3    3    0    0  0.28150658981E+02  0.89032597372E+02  0.10103496425E+03  0.13757662228E+03  0.00000000000E+00 0. -1.
        -11    1    3    3    0    0  0.28444709367E+03  0.32438328024E+03  0.59723597083E+03  0.73676690103E+03  0.00000000000E+00 0.  1.
         22    1    1    2    0    0 -0.31259775265E+03 -0.41341587761E+03  0.12224280918E+04  0.13277652211E+04  0.00000000000E+00 0. -1.
<mgrwt>
<rscale>  0 0.10771250E+04</rscale>
<asrwt>0</asrwt>
<pdfrwt beam="1">  1        1 0.31713904E+00 0.10771250E+04</pdfrwt>
<pdfrwt beam="2">  1       -1 0.21646903E-01 0.10771250E+04</pdfrwt>
<totfact> 0.48556455E+01</totfact>
</mgrwt>
</event>
<event>
 6    1  0.2286236E-005  0.1718437E+04  0.7818608E-02  0.8750919E-01
         -1   -1    0    0    0  501 -0.00000000000E+00  0.00000000000E+00  0.45942983156E+03  0.45942983156E+03  0.00000000000E+00 0.  1.
          1   -1    0    0  501    0  0.00000000000E+00 -0.00000000000E+00 -0.16068961786E+04  0.16068961786E+04  0.00000000000E+00 0. -1.
         23    2    1    2    0    0 -0.34092522767E+03 -0.53173442166E+03 -0.12714745216E+04  0.14226261318E+04  0.90808291443E+02 0.  0.
         13    1    3    3    0    0 -0.17575134635E+03 -0.22071950142E+03 -0.48899383076E+03  0.56455345236E+03  0.00000000000E+00 0.  1.
        -13    1    3    3    0    0 -0.16517388132E+03 -0.31101492024E+03 -0.78248069085E+03  0.85807267946E+03  0.00000000000E+00 0. -1.
         22    1    1    2    0    0  0.34092522767E+03  0.53173442166E+03  0.12400817455E+03  0.64369987835E+03  0.00000000000E+00 0.  1.
<mgrwt>
<rscale>  0 0.17184365E+04</rscale>
<asrwt>0</asrwt>
<pdfrwt beam="1">  1        1 0.24721480E+00 0.17184365E+04</pdfrwt>
<pdfrwt beam="2">  1       -1 0.70681513E-01 0.17184365E+04</pdfrwt>
<totfact> 0.10605989E+01</totfact>
</mgrwt>
</event>
<event>
 6    1  0.1831439E-005  0.1587459E+04  0.7818608E-02  0.8828290E-01
          2   -1    0    0  501    0  0.00000000000E+00  0.00000000000E+00  0.36973239002E+04  0.36973239002E+04  0.00000000000E+00 0. -1.
         -2   -1    0    0    0  501 -0.00000000000E+00 -0.00000000000E+00 -0.17039531067E+03  0.17039531067E+03  0.00000000000E+00 0.  1.
         23    2    1    2    0    0 -0.52438122787E+03 -0.29716708613E+03  0.30177131569E+04  0.30786790940E+04  0.91587756100E+02 0.  0.
         13    1    3    3    0    0  0.21843887784E+01 -0.64681181755E+01  0.17847619276E+02  0.19108783868E+02  0.00000000000E+00 0.  1.
        -13    1    3    3    0    0 -0.52656561665E+03 -0.29069896795E+03  0.29998655377E+04  0.30595703101E+04  0.00000000000E+00 0. -1.
         22    1    1    2    0    0  0.52438122787E+03  0.29716708613E+03  0.50921543256E+03  0.78904011683E+03  0.00000000000E+00 0.  1.
<mgrwt>
<rscale>  0 0.15874592E+04</rscale>
<asrwt>0</asrwt>
<pdfrwt beam="1">  1        2 0.56881900E+00 0.15874592E+04</pdfrwt>
<pdfrwt beam="2">  1       -2 0.26214666E-01 0.15874592E+04</pdfrwt>
<totfact> 0.75188859E+00</totfact>
</mgrwt>
</event>
<event>
 6    1  0.1831439E-005  0.2529746E+04  0.7818608E-02  0.8392464E-01
         -1   -1    0    0    0  501 -0.00000000000E+00  0.00000000000E+00  0.21564104438E+04  0.21564104438E+04  0.00000000000E+00 0.  1.
          1   -1    0    0  501    0  0.00000000000E+00 -0.00000000000E+00 -0.74192895983E+03  0.74192895983E+03  0.00000000000E+00 0. -1.
         23    2    1    2    0    0 -0.34552642248E+03  0.12525648585E+03 -0.67665607393E+03  0.77514982615E+03  0.88972550365E+02 0.  0.
         13    1    3    3    0    0 -0.17326231000E+03  0.65094504957E+02 -0.24952327227E+03  0.31067504896E+03  0.00000000000E+00 0. -1.
        -13    1    3    3    0    0 -0.17226411247E+03  0.60161980890E+02 -0.42713280166E+03  0.46447477719E+03  0.00000000000E+00 0.  1.
         22    1    1    2    0    0  0.34552642248E+03 -0.12525648585E+03  0.20911375579E+04  0.21231895775E+04  0.00000000000E+00 0.  1.
<mgrwt>
<rscale>  0 0.25297457E+04</rscale>
<asrwt>0</asrwt>
<pdfrwt beam="1">  1        1 0.11414292E+00 0.25297457E+04</pdfrwt>
<pdfrwt beam="2">  1       -1 0.33175545E+00 0.25297457E+04</pdfrwt>
<totfact> 0.45259040E-01</totfact>
</mgrwt>
</event>
<event>
 6    1  0.1831439E-005  0.1101047E+04  0.7818608E-02  0.9204172E-01
          1   -1    0    0  501    0  0.00000000000E+00  0.00000000000E+00  0.14948207683E+04  0.14948207683E+04  0.00000000000E+00 0. -1.
         -1   -1    0    0    0  501 -0.00000000000E+00 -0.00000000000E+00 -0.20275077401E+03  0.20275077401E+03  0.00000000000E+00 0.  1.
         23    2    1    2    0    0  0.63574039313E+02 -0.29941709722E+03  0.13489401386E+04  0.13862413801E+04  0.91287510937E+02 0.  0.
         13    1    3    3    0    0  0.20500470131E+02 -0.83704234270E+01  0.15555459051E+03  0.15712276695E+03  0.00000000000E+00 0. -1.
        -13    1    3    3    0    0  0.43073569182E+02 -0.29104667379E+03  0.11933855481E+04  0.12291186131E+04  0.00000000000E+00 0.  1.
         22    1    1    2    0    0 -0.63574039313E+02  0.29941709722E+03 -0.56870144359E+02  0.31133016221E+03  0.00000000000E+00 0.  1.
<mgrwt>
<rscale>  0 0.11010469E+04</rscale>
<asrwt>0</asrwt>
<pdfrwt beam="1">  1        1 0.22997242E+00 0.11010469E+04</pdfrwt>
<pdfrwt beam="2">  1       -1 0.31192428E-01 0.11010469E+04</pdfrwt>
<totfact> 0.62594824E+01</totfact>
</mgrwt>
</event>
<event>
 6    1  0.1831439E-005  0.1213581E+04  0.7818608E-02  0.9101051E-01
          1   -1    0    0  501    0  0.00000000000E+00  0.00000000000E+00  0.18220584539E+04  0.18220584539E+04  0.00000000000E+00 0. -1.
         -1   -1    0    0    0  501 -0.00000000000E+00 -0.00000000000E+00 -0.20207639639E+03  0.20207639639E+03  0.00000000000E+00 0.  1.
         23    2    1    2    0    0 -0.46726617803E+03 -0.21091926320E+02  0.17804792859E+03  0.50823360594E+03  0.88418226863E+02 0.  0.
         13    1    3    3    0    0 -0.32577201078E+03 -0.42835186168E+02  0.92020791362E+02  0.34121852561E+03  0.00000000000E+00 0.  1.
        -13    1    3    3    0    0 -0.14149416725E+03  0.21743259848E+02  0.86027137227E+02  0.16701508032E+03  0.00000000000E+00 0. -1.
         22    1    1    2    0    0  0.46726617803E+03  0.21091926320E+02  0.14419341289E+04  0.15159012443E+04  0.00000000000E+00 0. -1.
<mgrwt>
<rscale>  0 0.12135815E+04</rscale>
<asrwt>0</asrwt>
<pdfrwt beam="1">  1        1 0.28031667E+00 0.12135815E+04</pdfrwt>
<pdfrwt beam="2">  1       -1 0.31088678E-01 0.12135815E+04</pdfrwt>
<totfact> 0.37321554E+01</totfact>
</mgrwt>
</event>
<event>
 6    1  0.1831439E-005  0.1299575E+04  0.7818608E-02  0.9029902E-01
          2   -1    0    0  501    0  0.00000000000E+00  0.00000000000E+00  0.60526383582E+03  0.60526383582E+03  0.00000000000E+00 0.  1.
         -2   -1    0    0    0  501 -0.00000000000E+00 -0.00000000000E+00 -0.69758617456E+03  0.69758617456E+03  0.00000000000E+00 0. -1.
         23    2    1    2    0    0  0.25678678528E+03  0.15393314883E+03  0.52832709444E+03  0.61376323332E+03  0.89111842417E+02 0.  0.
         13    1    3    3    0    0  0.15757581390E+03  0.14207447827E+03  0.34675277059E+03  0.40651294987E+03  0.00000000000E+00 0.  1.
        -13    1    3    3    0    0  0.99210971386E+02  0.11858670561E+02  0.18157432385E+03  0.20725028346E+03  0.00000000000E+00 0. -1.
         22    1    1    2    0    0 -0.25678678528E+03 -0.15393314883E+03 -0.62064943318E+03  0.68908677706E+03  0.00000000000E+00 0. -1.
<mgrwt>
<rscale>  0 0.12995748E+04</rscale>
<asrwt>0</asrwt>
<pdfrwt beam="1">  1        2 0.93117514E-01 0.12995748E+04</pdfrwt>
<pdfrwt beam="2">  1       -2 0.10732095E+00 0.12995748E+04</pdfrwt>
<totfact> 0.33548732E+01</totfact>
</mgrwt>
</event>
<event>
 6    1  0.1831439E-005  0.1980445E+04  0.7818608E-02  0.8615818E-01
          1   -1    0    0  501    0  0.00000000000E+00  0.00000000000E+00  0.75449636520E+03  0.75449636520E+03  0.00000000000E+00 0. -1.
         -1   -1    0    0    0  501 -0.00000000000E+00 -0.00000000000E+00 -0.12995958750E+04  0.12995958750E+04  0.00000000000E+00 0.  1.
         23    2    1    2    0    0  0.85132377123E+03  0.49975642766E+03 -0.31912304903E+03  0.10413859593E+04  0.90202801536E+02 0.  0.
         11    1    3    3    0    0  0.32756236603E+03  0.14704932117E+03 -0.95892292569E+02  0.37163952733E+03  0.00000000000E+00 0. -1.
        -11    1    3    3    0    0  0.52376140520E+03  0.35270710649E+03 -0.22323075646E+03  0.66974643200E+03  0.00000000000E+00 0.  1.
         22    1    1    2    0    0 -0.85132377123E+03 -0.49975642766E+03 -0.22597646075E+03  0.10127062808E+04  0.00000000000E+00 0.  1.
<mgrwt>
<rscale>  0 0.19804448E+04</rscale>
<asrwt>0</asrwt>
<pdfrwt beam="1">  1        1 0.11607636E+00 0.19804448E+04</pdfrwt>
<pdfrwt beam="2">  1       -1 0.19993783E+00 0.19804448E+04</pdfrwt>
<totfact> 0.33962996E+00</totfact>
</mgrwt>
</event>
<event>
 6    1  0.2473727E-005  0.2070868E+04  0.7818608E-02  0.8574186E-01
         -2   -1    0    0    0  501 -0.00000000000E+00  0.00000000000E+00  0.55047514780E+03  0.55047514780E+03  0.00000000000E+00 0. -1.
          2   -1    0    0  501    0  0.00000000000E+00 -0.00000000000E+00 -0.19476334876E+04  0.19476334876E+04  0.00000000000E+00 0.  1.
         23    2    1    2    0    0  0.36709958111E+02 -0.10258646179E+04 -0.84506970061E+03  0.13325410909E+04  0.88188008054E+02 0.  0.
         11    1    3    3    0    0 -0.68046709482E+01 -0.56423934261E+03 -0.41893820030E+03  0.70279552856E+03  0.00000000000E+00 0. -1.
        -11    1    3    3    0    0  0.43514629059E+02 -0.46162527529E+03 -0.42613150031E+03  0.62974556233E+03  0.00000000000E+00 0.  1.
         22    1    1    2    0    0 -0.36709958111E+02  0.10258646179E+04 -0.55208863919E+03  0.11655675445E+04  0.00000000000E+00 0.  1.
<mgrwt>
<rscale>  0 0.20708683E+04</rscale>
<asrwt>0</asrwt>
<pdfrwt beam="1">  1        2 0.29963592E+00 0.20708683E+04</pdfrwt>
<pdfrwt beam="2">  1       -2 0.84688485E-01 0.20708683E+04</pdfrwt>
<totfact> 0.80182551E+00</totfact>
</mgrwt>
</event>
<event>
 6    1  0.1831439E-005  0.4541163E+04  0.7818608E-02  0.7903470E-01
         -2   -1    0    0    0  501 -0.00000000000E+00  0.00000000000E+00  0.21950006308E+04  0.21950006308E+04  0.00000000000E+00 0.  1.
          2   -1    0    0  501    0  0.00000000000E+00 -0.00000000000E+00 -0.23487644406E+04  0.23487644406E+04  0.00000000000E+00 0. -1.
         23    2    1    2    0    0 -0.30822609712E+02 -0.20618950637E+04  0.87175439029E+03  0.22407129952E+04  0.92074552273E+02 0.  0.
         13    1    3    3    0    0  0.14112636927E+02 -0.44525587808E+03  0.15420346399E+03  0.47141348283E+03  0.00000000000E+00 0.  1.
        -13    1    3    3    0    0 -0.44935246640E+02 -0.16166391856E+04  0.71755092629E+03  0.17692995124E+04  0.00000000000E+00 0. -1.
         22    1    1    2    0    0  0.30822609712E+02  0.20618950637E+04 -0.10255182001E+04  0.23030520762E+04  0.00000000000E+00 0. -1.
<mgrwt>
<rscale>  0 0.45411626E+04</rscale>
<asrwt>0</asrwt>
<pdfrwt beam="1">  1        2 0.36134838E+00 0.45411626E+04</pdfrwt>
<pdfrwt beam="2">  1       -2 0.33769240E+00 0.45411626E+04</pdfrwt>
<totfact> 0.59704100E-02</totfact>
</mgrwt>
</event>
<event>
 6    1  0.1831439E-005  0.1178628E+04  0.7818608E-02  0.9131772E-01
          2   -1    0    0  501    0  0.00000000000E+00  0.00000000000E+00  0.15372772399E+04  0.15372772399E+04  0.00000000000E+00 0. -1.
         -2   -1    0    0    0  501 -0.00000000000E+00 -0.00000000000E+00 -0.22591290135E+03  0.22591290135E+03  0.00000000000E+00 0.  1.
         23    2    1    2    0    0 -0.44699181844E+03  0.37685543754E+03  0.60076685586E+03  0.84298881057E+03  0.88812235036E+02 0.  0.
         13    1    3    3    0    0 -0.35909013326E+03  0.28375539222E+03  0.41795874157E+03  0.61980025498E+03  0.00000000000E+00 0.  1.
        -13    1    3    3    0    0 -0.87901685176E+02  0.93100045325E+02  0.18280811429E+03  0.22318855559E+03  0.00000000000E+00 0. -1.
         22    1    1    2    0    0  0.44699181844E+03 -0.37685543754E+03  0.71059748267E+03  0.92020133065E+03  0.00000000000E+00 0. -1.
<mgrwt>
<rscale>  0 0.11786276E+04</rscale>
<asrwt>0</asrwt>
<pdfrwt beam="1">  1        2 0.23650418E+00 0.11786276E+04</pdfrwt>
<pdfrwt beam="2">  1       -2 0.34755832E-01 0.11786276E+04</pdfrwt>
<totfact> 0.92728941E+01</totfact>
</mgrwt>
</event>
<event>
 6    1  0.1831439E-005  0.2453110E+04  0.7818608E-02  0.8419883E-01
         -2   -1    0    0    0  501 -0.00000000000E+00  0.00000000000E+00  0.10415744467E+04  0.10415744467E+04  0.00000000000E+00 0.  1.
          2   -1    0    0  501    0  0.00000000000E+00 -0.00000000000E+00 -0.14443878931E+04  0.14443878931E+04  0.00000000000E+00 0. -1.
         23    2    1    2    0    0  0.79396322660E+01 -0.18998029746E+03 -0.14278881962E+04  0.14434011694E+04  0.91578838315E+02 0.  0.
         13    1    3    3    0    0 -0.31494068571E+02 -0.12722077410E+03 -0.73845931628E+03  0.74999944234E+03  0.00000000000E+00 0.  1.
        -13    1    3    3    0    0  0.39433700837E+02 -0.62759523359E+02 -0.68942887995E+03  0.69340172702E+03  0.00000000000E+00 0. -1.
         22    1    1    2    0    0 -0.79396322660E+01  0.18998029746E+03  0.10250747499E+04  0.10425611704E+04  0.00000000000E+00 0.  1.
<mgrwt>
<rscale>  0 0.24531103E+04</rscale>
<asrwt>0</asrwt>
<pdfrwt beam="1">  1        2 0.22221352E+00 0.24531103E+04</pdfrwt>
<pdfrwt beam="2">  1       -2 0.16024222E+00 0.24531103E+04</pdfrwt>
<totfact> 0.30662294E+00</totfact>
</mgrwt>
</event>
<event>
 6    1  0.1831439E-005  0.2023908E+04  0.7818608E-02  0.8595524E-01
          2   -1    0    0  501    0  0.00000000000E+00  0.00000000000E+00  0.21101709325E+04  0.21101709325E+04  0.00000000000E+00 0.  1.
         -2   -1    0    0    0  501 -0.00000000000E+00 -0.00000000000E+00 -0.48529304021E+03  0.48529304021E+03  0.00000000000E+00 0. -1.
         23    2    1    2    0    0  0.29011300800E+03 -0.81895497158E+03  0.15389824205E+03  0.88706298513E+03  0.91341489966E+02 0.  0.
         13    1    3    3    0    0  0.22049809740E+03 -0.69232374986E+03  0.15315984348E+03  0.74255607413E+03  0.00000000000E+00 0. -1.
        -13    1    3    3    0    0  0.69614910607E+02 -0.12663122172E+03  0.73839856980E+00  0.14450691100E+03  0.00000000000E+00 0.  1.
         22    1    1    2    0    0 -0.29011300800E+03  0.81895497158E+03  0.14709796502E+04  0.17084009875E+04  0.00000000000E+00 0.  1.
<mgrwt>
<rscale>  0 0.20239084E+04</rscale>
<asrwt>0</asrwt>
<pdfrwt beam="1">  1        2 0.32464168E+00 0.20239084E+04</pdfrwt>
<pdfrwt beam="2">  1       -2 0.74660469E-01 0.20239084E+04</pdfrwt>
<totfact> 0.86733374E+00</totfact>
</mgrwt>
</event>
<event>
 6    1  0.1831439E-005  0.6204489E+03  0.7818608E-02  0.9863866E-01
          2   -1    0    0  501    0  0.00000000000E+00  0.00000000000E+00  0.35933737304E+03  0.35933737304E+03  0.00000000000E+00 0.  1.
         -2   -1    0    0    0  501 -0.00000000000E+00 -0.00000000000E+00 -0.26782410599E+03  0.26782410599E+03  0.00000000000E+00 0. -1.
         23    2    1    2    0    0  0.11825137573E+03  0.83570422497E+02 -0.22300025802E+03  0.28091566919E+03  0.90648192166E+02 0.  0.
         13    1    3    3    0    0  0.76057690959E+02  0.77580389572E+00 -0.12110958797E+03  0.14301365852E+03  0.00000000000E+00 0. -1.
        -13    1    3    3    0    0  0.42193684773E+02  0.82794618602E+02 -0.10189067005E+03  0.13790201067E+03  0.00000000000E+00 0.  1.
         22    1    1    2    0    0 -0.11825137573E+03 -0.83570422497E+02  0.31451352506E+03  0.34624580983E+03  0.00000000000E+00 0.  1.
<mgrwt>
<rscale>  0 0.62044890E+03</rscale>
<asrwt>0</asrwt>
<pdfrwt beam="1">  1        2 0.55282673E-01 0.62044890E+03</pdfrwt>
<pdfrwt beam="2">  1       -2 0.41203708E-01 0.62044890E+03</pdfrwt>
<totfact> 0.50462714E+02</totfact>
</mgrwt>
</event>
<event>
 6    1  0.2719795E-005  0.3146618E+04  0.7818608E-02  0.8203059E-01
         -2   -1    0    0    0  501 -0.00000000000E+00  0.00000000000E+00  0.95641522347E+03  0.95641522347E+03  0.00000000000E+00 0.  1.
          2   -1    0    0  501    0  0.00000000000E+00 -0.00000000000E+00 -0.25881036036E+04  0.25881036036E+04  0.00000000000E+00 0. -1.
         23    2    1    2    0    0 -0.44481231526E+03  0.15004176811E+04 -0.98401776402E+03  0.18508280523E+04  0.90345480075E+02 0.  0.
         13    1    3    3    0    0 -0.90723415429E+02  0.37637499746E+03 -0.20441892941E+03  0.43780814922E+03  0.00000000000E+00 0. -1.
        -13    1    3    3    0    0 -0.35408889983E+03  0.11240426836E+04 -0.77959883460E+03  0.14130199031E+04  0.00000000000E+00 0.  1.
         22    1    1    2    0    0  0.44481231526E+03 -0.15004176811E+04 -0.64767061609E+03  0.16936907747E+04  0.00000000000E+00 0.  1.
<mgrwt>
<rscale>  0 0.31466183E+04</rscale>
<asrwt>0</asrwt>
<pdfrwt beam="1">  1        2 0.39816978E+00 0.31466183E+04</pdfrwt>
<pdfrwt beam="2">  1       -2 0.14714081E+00 0.31466183E+04</pdfrwt>
<totfact> 0.82440172E-01</totfact>
</mgrwt>
</event>
<event>
 6    1  0.1831439E-005  0.2070836E+04  0.7818608E-02  0.8574200E-01
          1   -1    0    0  501    0  0.00000000000E+00  0.00000000000E+00  0.80674035382E+03  0.80674035382E+03  0.00000000000E+00 0. -1.
         -1   -1    0    0    0  501 -0.00000000000E+00 -0.00000000000E+00 -0.13289165704E+04  0.13289165704E+04  0.00000000000E+00 0.  1.
         23    2    1    2    0    0 -0.46776190981E+03 -0.31678352891E+03 -0.11540674492E+04  0.12880487964E+04  0.89694013369E+02 0.  0.
         11    1    3    3    0    0 -0.35759020225E+03 -0.19683265806E+03 -0.79038473868E+03  0.88956274830E+03  0.00000000000E+00 0.  1.
        -11    1    3    3    0    0 -0.11017170756E+03 -0.11995087085E+03 -0.36368271054E+03  0.39848604808E+03  0.00000000000E+00 0. -1.
         22    1    1    2    0    0  0.46776190981E+03  0.31678352891E+03  0.63189123266E+03  0.84760812783E+03  0.00000000000E+00 0. -1.
<mgrwt>
<rscale>  0 0.20708362E+04</rscale>
<asrwt>0</asrwt>
<pdfrwt beam="1">  1        1 0.12411390E+00 0.20708362E+04</pdfrwt>
<pdfrwt beam="2">  1       -1 0.20444870E+00 0.20708362E+04</pdfrwt>
<totfact> 0.28206298E+00</totfact>
</mgrwt>
</event>
<event>
 6    1  0.1831439E-005  0.4427769E+04  0.7818608E-02  0.7923406E-01
          2   -1    0    0  501    0  0.00000000000E+00  0.00000000000E+00  0.15023322886E+04  0.15023322886E+04  0.00000000000E+00 0.  1.
         -2   -1    0    0    0  501 -0.00000000000E+00 -0.00000000000E+00 -0.32624506694E+04  0.32624506694E+04  0.00000000000E+00 0. -1.
         23    2    1    2    0    0  0.27969401249E+03  0.18222989182E+04 -0.21966907125E+04  0.28701596474E+04  0.11560375213E+03 0.  0.
         13    1    3    3    0    0  0.95984345672E+02  0.10024683657E+04 -0.12075028401E+04  0.15723291410E+04  0.00000000000E+00 0. -1.
        -13    1    3    3    0    0  0.18370966681E+03  0.81983055249E+03 -0.98918787240E+03  0.12978305064E+04  0.00000000000E+00 0.  1.
         22    1    1    2    0    0 -0.27969401249E+03 -0.18222989182E+04  0.43657233166E+03  0.18946233105E+04  0.00000000000E+00 0. -1.
<mgrwt>
<rscale>  0 0.44277692E+04</rscale>
<asrwt>0</asrwt>
<pdfrwt beam="1">  1        2 0.23112804E+00 0.44277692E+04</pdfrwt>
<pdfrwt beam="2">  1       -2 0.50191549E+00 0.44277692E+04</pdfrwt>
<totfact> 0.15538360E-02</totfact>
</mgrwt>
</event>
<event>
 6    1  0.1831439E-005  0.4038546E+03  0.7818608E-02  0.1042453E+00
         -2   -1    0    0    0  501 -0.00000000000E+00  0.00000000000E+00  0.39564346836E+02  0.39564346836E+02  0.00000000000E+00 0.  1.
          2   -1    0    0  501    0  0.00000000000E+00 -0.00000000000E+00 -0.10305905998E+04  0.10305905998E+04  0.00000000000E+00 0. -1.
         23    2    1    2    0    0 -0.39619943936E+02  0.61278728175E+02 -0.99048838601E+03  0.99718158309E+03  0.89325496717E+02 0.  0.
         11    1    3    3    0    0 -0.43880182348E+02 -0.78227501973E+01 -0.31150497963E+03  0.31467764166E+03  0.00000000000E+00 0.  1.
        -11    1    3    3    0    0  0.42602384116E+01  0.69101478372E+02 -0.67898340637E+03  0.68250394144E+03  0.00000000000E+00 0. -1.
         22    1    1    2    0    0  0.39619943936E+02 -0.61278728175E+02 -0.53786694567E+00  0.72973363531E+02  0.00000000000E+00 0.  1.
<mgrwt>
<rscale>  0 0.40385465E+03</rscale>
<asrwt>0</asrwt>
<pdfrwt beam="1">  1        2 0.15855242E+00 0.40385465E+03</pdfrwt>
<pdfrwt beam="2">  1       -2 0.60868216E-02 0.40385465E+03</pdfrwt>
<totfact> 0.36545336E+03</totfact>
</mgrwt>
</event>
<event>
 6    1  0.1831439E-005  0.1088424E+04  0.7818608E-02  0.9216549E-01
         -1   -1    0    0    0  501 -0.00000000000E+00  0.00000000000E+00  0.47507992860E+03  0.47507992860E+03  0.00000000000E+00 0.  1.
          1   -1    0    0  501    0  0.00000000000E+00 -0.00000000000E+00 -0.62340385658E+03  0.62340385658E+03  0.00000000000E+00 0. -1.
         23    2    1    2    0    0  0.21791633898E+03  0.26724668310E+03  0.34512441361E+03  0.49648745111E+03  0.92090215640E+02 0.  0.
         13    1    3    3    0    0  0.74729227122E+02  0.60331472176E+02  0.14980880773E+03  0.17795230483E+03  0.00000000000E+00 0. -1.
        -13    1    3    3    0    0  0.14318711186E+03  0.20691521092E+03  0.19531560588E+03  0.31853514627E+03  0.00000000000E+00 0.  1.
         22    1    1    2    0    0 -0.21791633898E+03 -0.26724668310E+03 -0.49344834159E+03  0.60199633407E+03  0.00000000000E+00 0. -1.
<mgrwt>
<rscale>  0 0.10884239E+04</rscale>
<asrwt>0</asrwt>
<pdfrwt beam="1">  1        1 0.95908286E-01 0.10884239E+04</pdfrwt>
<pdfrwt beam="2">  1       -1 0.73089220E-01 0.10884239E+04</pdfrwt>
<totfact> 0.60978281E+01</totfact>
</mgrwt>
</event>
<event>
 6    1  0.1831439E-005  0.2162343E+04  0.7818608E-02  0.8534267E-01
          2   -1    0    0  501    0  0.00000000000E+00  0.00000000000E+00  0.29231965639E+04  0.29231965639E+04  0.00000000000E+00 0.  1.
         -2   -1    0    0    0  501 -0.00000000000E+00 -0.00000000000E+00 -0.39988118676E+03  0.39988118676E+03  0.00000000000E+00 0. -1.
         23    2    1    2    0    0  0.62772713973E+03 -0.86361795806E+03  0.10207260578E+04  0.14798056595E+04  0.89809606236E+02 0.  0.
         11    1    3    3    0    0  0.49491899304E+03 -0.61504119993E+03  0.74131699573E+03  0.10829456937E+04  0.00000000000E+00 0. -1.
        -11    1    3    3    0    0  0.13280814669E+03 -0.24857675813E+03  0.27940906202E+03  0.39685996579E+03  0.00000000000E+00 0.  1.
         22    1    1    2    0    0 -0.62772713973E+03  0.86361795806E+03  0.15025893194E+04  0.18432720912E+04  0.00000000000E+00 0.  1.
<mgrwt>
<rscale>  0 0.21623425E+04</rscale>
<asrwt>0</asrwt>
<pdfrwt beam="1">  1        2 0.44972254E+00 0.21623425E+04</pdfrwt>
<pdfrwt beam="2">  1       -2 0.61520184E-01 0.21623425E+04</pdfrwt>
<totfact> 0.43824309E+00</totfact>
</mgrwt>
</event>
<event>
 6    1  0.1831439E-005  0.1689645E+04  0.7818608E-02  0.8767292E-01
          1   -1    0    0  501    0  0.00000000000E+00  0.00000000000E+00  0.42764856340E+03  0.42764856340E+03  0.00000000000E+00 0. -1.
         -1   -1    0    0    0  501 -0.00000000000E+00 -0.00000000000E+00 -0.16689521027E+04  0.16689521027E+04  0.00000000000E+00 0.  1.
         23    2    1    2    0    0  0.49442355672E+03 -0.58481842851E+03 -0.18704843228E+03  0.79355765896E+03  0.90991177129E+02 0.  0.
         11    1    3    3    0    0  0.86044662824E+02 -0.60971413890E+02 -0.43060065832E+02  0.11390946660E+03  0.00000000000E+00 0.  1.
        -11    1    3    3    0    0  0.40837889390E+03 -0.52384701462E+03 -0.14398836645E+03  0.67964819236E+03  0.00000000000E+00 0. -1.
         22    1    1    2    0    0 -0.49442355672E+03  0.58481842851E+03 -0.10542551070E+04  0.13030430071E+04  0.00000000000E+00 0.  1.
<mgrwt>
<rscale>  0 0.16896449E+04</rscale>
<asrwt>0</asrwt>
<pdfrwt beam="1">  1        1 0.65792086E-01 0.16896449E+04</pdfrwt>
<pdfrwt beam="2">  1       -1 0.25676186E+00 0.16896449E+04</pdfrwt>
<totfact> 0.32918987E+00</totfact>
</mgrwt>
</event>
<event>
 6    1  0.1831439E-005  0.2457202E+04  0.7818608E-02  0.8418393E-01
          1   -1    0    0  501    0  0.00000000000E+00  0.00000000000E+00  0.33535840602E+04  0.33535840602E+04  0.00000000000E+00 0. -1.
         -1   -1    0    0    0  501 -0.00000000000E+00 -0.00000000000E+00 -0.45010381753E+03  0.45010381753E+03  0.00000000000E+00 0.  1.
         23    2    1    2    0    0  0.10457981056E+04 -0.48894234369E+03  0.81098334368E+03  0.14138549201E+04  0.92376719516E+02 0.  0.
         11    1    3    3    0    0  0.12461766197E+03 -0.73674892685E+02  0.69839992120E+02  0.16073324481E+03  0.00000000000E+00 0.  1.
        -11    1    3    3    0    0  0.92118044359E+03 -0.41526745100E+03  0.74114335156E+03  0.12531216753E+04  0.00000000000E+00 0. -1.
         22    1    1    2    0    0 -0.10457981056E+04  0.48894234369E+03  0.20924968990E+04  0.23898329576E+04  0.00000000000E+00 0. -1.
<mgrwt>
<rscale>  0 0.24572025E+04</rscale>
<asrwt>0</asrwt>
<pdfrwt beam="1">  1        1 0.51593599E+00 0.24572025E+04</pdfrwt>
<pdfrwt beam="2">  1       -1 0.69246743E-01 0.24572025E+04</pdfrwt>
<totfact> 0.61170674E-01</totfact>
</mgrwt>
</event>
<event>
 6    1  0.1831439E-005  0.4111171E+04  0.7818608E-02  0.7982488E-01
         -1   -1    0    0    0  501 -0.00000000000E+00  0.00000000000E+00  0.15339812303E+04  0.15339812303E+04  0.00000000000E+00 0.  1.
          1   -1    0    0  501    0  0.00000000000E+00 -0.00000000000E+00 -0.27545521511E+04  0.27545521511E+04  0.00000000000E+00 0. -1.
         23    2    1    2    0    0  0.12274765148E+04 -0.10657805923E+04 -0.19212283589E+04  0.25183617200E+04  0.91872087191E+02 0.  0.
         11    1    3    3    0    0  0.90778551777E+02 -0.10693519343E+03 -0.14386191522E+03  0.20092817549E+03  0.00000000000E+00 0.  1.
        -11    1    3    3    0    0  0.11366979630E+04 -0.95884539887E+03 -0.17773664437E+04  0.23174335445E+04  0.00000000000E+00 0. -1.
         22    1    1    2    0    0 -0.12274765148E+04  0.10657805923E+04  0.70065743810E+03  0.17701716614E+04  0.00000000000E+00 0.  1.
<mgrwt>
<rscale>  0 0.41111708E+04</rscale>
<asrwt>0</asrwt>
<pdfrwt beam="1">  1        1 0.42377725E+00 0.41111708E+04</pdfrwt>
<pdfrwt beam="2">  1       -1 0.23599711E+00 0.41111708E+04</pdfrwt>
<totfact> 0.59981144E-02</totfact>
</mgrwt>
</event>
<event>
 6    1  0.1831439E-005  0.2448582E+04  0.7818608E-02  0.8421536E-01
         -2   -1    0    0    0  501 -0.00000000000E+00  0.00000000000E+00  0.70118089886E+03  0.70118089886E+03  0.00000000000E+00 0.  1.
          2   -1    0    0  501    0  0.00000000000E+00 -0.00000000000E+00 -0.21376624092E+04  0.21376624092E+04  0.00000000000E+00 0. -1.
         23    2    1    2    0    0 -0.10937992493E+04 -0.18074295060E+03 -0.12094957026E+03  0.11184686113E+04  0.85313679522E+02 0.  0.
         13    1    3    3    0    0 -0.78766320471E+03 -0.14105254501E+03 -0.12406998670E+03  0.80975459623E+03  0.00000000000E+00 0. -1.
        -13    1    3    3    0    0 -0.30613604458E+03 -0.39690405585E+02  0.31204164399E+01  0.30871401505E+03  0.00000000000E+00 0.  1.
         22    1    1    2    0    0  0.10937992493E+04  0.18074295060E+03 -0.13155319400E+04  0.17203746968E+04  0.00000000000E+00 0. -1.
<mgrwt>
<rscale>  0 0.24485817E+04</rscale>
<asrwt>0</asrwt>
<pdfrwt beam="1">  1        2 0.32887113E+00 0.24485817E+04</pdfrwt>
<pdfrwt beam="2">  1       -2 0.10787399E+00 0.24485817E+04</pdfrwt>
<totfact> 0.34527932E+00</totfact>
</mgrwt>
</event>
<event>
 6    1  0.1831439E-005  0.2848616E+04  0.7818608E-02  0.8288332E-01
         -2   -1    0    0    0  501 -0.00000000000E+00  0.00000000000E+00  0.53788582923E+03  0.53788582923E+03  0.00000000000E+00 0.  1.
          2   -1    0    0  501    0  0.00000000000E+00 -0.00000000000E+00 -0.37715312627E+04  0.37715312627E+04  0.00000000000E+00 0. -1.
         23    2    1    2    0    0 -0.80271496434E+03  0.11743549121E+04 -0.16740516858E+04  0.21985420526E+04  0.87620414159E+02 0.  0.
         11    1    3    3    0    0 -0.87918133015E+02  0.85358859406E+02 -0.14157552669E+03  0.18724145575E+03  0.00000000000E+00 0. -1.
        -11    1    3    3    0    0 -0.71479683132E+03  0.10889960527E+04 -0.15324761591E+04  0.20113005969E+04  0.00000000000E+00 0.  1.
         22    1    1    2    0    0  0.80271496434E+03 -0.11743549121E+04 -0.15595937477E+04  0.21108750393E+04  0.00000000000E+00 0.  1.
<mgrwt>
<rscale>  0 0.28486160E+04</rscale>
<asrwt>0</asrwt>
<pdfrwt beam="1">  1        2 0.58023557E+00 0.28486160E+04</pdfrwt>
<pdfrwt beam="2">  1       -2 0.82751668E-01 0.28486160E+04</pdfrwt>
<totfact> 0.57285195E-01</totfact>
</mgrwt>
</event>
<event>
 6    1  0.1831439E-005  0.2282378E+04  0.7818608E-02  0.8484902E-01
         -2   -1    0    0    0  501 -0.00000000000E+00  0.00000000000E+00  0.92817306769E+03  0.92817306769E+03  0.00000000000E+00 0. -1.
          2   -1    0    0  501    0  0.00000000000E+00 -0.00000000000E+00 -0.14030916684E+04  0.14030916684E+04  0.00000000000E+00 0.  1.
         23    2    1    2    0    0 -0.12118856408E+03  0.94277232449E+03 -0.87947633645E+03  0.12982239404E+04  0.91653964241E+02 0.  0.
         13    1    3    3    0    0 -0.58187790942E+02  0.74004976410E+03 -0.66980776667E+03  0.99985094722E+03  0.00000000000E+00 0. -1.
        -13    1    3    3    0    0 -0.63000773136E+02  0.20272256040E+03 -0.20966856978E+03  0.29837299318E+03  0.00000000000E+00 0.  1.
         22    1    1    2    0    0  0.12118856408E+03 -0.94277232449E+03  0.40455773578E+03  0.10330407956E+04  0.00000000000E+00 0. -1.
<mgrwt>
<rscale>  0 0.22823776E+04</rscale>
<asrwt>0</asrwt>
<pdfrwt beam="1">  1        2 0.21586026E+00 0.22823776E+04</pdfrwt>
<pdfrwt beam="2">  1       -2 0.14279586E+00 0.22823776E+04</pdfrwt>
<totfact> 0.44640000E+00</totfact>
</mgrwt>
</event>
<event>
 6    1  0.1831439E-005  0.1476452E+04  0.7818608E-02  0.8900265E-01
          2   -1    0    0  501    0  0.00000000000E+00  0.00000000000E+00  0.13190221526E+04  0.13190221526E+04  0.00000000000E+00 0. -1.
         -2   -1    0    0    0  501 -0.00000000000E+00 -0.00000000000E+00 -0.41316791446E+03  0.41316791446E+03  0.00000000000E+00 0.  1.
         23    2    1    2    0    0 -0.43386919815E+02  0.33758061636E+03  0.12192268905E+04  0.12695395330E+04  0.96815898080E+02 0.  0.
         11    1    3    3    0    0 -0.49117496003E+02  0.22154096576E+03  0.64706476840E+03  0.68570091325E+03  0.00000000000E+00 0. -1.
        -11    1    3    3    0    0  0.57305761880E+01  0.11603965060E+03  0.57216212207E+03  0.58383861978E+03  0.00000000000E+00 0.  1.
         22    1    1    2    0    0  0.43386919815E+02 -0.33758061636E+03 -0.31337265237E+03  0.46265053400E+03  0.00000000000E+00 0.  1.
<mgrwt>
<rscale>  0 0.14764520E+04</rscale>
<asrwt>0</asrwt>
<pdfrwt beam="1">  1        2 0.20292648E+00 0.14764520E+04</pdfrwt>
<pdfrwt beam="2">  1       -2 0.63564295E-01 0.14764520E+04</pdfrwt>
<totfact> 0.35723012E+01</totfact>
</mgrwt>
</event>
<event>
 6    1  0.1831439E-005  0.1113419E+04  0.7818608E-02  0.9192211E-01
         -1   -1    0    0    0  501 -0.00000000000E+00  0.00000000000E+00  0.53414396388E+03  0.53414396388E+03  0.00000000000E+00 0.  1.
          1   -1    0    0  501    0  0.00000000000E+00 -0.00000000000E+00 -0.58022837198E+03  0.58022837198E+03  0.00000000000E+00 0. -1.
         23    2    1    2    0    0  0.54272400965E+03 -0.29019828241E+02  0.90559112008E+02  0.55395913770E+03  0.57256199603E+02 0.  0.
         13    1    3    3    0    0  0.29181112930E+03 -0.32900593060E+02  0.71836269729E+02  0.30231876200E+03  0.00000000000E+00 0.  1.
        -13    1    3    3    0    0  0.25091288036E+03  0.38807648188E+01  0.18722842278E+02  0.25164037571E+03  0.00000000000E+00 0. -1.
         22    1    1    2    0    0 -0.54272400965E+03  0.29019828241E+02 -0.13664352011E+03  0.56041319816E+03  0.00000000000E+00 0.  1.
<mgrwt>
<rscale>  0 0.11134190E+04</rscale>
<asrwt>0</asrwt>
<pdfrwt beam="1">  1        1 0.89265904E-01 0.11134190E+04</pdfrwt>
<pdfrwt beam="2">  1       -1 0.82175994E-01 0.11134190E+04</pdfrwt>
<totfact> 0.52734253E+01</totfact>
</mgrwt>
</event>
<event>
 6    1  0.1831439E-005  0.1101262E+04  0.7818608E-02  0.9203963E-01
         -2   -1    0    0    0  501 -0.00000000000E+00  0.00000000000E+00  0.67797844171E+03  0.67797844171E+03  0.00000000000E+00 0.  1.
          2   -1    0    0  501    0  0.00000000000E+00 -0.00000000000E+00 -0.44720348481E+03  0.44720348481E+03  0.00000000000E+00 0. -1.
         23    2    1    2    0    0  0.22971786856E+03  0.49607424406E+03  0.10077311545E+03  0.56325627882E+03  0.90787995271E+02 0.  0.
         11    1    3    3    0    0  0.12818340666E+03  0.20643021590E+03  0.10027399752E+02  0.24319738594E+03  0.00000000000E+00 0. -1.
        -11    1    3    3    0    0  0.10153446190E+03  0.28964402815E+03  0.90745715700E+02  0.32005889289E+03  0.00000000000E+00 0.  1.
         22    1    1    2    0    0 -0.22971786856E+03 -0.49607424406E+03  0.13000184144E+03  0.56192564769E+03  0.00000000000E+00 0.  1.
<mgrwt>
<rscale>  0 0.11012617E+04</rscale>
<asrwt>0</asrwt>
<pdfrwt beam="1">  1        2 0.68800536E-01 0.11012617E+04</pdfrwt>
<pdfrwt beam="2">  1       -2 0.10430438E+00 0.11012617E+04</pdfrwt>
<totfact> 0.51947844E+01</totfact>
</mgrwt>
</event>
<event>
 6    1  0.1831439E-005  0.2498877E+04  0.7818608E-02  0.8403386E-01
         -2   -1    0    0    0  501 -0.00000000000E+00  0.00000000000E+00  0.12650243425E+04  0.12650243425E+04  0.00000000000E+00 0.  1.
          2   -1    0    0  501    0  0.00000000000E+00 -0.00000000000E+00 -0.12340442454E+04  0.12340442454E+04  0.00000000000E+00 0. -1.
         23    2    1    2    0    0 -0.58008625457E+03  0.83904585195E+01  0.11203562153E+04  0.12648438152E+04  0.89785105826E+02 0.  0.
         11    1    3    3    0    0 -0.13690911149E+03  0.40087814415E+02  0.28171110372E+03  0.31577251880E+03  0.00000000000E+00 0. -1.
        -11    1    3    3    0    0 -0.44317714308E+03 -0.31697355895E+02  0.83864511156E+03  0.94907129641E+03  0.00000000000E+00 0.  1.
         22    1    1    2    0    0  0.58008625457E+03 -0.83904585195E+01 -0.10893761182E+04  0.12342247727E+04  0.00000000000E+00 0. -1.
<mgrwt>
<rscale>  0 0.24988766E+04</rscale>
<asrwt>0</asrwt>
<pdfrwt beam="1">  1        2 0.18985296E+00 0.24988766E+04</pdfrwt>
<pdfrwt beam="2">  1       -2 0.19461913E+00 0.24988766E+04</pdfrwt>
<totfact> 0.23275747E+00</totfact>
</mgrwt>
</event>
<event>
 6    1  0.1831439E-005  0.4075217E+04  0.7818608E-02  0.7989542E-01
         -1   -1    0    0    0  501 -0.00000000000E+00  0.00000000000E+00  0.19536466019E+04  0.19536466019E+04  0.00000000000E+00 0.  1.
          1   -1    0    0  501    0  0.00000000000E+00 -0.00000000000E+00 -0.21251790157E+04  0.21251790157E+04  0.00000000000E+00 0. -1.
         23    2    1    2    0    0  0.13420115055E+04 -0.12195850416E+04 -0.10136399029E+04  0.20794438188E+04  0.90764464841E+02 0.  0.
         13    1    3    3    0    0  0.25960816311E+03 -0.27973918945E+03 -0.19294532116E+03  0.42764273573E+03  0.00000000000E+00 0. -1.
        -13    1    3    3    0    0  0.10824033424E+04 -0.93984585212E+03 -0.82069458179E+03  0.16518010830E+04  0.00000000000E+00 0.  1.
         22    1    1    2    0    0 -0.13420115055E+04  0.12195850416E+04  0.84210748915E+03  0.19993817989E+04  0.00000000000E+00 0.  1.
<mgrwt>
<rscale>  0 0.40752172E+04</rscale>
<asrwt>0</asrwt>
<pdfrwt beam="1">  1        1 0.32695062E+00 0.40752172E+04</pdfrwt>
<pdfrwt beam="2">  1       -1 0.30056102E+00 0.40752172E+04</pdfrwt>
<totfact> 0.62409967E-02</totfact>
</mgrwt>
</event>
<event>
 6    1  0.1831439E-005  0.3291506E+04  0.7818608E-02  0.8165060E-01
         -2   -1    0    0    0  501 -0.00000000000E+00  0.00000000000E+00  0.14963325262E+04  0.14963325262E+04  0.00000000000E+00 0.  1.
          2   -1    0    0  501    0  0.00000000000E+00 -0.00000000000E+00 -0.18100941718E+04  0.18100941718E+04  0.00000000000E+00 0. -1.
         23    2    1    2    0    0 -0.58832451232E+03 -0.10730893742E+04 -0.12601889432E+04  0.17593742858E+04  0.98362433123E+02 0.  0.
         11    1    3    3    0    0 -0.39547404621E+03 -0.71118595315E+03 -0.77041468578E+03  0.11205909018E+04  0.00000000000E+00 0. -1.
        -11    1    3    3    0    0 -0.19285046610E+03 -0.36190342101E+03 -0.48977425741E+03  0.63878338397E+03  0.00000000000E+00 0.  1.
         22    1    1    2    0    0  0.58832451232E+03  0.10730893742E+04  0.94642729757E+03  0.15470524123E+04  0.00000000000E+00 0.  1.
<mgrwt>
<rscale>  0 0.32915059E+04</rscale>
<asrwt>0</asrwt>
<pdfrwt beam="1">  1        2 0.27847603E+00 0.32915059E+04</pdfrwt>
<pdfrwt beam="2">  1       -2 0.23020500E+00 0.32915059E+04</pdfrwt>
<totfact> 0.60694454E-01</totfact>
</mgrwt>
</event>
<event>
 6    1  0.1831439E-005  0.2104829E+04  0.7818608E-02  0.8559119E-01
         -1   -1    0    0    0  501 -0.00000000000E+00  0.00000000000E+00  0.71364486606E+03  0.71364486606E+03  0.00000000000E+00 0.  1.
          1   -1    0    0  501    0  0.00000000000E+00 -0.00000000000E+00 -0.15519997452E+04  0.15519997452E+04  0.00000000000E+00 0. -1.
         23    2    1    2    0    0  0.54848705040E+03 -0.81889131388E+03 -0.28785878327E+02  0.99017489562E+03  0.90535455612E+02 0.  0.
         11    1    3    3    0    0  0.29919098741E+03 -0.37548422579E+03 -0.35830750213E+02  0.48144313623E+03  0.00000000000E+00 0.  1.
        -11    1    3    3    0    0  0.24929606299E+03 -0.44340708809E+03  0.70448718860E+01  0.50873175939E+03  0.00000000000E+00 0. -1.
         22    1    1    2    0    0 -0.54848705040E+03  0.81889131388E+03 -0.80956900079E+03  0.12754697156E+04  0.00000000000E+00 0. -1.
<mgrwt>
<rscale>  0 0.21048294E+04</rscale>
<asrwt>0</asrwt>
<pdfrwt beam="1">  1        1 0.23876919E+00 0.21048294E+04</pdfrwt>
<pdfrwt beam="2">  1       -1 0.10979152E+00 0.21048294E+04</pdfrwt>
<totfact> 0.42434199E+00</totfact>
</mgrwt>
</event>
<event>
 6    1  0.1831439E-005  0.5430380E+04  0.7818608E-02  0.7765342E-01
          2   -1    0    0  501    0  0.00000000000E+00  0.00000000000E+00  0.47464842064E+04  0.47464842064E+04  0.00000000000E+00 0. -1.
         -2   -1    0    0    0  501 -0.00000000000E+00 -0.00000000000E+00 -0.15532039652E+04  0.15532039652E+04  0.00000000000E+00 0.  1.
         23    2    1    2    0    0  0.58272050128E+03  0.67776649207E+03  0.45703915299E+04  0.46579311549E+04  0.94410314870E+02 0.  0.
         11    1    3    3    0    0  0.41324176704E+03  0.49411026819E+03  0.30671480893E+04  0.31340566550E+04  0.00000000000E+00 0.  1.
        -11    1    3    3    0    0  0.16947873424E+03  0.18365622389E+03  0.15032434405E+04  0.15238744999E+04  0.00000000000E+00 0. -1.
         22    1    1    2    0    0 -0.58272050128E+03 -0.67776649207E+03 -0.13771112887E+04  0.16417570167E+04  0.00000000000E+00 0.  1.
<mgrwt>
<rscale>  0 0.54303805E+04</rscale>
<asrwt>0</asrwt>
<pdfrwt beam="1">  1        2 0.73022833E+00 0.54303805E+04</pdfrwt>
<pdfrwt beam="2">  1       -2 0.23895446E+00 0.54303805E+04</pdfrwt>
<totfact> 0.35618032E-03</totfact>
</mgrwt>
</event>
<event>
 6    1  0.1831439E-005  0.9223048E+03  0.7818608E-02  0.9398121E-01
         -1   -1    0    0    0  501 -0.00000000000E+00  0.00000000000E+00  0.30730097251E+03  0.30730097251E+03  0.00000000000E+00 0.  1.
          1   -1    0    0  501    0  0.00000000000E+00 -0.00000000000E+00 -0.69203011740E+03  0.69203011740E+03  0.00000000000E+00 0. -1.
         23    2    1    2    0    0 -0.35390727908E+03 -0.58199993322E+02  0.11206257287E+03  0.38659981745E+03  0.90905430008E+02 0.  0.
         13    1    3    3    0    0 -0.84153579754E+02 -0.52861840615E+02  0.41670222615E+02  0.10776180507E+03  0.00000000000E+00 0.  1.
        -13    1    3    3    0    0 -0.26975369933E+03 -0.53381527066E+01  0.70392350258E+02  0.27883801239E+03  0.00000000000E+00 0. -1.
         22    1    1    2    0    0  0.35390727908E+03  0.58199993322E+02 -0.49679171776E+03  0.61273127246E+03  0.00000000000E+00 0. -1.
<mgrwt>
<rscale>  0 0.92230478E+03</rscale>
<asrwt>0</asrwt>
<pdfrwt beam="1">  1        1 0.10646617E+00 0.92230478E+03</pdfrwt>
<pdfrwt beam="2">  1       -1 0.47277073E-01 0.92230478E+03</pdfrwt>
<totfact> 0.12452052E+02</totfact>
</mgrwt>
</event>
<event>
 6    1  0.1831439E-005  0.2122098E+04  0.7818608E-02  0.8551571E-01
          2   -1    0    0  501    0  0.00000000000E+00  0.00000000000E+00  0.16868730880E+04  0.16868730880E+04  0.00000000000E+00 0. -1.
         -2   -1    0    0    0  501 -0.00000000000E+00 -0.00000000000E+00 -0.66740348391E+03  0.66740348391E+03  0.00000000000E+00 0.  1.
         23    2    1    2    0    0 -0.53027863541E+03 -0.66926923344E+03 -0.18441555701E+03  0.87831714863E+03  0.91187597289E+02 0.  0.
         13    1    3    3    0    0 -0.99734283239E+02 -0.18509313716E+03 -0.31485473222E+02  0.21259758160E+03  0.00000000000E+00 0.  1.
        -13    1    3    3    0    0 -0.43054435217E+03 -0.48417609628E+03 -0.15293008379E+03  0.66571956703E+03  0.00000000000E+00 0. -1.
         22    1    1    2    0    0  0.53027863541E+03  0.66926923344E+03  0.12038851611E+04  0.14759594232E+04  0.00000000000E+00 0. -1.
<mgrwt>
<rscale>  0 0.21220980E+04</rscale>
<asrwt>0</asrwt>
<pdfrwt beam="1">  1        2 0.25951893E+00 0.21220980E+04</pdfrwt>
<pdfrwt beam="2">  1       -2 0.10267746E+00 0.21220980E+04</pdfrwt>
<totfact> 0.71158558E+00</totfact>
</mgrwt>
</event>
<event>
 6    1  0.1831439E-005  0.1361280E+04  0.7818608E-02  0.8982333E-01
          1   -1    0    0  501    0  0.00000000000E+00  0.00000000000E+00  0.29659876395E+03  0.29659876395E+03  0.00000000000E+00 0. -1.
         -1   -1    0    0    0  501 -0.00000000000E+00 -0.00000000000E+00 -0.15619455450E+04  0.15619455450E+04  0.00000000000E+00 0.  1.
         23    2    1    2    0    0  0.38924671992E+03 -0.18722824756E+03 -0.13480458778E+04  0.14187641750E+04  0.95376464398E+02 0.  0.
         13    1    3    3    0    0  0.12096081981E+03 -0.42205007612E+02 -0.54246194711E+03  0.55738473845E+03  0.00000000000E+00 0.  1.
        -13    1    3    3    0    0  0.26828590011E+03 -0.14502323995E+03 -0.80558393064E+03  0.86137943651E+03  0.00000000000E+00 0. -1.
         22    1    1    2    0    0 -0.38924671992E+03  0.18722824756E+03  0.82699096718E+02  0.43978013399E+03  0.00000000000E+00 0. -1.
<mgrwt>
<rscale>  0 0.13612805E+04</rscale>
<asrwt>0</asrwt>
<pdfrwt beam="1">  1        1 0.45630579E-01 0.13612805E+04</pdfrwt>
<pdfrwt beam="2">  1       -1 0.24029931E+00 0.13612805E+04</pdfrwt>
<totfact> 0.70300410E+00</totfact>
</mgrwt>
</event>
<event>
 6    1  0.1831439E-005  0.3744977E+04  0.7818608E-02  0.8058067E-01
         -1   -1    0    0    0  501 -0.00000000000E+00  0.00000000000E+00  0.17151301803E+04  0.17151301803E+04  0.00000000000E+00 0.  1.
          1   -1    0    0  501    0  0.00000000000E+00 -0.00000000000E+00 -0.20442842031E+04  0.20442842031E+04  0.00000000000E+00 0. -1.
         23    2    1    2    0    0 -0.34987168843E+03 -0.30133651945E+03  0.16558795563E+04  0.17213829297E+04  0.89488487090E+02 0.  0.
         11    1    3    3    0    0 -0.30964716096E+03 -0.29600900398E+03  0.14710729555E+04  0.15321743815E+04  0.00000000000E+00 0.  1.
        -11    1    3    3    0    0 -0.40224527466E+02 -0.53275154695E+01  0.18480660078E+03  0.18920854823E+03  0.00000000000E+00 0. -1.
         22    1    1    2    0    0  0.34987168843E+03  0.30133651945E+03 -0.19850335791E+04  0.20380314537E+04  0.00000000000E+00 0. -1.
<mgrwt>
<rscale>  0 0.37449772E+04</rscale>
<asrwt>0</asrwt>
<pdfrwt beam="1">  1        1 0.31450526E+00 0.37449772E+04</pdfrwt>
<pdfrwt beam="2">  1       -1 0.26386618E+00 0.37449772E+04</pdfrwt>
<totfact> 0.12587570E-01</totfact>
</mgrwt>
</event>
<event>
 6    1  0.1831439E-005  0.1017383E+04  0.7818608E-02  0.9289683E-01
         -1   -1    0    0    0  501 -0.00000000000E+00  0.00000000000E+00  0.30264373608E+03  0.30264373608E+03  0.00000000000E+00 0.  1.
          1   -1    0    0  501    0  0.00000000000E+00 -0.00000000000E+00 -0.85502143688E+03  0.85502143688E+03  0.00000000000E+00 0. -1.
         23    2    1    2    0    0  0.28716490137E+03 -0.73443070166E+02  0.18628040914E+03  0.36175477064E+03  0.91151292465E+02 0.  0.
         11    1    3    3    0    0  0.99220110620E+01 -0.14482207293E+02  0.38021754792E+02  0.41878806920E+02  0.00000000000E+00 0. -1.
        -11    1    3    3    0    0  0.27724289031E+03 -0.58960862873E+02  0.14825865435E+03  0.31987596372E+03  0.00000000000E+00 0.  1.
         22    1    1    2    0    0 -0.28716490137E+03  0.73443070166E+02 -0.73865810994E+03  0.79591040232E+03  0.00000000000E+00 0. -1.
<mgrwt>
<rscale>  0 0.10173827E+04</rscale>
<asrwt>0</asrwt>
<pdfrwt beam="1">  1        1 0.13154176E+00 0.10173827E+04</pdfrwt>
<pdfrwt beam="2">  1       -1 0.46560575E-01 0.10173827E+04</pdfrwt>
<totfact> 0.91210396E+01</totfact>
</mgrwt>
</event>
<event>
 6    1  0.1831439E-005  0.2599206E+04  0.7818608E-02  0.8368471E-01
          2   -1    0    0  501    0  0.00000000000E+00  0.00000000000E+00  0.27822592736E+04  0.27822592736E+04  0.00000000000E+00 0. -1.
         -2   -1    0    0    0  501 -0.00000000000E+00 -0.00000000000E+00 -0.60704911016E+03  0.60704911016E+03  0.00000000000E+00 0.  1.
         23    2    1    2    0    0 -0.11246536077E+04  0.25165475826E+03  0.18677376408E+04  0.21965321236E+04  0.90186586283E+02 0.  0.
         11    1    3    3    0    0 -0.69582925968E+03  0.11396106958E+03  0.11710637290E+04  0.13669512579E+04  0.00000000000E+00 0.  1.
        -11    1    3    3    0    0 -0.42882434802E+03  0.13769368868E+03  0.69667391181E+03  0.82958086571E+03  0.00000000000E+00 0. -1.
         22    1    1    2    0    0  0.11246536077E+04 -0.25165475826E+03  0.30747252261E+03  0.11927762602E+04  0.00000000000E+00 0.  1.
<mgrwt>
<rscale>  0 0.25992060E+04</rscale>
<asrwt>0</asrwt>
<pdfrwt beam="1">  1        2 0.42803988E+00 0.25992060E+04</pdfrwt>
<pdfrwt beam="2">  1       -2 0.93392172E-01 0.25992060E+04</pdfrwt>
<totfact> 0.20332299E+00</totfact>
</mgrwt>
</event>
<event>
 6    1  0.1831439E-005  0.1656497E+04  0.7818608E-02  0.8786572E-01
          1   -1    0    0  501    0  0.00000000000E+00  0.00000000000E+00  0.56804735134E+03  0.56804735134E+03  0.00000000000E+00 0. -1.
         -1   -1    0    0    0  501 -0.00000000000E+00 -0.00000000000E+00 -0.12076379982E+04  0.12076379982E+04  0.00000000000E+00 0.  1.
         23    2    1    2    0    0 -0.37099732762E+03 -0.56542831811E+03  0.18539304078E+03  0.70893969808E+03  0.10429149497E+03 0.  0.
         13    1    3    3    0    0 -0.20311330034E+03 -0.23464408263E+03  0.11742340699E+03  0.33181488032E+03  0.00000000000E+00 0. -1.
        -13    1    3    3    0    0 -0.16788402727E+03 -0.33078423548E+03  0.67969633794E+02  0.37712481776E+03  0.00000000000E+00 0.  1.
         22    1    1    2    0    0  0.37099732762E+03  0.56542831811E+03 -0.82498368763E+03  0.10667456514E+04  0.00000000000E+00 0.  1.
<mgrwt>
<rscale>  0 0.16564970E+04</rscale>
<asrwt>0</asrwt>
<pdfrwt beam="1">  1        1 0.87391901E-01 0.16564970E+04</pdfrwt>
<pdfrwt beam="2">  1       -1 0.18579046E+00 0.16564970E+04</pdfrwt>
<totfact> 0.66945135E+00</totfact>
</mgrwt>
</event>
<event>
 6    1  0.1831439E-005  0.4909475E+04  0.7818608E-02  0.7842625E-01
         -2   -1    0    0    0  501 -0.00000000000E+00  0.00000000000E+00  0.15587657260E+04  0.15587657260E+04  0.00000000000E+00 0.  1.
          2   -1    0    0  501    0  0.00000000000E+00 -0.00000000000E+00 -0.38657094657E+04  0.38657094657E+04  0.00000000000E+00 0. -1.
         23    2    1    2    0    0 -0.13065478057E+04  0.36768096330E+03  0.11042669828E+04  0.17531518537E+04  0.10899262973E+03 0.  0.
         13    1    3    3    0    0 -0.34543427239E+03  0.47853287064E+02  0.28131890598E+03  0.44805702816E+03  0.00000000000E+00 0.  1.
        -13    1    3    3    0    0 -0.96111353334E+03  0.31982767623E+03  0.82294807678E+03  0.13050948255E+04  0.00000000000E+00 0. -1.
         22    1    1    2    0    0  0.13065478057E+04 -0.36768096330E+03 -0.34112107224E+04  0.36713233380E+04  0.00000000000E+00 0.  1.
<mgrwt>
<rscale>  0 0.49094747E+04</rscale>
<asrwt>0</asrwt>
<pdfrwt beam="1">  1        2 0.59472454E+00 0.49094747E+04</pdfrwt>
<pdfrwt beam="2">  1       -2 0.23981011E+00 0.49094747E+04</pdfrwt>
<totfact> 0.23723113E-02</totfact>
</mgrwt>
</event>
<event>
 6    1  0.1831439E-005  0.1198952E+04  0.7818608E-02  0.9113775E-01
          2   -1    0    0  501    0  0.00000000000E+00  0.00000000000E+00  0.35259451254E+04  0.35259451254E+04  0.00000000000E+00 0.  1.
         -2   -1    0    0    0  501 -0.00000000000E+00 -0.00000000000E+00 -0.10192195452E+03  0.10192195452E+03  0.00000000000E+00 0. -1.
         23    2    1    2    0    0 -0.24173693566E+03 -0.45601316695E+03  0.26234943455E+04  0.26753802533E+04  0.92477915023E+02 0.  0.
         11    1    3    3    0    0 -0.21176513293E+03 -0.33436762582E+03  0.21121161351E+04  0.21488789516E+04  0.00000000000E+00 0. -1.
        -11    1    3    3    0    0 -0.29971802721E+02 -0.12164554113E+03  0.51137821038E+03  0.52650130169E+03  0.00000000000E+00 0.  1.
         22    1    1    2    0    0  0.24173693566E+03  0.45601316695E+03  0.80052882538E+03  0.95248682655E+03  0.00000000000E+00 0. -1.
<mgrwt>
<rscale>  0 0.11989516E+04</rscale>
<asrwt>0</asrwt>
<pdfrwt beam="1">  1        2 0.54245300E+00 0.11989516E+04</pdfrwt>
<pdfrwt beam="2">  1       -2 0.15680303E-01 0.11989516E+04</pdfrwt>
<totfact> 0.25723845E+01</totfact>
</mgrwt>
</event>
<event>
 6    1  0.1831439E-005  0.2295782E+04  0.7818608E-02  0.8479586E-01
         -2   -1    0    0    0  501 -0.00000000000E+00  0.00000000000E+00  0.12364658483E+04  0.12364658483E+04  0.00000000000E+00 0.  1.
          2   -1    0    0  501    0  0.00000000000E+00 -0.00000000000E+00 -0.10656614118E+04  0.10656614118E+04  0.00000000000E+00 0. -1.
         23    2    1    2    0    0  0.52863744021E+03  0.16021312807E+03 -0.92155227592E+03  0.10780484322E+04  0.88340451530E+02 0.  0.
         13    1    3    3    0    0  0.23456785969E+03  0.75302154593E+02 -0.49647200202E+03  0.55423545905E+03  0.00000000000E+00 0. -1.
        -13    1    3    3    0    0  0.29406958052E+03  0.84910973479E+02 -0.42508027391E+03  0.52381297318E+03  0.00000000000E+00 0.  1.
         22    1    1    2    0    0 -0.52863744021E+03 -0.16021312807E+03  0.10923567124E+04  0.12240788278E+04  0.00000000000E+00 0.  1.
<mgrwt>
<rscale>  0 0.22957822E+04</rscale>
<asrwt>0</asrwt>
<pdfrwt beam="1">  1        2 0.16394791E+00 0.22957822E+04</pdfrwt>
<pdfrwt beam="2">  1       -2 0.19022552E+00 0.22957822E+04</pdfrwt>
<totfact> 0.32052712E+00</totfact>
</mgrwt>
</event>
<event>
 6    1  0.1831439E-005  0.1199762E+04  0.7818608E-02  0.9113065E-01
         -2   -1    0    0    0  501 -0.00000000000E+00  0.00000000000E+00  0.11623968796E+03  0.11623968796E+03  0.00000000000E+00 0.  1.
          2   -1    0    0  501    0  0.00000000000E+00 -0.00000000000E+00 -0.30958197036E+04  0.30958197036E+04  0.00000000000E+00 0. -1.
         23    2    1    2    0    0 -0.31906171617E+03 -0.43904663781E+03 -0.83668229190E+03  0.10014999639E+04  0.91665648814E+02 0.  0.
         13    1    3    3    0    0 -0.21760593836E+03 -0.33906741452E+03 -0.67433902282E+03  0.78552668554E+03  0.00000000000E+00 0.  1.
        -13    1    3    3    0    0 -0.10145577781E+03 -0.99979223286E+02 -0.16234326908E+03  0.21597327834E+03  0.00000000000E+00 0. -1.
         22    1    1    2    0    0  0.31906171617E+03  0.43904663781E+03 -0.21428977237E+04  0.22105594277E+04  0.00000000000E+00 0.  1.
<mgrwt>
<rscale>  0 0.11997618E+04</rscale>
<asrwt>0</asrwt>
<pdfrwt beam="1">  1        2 0.47627991E+00 0.11997618E+04</pdfrwt>
<pdfrwt beam="2">  1       -2 0.17883031E-01 0.11997618E+04</pdfrwt>
<totfact> 0.39467872E+01</totfact>
</mgrwt>
</event>
<event>
 6    1  0.1831439E-005  0.3228279E+04  0.7818608E-02  0.8181388E-01
          2   -1    0    0  501    0  0.00000000000E+00  0.00000000000E+00  0.18449886676E+04  0.18449886676E+04  0.00000000000E+00 0. -1.
         -2   -1    0    0    0  501 -0.00000000000E+00 -0.00000000000E+00 -0.14121750806E+04  0.14121750806E+04  0.00000000000E+00 0.  1.
         23    2    1    2    0    0  0.10765409067E+04 -0.76368976459E+03  0.11517466918E+04  0.17541576971E+04  0.91577312064E+02 0.  0.
         11    1    3    3    0    0  0.70380157446E+03 -0.55165663488E+03  0.77416656627E+03  0.11827914319E+04  0.00000000000E+00 0.  1.
        -11    1    3    3    0    0  0.37273933220E+03 -0.21203312971E+03  0.37758012553E+03  0.57136626525E+03  0.00000000000E+00 0. -1.
         22    1    1    2    0    0 -0.10765409067E+04  0.76368976459E+03 -0.71893310479E+03  0.15030060510E+04  0.00000000000E+00 0.  1.
<mgrwt>
<rscale>  0 0.32282794E+04</rscale>
<asrwt>0</asrwt>
<pdfrwt beam="1">  1        2 0.28384441E+00 0.32282794E+04</pdfrwt>
<pdfrwt beam="2">  1       -2 0.21725770E+00 0.32282794E+04</pdfrwt>
<totfact> 0.70417635E-01</totfact>
</mgrwt>
</event>
<event>
 6    1  0.1831439E-005  0.8413085E+03  0.7818608E-02  0.9502077E-01
          2   -1    0    0  501    0  0.00000000000E+00  0.00000000000E+00  0.17361972003E+04  0.17361972003E+04  0.00000000000E+00 0. -1.
         -2   -1    0    0    0  501 -0.00000000000E+00 -0.00000000000E+00 -0.10191813548E+03  0.10191813548E+03  0.00000000000E+00 0.  1.
         23    2    1    2    0    0  0.21426018066E+03 -0.35230599663E+03  0.70358731574E+03  0.82016932931E+03  0.87267849656E+02 0.  0.
         11    1    3    3    0    0  0.10514242210E+03 -0.20624940071E+03  0.46938467141E+03  0.52336957685E+03  0.00000000000E+00 0. -1.
        -11    1    3    3    0    0  0.10911775856E+03 -0.14605659592E+03  0.23420264433E+03  0.29679975245E+03  0.00000000000E+00 0.  1.
         22    1    1    2    0    0 -0.21426018066E+03  0.35230599663E+03  0.93069174903E+03  0.10179460064E+04  0.00000000000E+00 0.  1.
<mgrwt>
<rscale>  0 0.84130846E+03</rscale>
<asrwt>0</asrwt>
<pdfrwt beam="1">  1        2 0.26710724E+00 0.84130846E+03</pdfrwt>
<pdfrwt beam="2">  1       -2 0.15679714E-01 0.84130846E+03</pdfrwt>
<totfact> 0.30765024E+02</totfact>
</mgrwt>
</event>
<event>
 6    1  0.1831439E-005  0.2636686E+04  0.7818608E-02  0.8355846E-01
          1   -1    0    0  501    0  0.00000000000E+00  0.00000000000E+00  0.25060364569E+04  0.25060364569E+04  0.00000000000E+00 0. -1.
         -1   -1    0    0    0  501 -0.00000000000E+00 -0.00000000000E+00 -0.69353659106E+03  0.69353659106E+03  0.00000000000E+00 0.  1.
         23    2    1    2    0    0  0.33003080294E+03 -0.12610481832E+04  0.68258283775E+03  0.14745004867E+04  0.95233942409E+02 0.  0.
         11    1    3    3    0    0  0.40821351500E+02 -0.31645433016E+03  0.16164206024E+03  0.35768405256E+03  0.00000000000E+00 0.  1.
        -11    1    3    3    0    0  0.28920945144E+03 -0.94459385300E+03  0.52094077751E+03  0.11168164342E+04  0.00000000000E+00 0. -1.
         22    1    1    2    0    0 -0.33003080294E+03  0.12610481832E+04  0.11299170280E+04  0.17250725612E+04  0.00000000000E+00 0. -1.
<mgrwt>
<rscale>  0 0.26366858E+04</rscale>
<asrwt>0</asrwt>
<pdfrwt beam="1">  1        1 0.38554406E+00 0.26366858E+04</pdfrwt>
<pdfrwt beam="2">  1       -1 0.10669794E+00 0.26366858E+04</pdfrwt>
<totfact> 0.96553448E-01</totfact>
</mgrwt>
</event>
<event>
 6    1  0.1831439E-005  0.1939466E+04  0.7818608E-02  0.8635457E-01
         -1   -1    0    0    0  501 -0.00000000000E+00  0.00000000000E+00  0.38124786400E+03  0.38124786400E+03  0.00000000000E+00 0.  1.
          1   -1    0    0  501    0  0.00000000000E+00 -0.00000000000E+00 -0.24665885648E+04  0.24665885648E+04  0.00000000000E+00 0. -1.
         23    2    1    2    0    0  0.61200124139E+03 -0.23019028841E+03  0.19397538529E+01  0.66053837303E+03  0.93670119352E+02 0.  0.
         13    1    3    3    0    0  0.40232470028E+03 -0.19464818513E+03  0.17698578612E+02  0.44728773750E+03  0.00000000000E+00 0. -1.
        -13    1    3    3    0    0  0.20967654111E+03 -0.35542103276E+02 -0.15758824759E+02  0.21325063554E+03  0.00000000000E+00 0.  1.
         22    1    1    2    0    0 -0.61200124139E+03  0.23019028841E+03 -0.20872804546E+04  0.21872980557E+04  0.00000000000E+00 0. -1.
<mgrwt>
<rscale>  0 0.19394655E+04</rscale>
<asrwt>0</asrwt>
<pdfrwt beam="1">  1        1 0.37947517E+00 0.19394655E+04</pdfrwt>
<pdfrwt beam="2">  1       -1 0.58653517E-01 0.19394655E+04</pdfrwt>
<totfact> 0.39275247E+00</totfact>
</mgrwt>
</event>
<event>
 6    1  0.1831439E-005  0.1643078E+04  0.7818608E-02  0.8794512E-01
         -1   -1    0    0    0  501 -0.00000000000E+00  0.00000000000E+00  0.36202684446E+03  0.36202684446E+03  0.00000000000E+00 0.  1.
          1   -1    0    0  501    0  0.00000000000E+00 -0.00000000000E+00 -0.18642993095E+04  0.18642993095E+04  0.00000000000E+00 0. -1.
         23    2    1    2    0    0 -0.16082552435E+03  0.79492528605E+03 -0.59860178935E+03  0.10120808123E+04  0.90622341095E+02 0.  0.
         13    1    3    3    0    0 -0.95625623171E+02  0.61797926743E+03 -0.42792004050E+03  0.75773227188E+03  0.00000000000E+00 0.  1.
        -13    1    3    3    0    0 -0.65199901184E+02  0.17694601862E+03 -0.17068174885E+03  0.25434854041E+03  0.00000000000E+00 0. -1.
         22    1    1    2    0    0  0.16082552435E+03 -0.79492528605E+03 -0.90367067573E+03  0.12142453417E+04  0.00000000000E+00 0.  1.
<mgrwt>
<rscale>  0 0.16430781E+04</rscale>
<asrwt>0</asrwt>
<pdfrwt beam="1">  1        1 0.28681528E+00 0.16430781E+04</pdfrwt>
<pdfrwt beam="2">  1       -1 0.55696436E-01 0.16430781E+04</pdfrwt>
<totfact> 0.11485922E+01</totfact>
</mgrwt>
</event>
<event>
 6    1  0.1831439E-005  0.2897574E+04  0.7818608E-02  0.8273600E-01
          1   -1    0    0  501    0  0.00000000000E+00  0.00000000000E+00  0.31180620556E+04  0.31180620556E+04  0.00000000000E+00 0.  1.
         -1   -1    0    0    0  501 -0.00000000000E+00 -0.00000000000E+00 -0.67316941577E+03  0.67316941577E+03  0.00000000000E+00 0. -1.
         23    2    1    2    0    0 -0.51188752839E+03 -0.12713202892E+04  0.18316325354E+04  0.22897748202E+04  0.99533226610E+02 0.  0.
         13    1    3    3    0    0 -0.18795197454E+02 -0.98310792225E+02  0.16408348607E+03  0.19220213765E+03  0.00000000000E+00 0. -1.
        -13    1    3    3    0    0 -0.49309233093E+03 -0.11730094970E+04  0.16675490493E+04  0.20975726826E+04  0.00000000000E+00 0.  1.
         22    1    1    2    0    0  0.51188752839E+03  0.12713202892E+04  0.61326010449E+03  0.15014566512E+04  0.00000000000E+00 0. -1.
<mgrwt>
<rscale>  0 0.28975742E+04</rscale>
<asrwt>0</asrwt>
<pdfrwt beam="1">  1        1 0.47970185E+00 0.28975742E+04</pdfrwt>
<pdfrwt beam="2">  1       -1 0.10356453E+00 0.28975742E+04</pdfrwt>
<totfact> 0.36906110E-01</totfact>
</mgrwt>
</event>
<event>
 6    1  0.1831439E-005  0.1700515E+04  0.7818608E-02  0.8761071E-01
          1   -1    0    0  501    0  0.00000000000E+00  0.00000000000E+00  0.19236233362E+04  0.19236233362E+04  0.00000000000E+00 0. -1.
         -1   -1    0    0    0  501 -0.00000000000E+00 -0.00000000000E+00 -0.37582089457E+03  0.37582089457E+03  0.00000000000E+00 0.  1.
         23    2    1    2    0    0 -0.58878186994E+03 -0.55419393218E+02  0.15974325849E+04  0.17059810469E+04  0.94048230305E+02 0.  0.
         13    1    3    3    0    0 -0.18634294908E+03  0.18757035212E+02  0.57341235615E+03  0.60322238953E+03  0.00000000000E+00 0. -1.
        -13    1    3    3    0    0 -0.40243892086E+03 -0.74176428429E+02  0.10240202287E+04  0.11027586574E+04  0.00000000000E+00 0.  1.
         22    1    1    2    0    0  0.58878186994E+03  0.55419393218E+02 -0.49630143237E+02  0.59346318389E+03  0.00000000000E+00 0.  1.
<mgrwt>
<rscale>  0 0.17005150E+04</rscale>
<asrwt>0</asrwt>
<pdfrwt beam="1">  1        1 0.29594205E+00 0.17005150E+04</pdfrwt>
<pdfrwt beam="2">  1       -1 0.57818600E-01 0.17005150E+04</pdfrwt>
<totfact> 0.96835986E+00</totfact>
</mgrwt>
</event>
<event>
 6    1  0.1831439E-005  0.4757413E+04  0.7818608E-02  0.7867058E-01
          2   -1    0    0  501    0  0.00000000000E+00  0.00000000000E+00  0.42473717759E+04  0.42473717759E+04  0.00000000000E+00 0. -1.
         -2   -1    0    0    0  501 -0.00000000000E+00 -0.00000000000E+00 -0.13321756850E+04  0.13321756850E+04  0.00000000000E+00 0.  1.
         23    2    1    2    0    0 -0.18725850385E+04  0.96568437114E+03  0.27508572932E+04  0.34662258404E+04  0.91567995181E+02 0.  0.
         13    1    3    3    0    0 -0.18053204714E+04  0.91087327098E+03  0.26421920411E+04  0.33271686014E+04  0.00000000000E+00 0. -1.
        -13    1    3    3    0    0 -0.67264567181E+02  0.54811100159E+02  0.10866525210E+03  0.13905723898E+03  0.00000000000E+00 0.  1.
         22    1    1    2    0    0  0.18725850385E+04 -0.96568437114E+03  0.16433879775E+03  0.21133216205E+04  0.00000000000E+00 0.  1.
<mgrwt>
<rscale>  0 0.47574133E+04</rscale>
<asrwt>0</asrwt>
<pdfrwt beam="1">  1        2 0.65344181E+00 0.47574133E+04</pdfrwt>
<pdfrwt beam="2">  1       -2 0.20495011E+00 0.47574133E+04</pdfrwt>
<totfact> 0.19238247E-02</totfact>
</mgrwt>
</event>
<event>
 6    1  0.1831439E-005  0.9191334E+03  0.7818608E-02  0.9401975E-01
         -1   -1    0    0    0  501 -0.00000000000E+00  0.00000000000E+00  0.14437980408E+03  0.14437980408E+03  0.00000000000E+00 0.  1.
          1   -1    0    0  501    0  0.00000000000E+00 -0.00000000000E+00 -0.14628190983E+04  0.14628190983E+04  0.00000000000E+00 0. -1.
         23    2    1    2    0    0 -0.21976586760E+03 -0.68856773885E+02  0.21201059679E+02  0.24790696549E+03  0.89275342255E+02 0.  0.
         11    1    3    3    0    0 -0.71424141744E+02 -0.63630673563E+02 -0.10164177289E+02  0.96195535977E+02  0.00000000000E+00 0. -1.
        -11    1    3    3    0    0 -0.14834172586E+03 -0.52261003223E+01  0.31365236968E+02  0.15171142951E+03  0.00000000000E+00 0.  1.
         22    1    1    2    0    0  0.21976586760E+03  0.68856773885E+02 -0.13396403539E+04  0.13592919368E+04  0.00000000000E+00 0. -1.
<mgrwt>
<rscale>  0 0.91913336E+03</rscale>
<asrwt>0</asrwt>
<pdfrwt beam="1">  1        1 0.22504910E+00 0.91913336E+03</pdfrwt>
<pdfrwt beam="2">  1       -1 0.22212277E-01 0.91913336E+03</pdfrwt>
<totfact> 0.11985825E+02</totfact>
</mgrwt>
</event>
<event>
 6    1  0.1831439E-005  0.2215831E+04  0.7818608E-02  0.8511868E-01
          1   -1    0    0  501    0  0.00000000000E+00  0.00000000000E+00  0.12206849002E+04  0.12206849002E+04  0.00000000000E+00 0. -1.
         -1   -1    0    0    0  501 -0.00000000000E+00 -0.00000000000E+00 -0.10055638513E+04  0.10055638513E+04  0.00000000000E+00 0.  1.
         23    2    1    2    0    0 -0.36070827151E+03  0.26129694978E+03  0.11248834152E+04  0.12133054579E+04  0.91437865234E+02 0.  0.
         13    1    3    3    0    0 -0.10670228101E+03  0.13155238014E+03  0.43056069700E+03  0.46268122860E+03  0.00000000000E+00 0. -1.
        -13    1    3    3    0    0 -0.25400599050E+03  0.12974456964E+03  0.69432271820E+03  0.75062422927E+03  0.00000000000E+00 0.  1.
         22    1    1    2    0    0  0.36070827151E+03 -0.26129694978E+03 -0.90976236625E+03  0.10129432936E+04  0.00000000000E+00 0.  1.
<mgrwt>
<rscale>  0 0.22158309E+04</rscale>
<asrwt>0</asrwt>
<pdfrwt beam="1">  1        1 0.18779768E+00 0.22158309E+04</pdfrwt>
<pdfrwt beam="2">  1       -1 0.15470213E+00 0.22158309E+04</pdfrwt>
<totfact> 0.30146964E+00</totfact>
</mgrwt>
</event>
<event>
 6    1  0.1831439E-005  0.4400065E+03  0.7818608E-02  0.1030745E+00
         -3   -1    0    0    0  501 -0.00000000000E+00  0.00000000000E+00  0.22370765578E+03  0.22370765578E+03  0.00000000000E+00 0.  1.
          3   -1    0    0  501    0  0.00000000000E+00 -0.00000000000E+00 -0.21636014435E+03  0.21636014435E+03  0.00000000000E+00 0. -1.
         23    2    1    2    0    0 -0.29280137735E+02 -0.36745576910E+02 -0.20134462059E+03  0.22615199927E+03  0.91637910531E+02 0.  0.
         13    1    3    3    0    0  0.68519903758E+01  0.26917940767E+02 -0.77042296785E+02  0.81896524964E+02  0.00000000000E+00 0. -1.
        -13    1    3    3    0    0 -0.36132128110E+02 -0.63663517677E+02 -0.12430232381E+03  0.14425547431E+03  0.00000000000E+00 0.  1.
         22    1    1    2    0    0  0.29280137735E+02  0.36745576910E+02  0.20869213202E+03  0.21391580086E+03  0.00000000000E+00 0.  1.
<mgrwt>
<rscale>  0 0.44000646E+03</rscale>
<asrwt>0</asrwt>
<pdfrwt beam="1">  1        3 0.33286176E-01 0.44000646E+03</pdfrwt>
<pdfrwt beam="2">  1       -3 0.34416563E-01 0.44000646E+03</pdfrwt>
<totfact> 0.19130205E+02</totfact>
</mgrwt>
</event>
<event>
 6    1  0.1831439E-005  0.1059626E+04  0.7818608E-02  0.9245462E-01
         -1   -1    0    0    0  501 -0.00000000000E+00  0.00000000000E+00  0.28379828796E+03  0.28379828796E+03  0.00000000000E+00 0.  1.
          1   -1    0    0  501    0  0.00000000000E+00 -0.00000000000E+00 -0.98908847798E+03  0.98908847798E+03  0.00000000000E+00 0. -1.
         23    2    1    2    0    0  0.17645850722E+03 -0.49247593367E+03 -0.29094530474E+03  0.60553990412E+03  0.91428962080E+02 0.  0.
         13    1    3    3    0    0  0.36301308270E+02 -0.23268659191E+03 -0.11779263616E+03  0.26331718549E+03  0.00000000000E+00 0.  1.
        -13    1    3    3    0    0  0.14015719895E+03 -0.25978934176E+03 -0.17315266858E+03  0.34222271863E+03  0.00000000000E+00 0. -1.
         22    1    1    2    0    0 -0.17645850722E+03  0.49247593367E+03 -0.41434488528E+03  0.66734686182E+03  0.00000000000E+00 0. -1.
<mgrwt>
<rscale>  0 0.10596256E+04</rscale>
<asrwt>0</asrwt>
<pdfrwt beam="1">  1        1 0.15216746E+00 0.10596256E+04</pdfrwt>
<pdfrwt beam="2">  1       -1 0.43661275E-01 0.10596256E+04</pdfrwt>
<totfact> 0.79827884E+01</totfact>
</mgrwt>
</event>
<event>
 6    1  0.1831439E-005  0.2271322E+04  0.7818608E-02  0.8489315E-01
         -2   -1    0    0    0  501 -0.00000000000E+00  0.00000000000E+00  0.77667710161E+03  0.77667710161E+03  0.00000000000E+00 0.  1.
          2   -1    0    0  501    0  0.00000000000E+00 -0.00000000000E+00 -0.16605686429E+04  0.16605686429E+04  0.00000000000E+00 0. -1.
         23    2    1    2    0    0  0.67641721595E+03 -0.76668602218E+03 -0.96861721181E+03  0.14113187755E+04  0.90849745945E+02 0.  0.
         11    1    3    3    0    0  0.42061770906E+03 -0.46171661636E+03 -0.53143496480E+03  0.82007597991E+03  0.00000000000E+00 0. -1.
        -11    1    3    3    0    0  0.25579950689E+03 -0.30496940582E+03 -0.43718224701E+03  0.59124279557E+03  0.00000000000E+00 0.  1.
         22    1    1    2    0    0 -0.67641721595E+03  0.76668602218E+03  0.84725670480E+02  0.10259269691E+04  0.00000000000E+00 0.  1.
<mgrwt>
<rscale>  0 0.22713218E+04</rscale>
<asrwt>0</asrwt>
<pdfrwt beam="1">  1        2 0.25547210E+00 0.22713218E+04</pdfrwt>
<pdfrwt beam="2">  1       -2 0.11948878E+00 0.22713218E+04</pdfrwt>
<totfact> 0.50315617E+00</totfact>
</mgrwt>
</event>
<event>
 6    1  0.1884227E-005  0.3371532E+04  0.7818608E-02  0.8144929E-01
         -1   -1    0    0    0  501 -0.00000000000E+00  0.00000000000E+00  0.18276842719E+04  0.18276842719E+04  0.00000000000E+00 0.  1.
          1   -1    0    0  501    0  0.00000000000E+00 -0.00000000000E+00 -0.15548678820E+04  0.15548678820E+04  0.00000000000E+00 0. -1.
         23    2    1    2    0    0 -0.77700342490E+03 -0.14946222457E+04  0.13057558533E+03  0.16920308066E+04  0.91040031638E+02 0.  0.
         11    1    3    3    0    0 -0.24850821699E+03 -0.54155541042E+03  0.78461581987E+02  0.60099485548E+03  0.00000000000E+00 0. -1.
        -11    1    3    3    0    0 -0.52849520791E+03 -0.95306683525E+03  0.52114003345E+02  0.10910359511E+04  0.00000000000E+00 0.  1.
         22    1    1    2    0    0  0.77700342490E+03  0.14946222457E+04  0.14224080455E+03  0.16905213474E+04  0.00000000000E+00 0.  1.
<mgrwt>
<rscale>  0 0.33715323E+04</rscale>
<asrwt>0</asrwt>
<pdfrwt beam="1">  1        1 0.23921044E+00 0.33715323E+04</pdfrwt>
<pdfrwt beam="2">  1       -1 0.28118220E+00 0.33715323E+04</pdfrwt>
<totfact> 0.21614477E-01</totfact>
</mgrwt>
</event>
<event>
 6    1  0.1831439E-005  0.1391714E+04  0.7818608E-02  0.8959838E-01
          1   -1    0    0  501    0  0.00000000000E+00  0.00000000000E+00  0.10128994016E+04  0.10128994016E+04  0.00000000000E+00 0. -1.
         -1   -1    0    0    0  501 -0.00000000000E+00 -0.00000000000E+00 -0.47805053495E+03  0.47805053495E+03  0.00000000000E+00 0.  1.
         23    2    1    2    0    0  0.58750754575E+03 -0.23688966534E+03  0.56890056226E+03  0.85656728556E+03  0.93690101371E+02 0.  0.
         11    1    3    3    0    0  0.48975106067E+03 -0.16749825823E+03  0.49210252090E+03  0.71419651288E+03  0.00000000000E+00 0. -1.
        -11    1    3    3    0    0  0.97756485081E+02 -0.69391407113E+02  0.76798041359E+02  0.14237077268E+03  0.00000000000E+00 0.  1.
         22    1    1    2    0    0 -0.58750754575E+03  0.23688966534E+03 -0.34051695645E+02  0.63438265096E+03  0.00000000000E+00 0.  1.
<mgrwt>
<rscale>  0 0.13917142E+04</rscale>
<asrwt>0</asrwt>
<pdfrwt beam="1">  1        1 0.15583068E+00 0.13917142E+04</pdfrwt>
<pdfrwt beam="2">  1       -1 0.73546237E-01 0.13917142E+04</pdfrwt>
<totfact> 0.26871810E+01</totfact>
</mgrwt>
</event>
<event>
 6    1  0.1831439E-005  0.3955140E+04  0.7818608E-02  0.8013658E-01
         -2   -1    0    0    0  501 -0.00000000000E+00  0.00000000000E+00  0.20404050472E+04  0.20404050472E+04  0.00000000000E+00 0.  1.
          2   -1    0    0  501    0  0.00000000000E+00 -0.00000000000E+00 -0.19166696867E+04  0.19166696867E+04  0.00000000000E+00 0. -1.
         23    2    1    2    0    0  0.17762501669E+04 -0.34359691931E+03 -0.73426774805E+03  0.19547528736E+04  0.93734586563E+02 0.  0.
         11    1    3    3    0    0  0.68756687017E+03 -0.88880383495E+02 -0.29627565383E+03  0.75394110285E+03  0.00000000000E+00 0. -1.
        -11    1    3    3    0    0  0.10886832967E+04 -0.25471653582E+03 -0.43799209422E+03  0.12008117707E+04  0.00000000000E+00 0.  1.
         22    1    1    2    0    0 -0.17762501669E+04  0.34359691931E+03  0.85800310853E+03  0.20023218604E+04  0.00000000000E+00 0.  1.
<mgrwt>
<rscale>  0 0.39551397E+04</rscale>
<asrwt>0</asrwt>
<pdfrwt beam="1">  1        2 0.29487226E+00 0.39551397E+04</pdfrwt>
<pdfrwt beam="2">  1       -2 0.31390847E+00 0.39551397E+04</pdfrwt>
<totfact> 0.15364692E-01</totfact>
</mgrwt>
</event>
<event>
 6    1  0.1831439E-005  0.2092191E+04  0.7818608E-02  0.8564691E-01
         -2   -1    0    0    0  501 -0.00000000000E+00  0.00000000000E+00  0.49933919916E+03  0.49933919916E+03  0.00000000000E+00 0. -1.
          2   -1    0    0  501    0  0.00000000000E+00 -0.00000000000E+00 -0.21915287135E+04  0.21915287135E+04  0.00000000000E+00 0.  1.
         23    2    1    2    0    0  0.83582910742E+03  0.26792206827E+03 -0.15739605389E+04  0.18052209051E+04  0.10525305937E+03 0.  0.
         13    1    3    3    0    0  0.43332122538E+03  0.16302167487E+03 -0.92511870081E+03  0.10344988939E+04  0.00000000000E+00 0.  1.
        -13    1    3    3    0    0  0.40250788204E+03  0.10490039340E+03 -0.64884183812E+03  0.77072201119E+03  0.00000000000E+00 0. -1.
         22    1    1    2    0    0 -0.83582910742E+03 -0.26792206827E+03 -0.11822897543E+03  0.88564700762E+03  0.00000000000E+00 0. -1.
<mgrwt>
<rscale>  0 0.20921914E+04</rscale>
<asrwt>0</asrwt>
<pdfrwt beam="1">  1        2 0.33715826E+00 0.20921914E+04</pdfrwt>
<pdfrwt beam="2">  1       -2 0.76821417E-01 0.20921914E+04</pdfrwt>
<totfact> 0.72873822E+00</totfact>
</mgrwt>
</event>
<event>
 6    1  0.1831439E-005  0.3380125E+04  0.7818608E-02  0.8142802E-01
         -2   -1    0    0    0  501 -0.00000000000E+00  0.00000000000E+00  0.13514498879E+04  0.13514498879E+04  0.00000000000E+00 0.  1.
          2   -1    0    0  501    0  0.00000000000E+00 -0.00000000000E+00 -0.21135165327E+04  0.21135165327E+04  0.00000000000E+00 0. -1.
         23    2    1    2    0    0  0.10290080592E+04  0.67194156328E+03  0.80613076819E+03  0.14725793656E+04  0.90995176754E+02 0.  0.
         13    1    3    3    0    0  0.57455070143E+03  0.32461971312E+03  0.41228238448E+03  0.77811517863E+03  0.00000000000E+00 0. -1.
        -13    1    3    3    0    0  0.45445735781E+03  0.34732185017E+03  0.39384838371E+03  0.69446418699E+03  0.00000000000E+00 0.  1.
         22    1    1    2    0    0 -0.10290080592E+04 -0.67194156328E+03 -0.15681974131E+04  0.19923870550E+04  0.00000000000E+00 0. -1.
<mgrwt>
<rscale>  0 0.33801253E+04</rscale>
<asrwt>0</asrwt>
<pdfrwt beam="1">  1        2 0.32515639E+00 0.33801253E+04</pdfrwt>
<pdfrwt beam="2">  1       -2 0.20791537E+00 0.33801253E+04</pdfrwt>
<totfact> 0.56594755E-01</totfact>
</mgrwt>
</event>
<event>
 6    1  0.1831439E-005  0.2661898E+04  0.7818608E-02  0.8347475E-01
          2   -1    0    0  501    0  0.00000000000E+00  0.00000000000E+00  0.28094710632E+04  0.28094710632E+04  0.00000000000E+00 0.  1.
         -2   -1    0    0    0  501 -0.00000000000E+00 -0.00000000000E+00 -0.63051915547E+03  0.63051915547E+03  0.00000000000E+00 0. -1.
         23    2    1    2    0    0 -0.11830905558E+03  0.96650661005E+03  0.22603521898E+04  0.24628729965E+04  0.91756824340E+02 0.  0.
         13    1    3    3    0    0 -0.67880024263E+02  0.36232348466E+03  0.76103991439E+03  0.84561679059E+03  0.00000000000E+00 0.  1.
        -13    1    3    3    0    0 -0.50429031316E+02  0.60418312538E+03  0.14993122754E+04  0.16172562059E+04  0.00000000000E+00 0. -1.
         22    1    1    2    0    0  0.11830905558E+03 -0.96650661005E+03 -0.81400282146E+02  0.97711722215E+03  0.00000000000E+00 0. -1.
<mgrwt>
<rscale>  0 0.26618981E+04</rscale>
<asrwt>0</asrwt>
<pdfrwt beam="1">  1        2 0.43222631E+00 0.26618981E+04</pdfrwt>
<pdfrwt beam="2">  1       -2 0.97002949E-01 0.26618981E+04</pdfrwt>
<totfact> 0.17818993E+00</totfact>
</mgrwt>
</event>
<event>
 6    1  0.1831439E-005  0.3380524E+04  0.7818608E-02  0.8142703E-01
         -1   -1    0    0    0  501 -0.00000000000E+00  0.00000000000E+00  0.10663610079E+04  0.10663610079E+04  0.00000000000E+00 0.  1.
          1   -1    0    0  501    0  0.00000000000E+00 -0.00000000000E+00 -0.26791913901E+04  0.26791913901E+04  0.00000000000E+00 0. -1.
         23    2    1    2    0    0 -0.86644531370E+03  0.14274331977E+04 -0.52584378791E+03  0.17531084535E+04  0.92652819632E+02 0.  0.
         13    1    3    3    0    0 -0.55363594486E+03  0.98170463998E+03 -0.32920170806E+03  0.11741509801E+04  0.00000000000E+00 0. -1.
        -13    1    3    3    0    0 -0.31280936885E+03  0.44572855773E+03 -0.19664207984E+03  0.57895747338E+03  0.00000000000E+00 0.  1.
         22    1    1    2    0    0  0.86644531370E+03 -0.14274331977E+04 -0.10869865944E+04  0.19924439445E+04  0.00000000000E+00 0. -1.
<mgrwt>
<rscale>  0 0.33805238E+04</rscale>
<asrwt>0</asrwt>
<pdfrwt beam="1">  1        1 0.41218329E+00 0.33805238E+04</pdfrwt>
<pdfrwt beam="2">  1       -1 0.16405554E+00 0.33805238E+04</pdfrwt>
<totfact> 0.22775368E-01</totfact>
</mgrwt>
</event>
<event>
 6    1  0.1831439E-005  0.2324406E+04  0.7818608E-02  0.8468360E-01
         -2   -1    0    0    0  501 -0.00000000000E+00  0.00000000000E+00  0.12514336876E+04  0.12514336876E+04  0.00000000000E+00 0.  1.
          2   -1    0    0  501    0  0.00000000000E+00 -0.00000000000E+00 -0.10793347006E+04  0.10793347006E+04  0.00000000000E+00 0. -1.
         23    2    1    2    0    0  0.84870003158E+03  0.37074765085E+02  0.87885085901E+03  0.12257052721E+04  0.91149875940E+02 0.  0.
         11    1    3    3    0    0  0.61321834218E+03 -0.95210510697E+01  0.65842416225E+03  0.89980540287E+03  0.00000000000E+00 0.  1.
        -11    1    3    3    0    0  0.23548168940E+03  0.46595816154E+02  0.22042669677E+03  0.32589986924E+03  0.00000000000E+00 0. -1.
         22    1    1    2    0    0 -0.84870003158E+03 -0.37074765085E+02 -0.70675187203E+03  0.11050631160E+04  0.00000000000E+00 0. -1.
<mgrwt>
<rscale>  0 0.23244060E+04</rscale>
<asrwt>0</asrwt>
<pdfrwt beam="1">  1        2 0.16605149E+00 0.23244060E+04</pdfrwt>
<pdfrwt beam="2">  1       -2 0.19252826E+00 0.23244060E+04</pdfrwt>
<totfact> 0.30261809E+00</totfact>
</mgrwt>
</event>
<event>
 6    1  0.1831439E-005  0.2917153E+04  0.7818608E-02  0.8267792E-01
          1   -1    0    0  501    0  0.00000000000E+00  0.00000000000E+00  0.10803450619E+04  0.10803450619E+04  0.00000000000E+00 0. -1.
         -1   -1    0    0    0  501 -0.00000000000E+00 -0.00000000000E+00 -0.19692281862E+04  0.19692281862E+04  0.00000000000E+00 0.  1.
         23    2    1    2    0    0  0.30796894954E+03 -0.14051082303E+04 -0.68873646709E+03  0.15972534840E+04  0.87674159432E+02 0.  0.
         13    1    3    3    0    0  0.21192756384E+03 -0.77401263541E+03 -0.36826819923E+03  0.88296677099E+03  0.00000000000E+00 0. -1.
        -13    1    3    3    0    0  0.96041385702E+02 -0.63109559491E+03 -0.32046826786E+03  0.71428671301E+03  0.00000000000E+00 0.  1.
         22    1    1    2    0    0 -0.30796894954E+03  0.14051082303E+04 -0.20014665720E+03  0.14523197641E+04  0.00000000000E+00 0. -1.
<mgrwt>
<rscale>  0 0.29171534E+04</rscale>
<asrwt>0</asrwt>
<pdfrwt beam="1">  1        1 0.16620694E+00 0.29171534E+04</pdfrwt>
<pdfrwt beam="2">  1       -1 0.30295818E+00 0.29171534E+04</pdfrwt>
<totfact> 0.35529111E-01</totfact>
</mgrwt>
</event>
<event>
 6    1  0.1831439E-005  0.5293087E+04  0.7818608E-02  0.7784820E-01
          1   -1    0    0  501    0  0.00000000000E+00  0.00000000000E+00  0.33584884440E+04  0.33584884440E+04  0.00000000000E+00 0. -1.
         -1   -1    0    0    0  501 -0.00000000000E+00 -0.00000000000E+00 -0.20855192021E+04  0.20855192021E+04  0.00000000000E+00 0.  1.
         23    2    1    2    0    0 -0.23836148253E+03 -0.22542864806E+04  0.20398231054E+04  0.30509575879E+04  0.94022172356E+02 0.  0.
         11    1    3    3    0    0 -0.14407189529E+02 -0.25894043150E+03  0.27077594695E+03  0.37493643144E+03  0.00000000000E+00 0.  1.
        -11    1    3    3    0    0 -0.22395429300E+03 -0.19953460491E+04  0.17690471584E+04  0.26760211564E+04  0.00000000000E+00 0. -1.
         22    1    1    2    0    0  0.23836148253E+03  0.22542864806E+04 -0.76685386350E+03  0.23930500582E+04  0.00000000000E+00 0.  1.
<mgrwt>
<rscale>  0 0.52930869E+04</rscale>
<asrwt>0</asrwt>
<pdfrwt beam="1">  1        1 0.51669053E+00 0.52930869E+04</pdfrwt>
<pdfrwt beam="2">  1       -1 0.32084911E+00 0.52930869E+04</pdfrwt>
<totfact> 0.54878515E-03</totfact>
</mgrwt>
</event>
<event>
 6    1  0.1831439E-005  0.9515316E+03  0.7818608E-02  0.9363362E-01
          1   -1    0    0  501    0  0.00000000000E+00  0.00000000000E+00  0.93213069781E+03  0.93213069781E+03  0.00000000000E+00 0. -1.
         -1   -1    0    0    0  501 -0.00000000000E+00 -0.00000000000E+00 -0.24283409425E+03  0.24283409425E+03  0.00000000000E+00 0.  1.
         23    2    1    2    0    0 -0.14712744380E+03 -0.80950088305E+02 -0.19612554341E+03  0.27375905535E+03  0.90991153919E+02 0.  0.
         13    1    3    3    0    0 -0.14295924881E+03 -0.84898076000E+02 -0.14005297368E+03  0.21739334297E+03  0.00000000000E+00 0. -1.
        -13    1    3    3    0    0 -0.41681949913E+01  0.39479876951E+01 -0.56072569732E+02  0.56365712385E+02  0.00000000000E+00 0.  1.
         22    1    1    2    0    0  0.14712744380E+03  0.80950088305E+02  0.88542214697E+03  0.90120573670E+03  0.00000000000E+00 0. -1.
<mgrwt>
<rscale>  0 0.95153164E+03</rscale>
<asrwt>0</asrwt>
<pdfrwt beam="1">  1        1 0.14340472E+00 0.95153164E+03</pdfrwt>
<pdfrwt beam="2">  1       -1 0.37359092E-01 0.95153164E+03</pdfrwt>
<totfact> 0.11866946E+02</totfact>
</mgrwt>
</event>
<event>
 6    1  0.1831439E-005  0.2434825E+04  0.7818608E-02  0.8426580E-01
          2   -1    0    0  501    0  0.00000000000E+00  0.00000000000E+00  0.18062069280E+04  0.18062069280E+04  0.00000000000E+00 0. -1.
         -2   -1    0    0    0  501 -0.00000000000E+00 -0.00000000000E+00 -0.82055546186E+03  0.82055546186E+03  0.00000000000E+00 0.  1.
         23    2    1    2    0    0  0.90791650693E+03 -0.80824962799E+03  0.48637707192E+03  0.13126639288E+04  0.94573194618E+02 0.  0.
         11    1    3    3    0    0  0.60354628789E+03 -0.56444372135E+03  0.37224384719E+03  0.90632793070E+03  0.00000000000E+00 0. -1.
        -11    1    3    3    0    0  0.30437021904E+03 -0.24380590664E+03  0.11413322472E+03  0.40633599808E+03  0.00000000000E+00 0.  1.
         22    1    1    2    0    0 -0.90791650693E+03  0.80824962799E+03  0.49927439424E+03  0.13140984611E+04  0.00000000000E+00 0.  1.
<mgrwt>
<rscale>  0 0.24348248E+04</rscale>
<asrwt>0</asrwt>
<pdfrwt beam="1">  1        2 0.27787799E+00 0.24348248E+04</pdfrwt>
<pdfrwt beam="2">  1       -2 0.12623930E+00 0.24348248E+04</pdfrwt>
<totfact> 0.35906478E+00</totfact>
</mgrwt>
</event>
<event>
 6    1  0.1831439E-005  0.3537272E+04  0.7818608E-02  0.8105013E-01
         -2   -1    0    0    0  501 -0.00000000000E+00  0.00000000000E+00  0.10910031365E+04  0.10910031365E+04  0.00000000000E+00 0.  1.
          2   -1    0    0  501    0  0.00000000000E+00 -0.00000000000E+00 -0.28671536603E+04  0.28671536603E+04  0.00000000000E+00 0. -1.
         23    2    1    2    0    0 -0.17582857697E+04  0.10914815481E+03 -0.10479315798E+04  0.20519078629E+04  0.93183229649E+02 0.  0.
         13    1    3    3    0    0 -0.44640523810E+03 -0.10314267276E+02 -0.28183470240E+03  0.52802918498E+03  0.00000000000E+00 0. -1.
        -13    1    3    3    0    0 -0.13118805316E+04  0.11946242208E+03 -0.76609687744E+03  0.15238786779E+04  0.00000000000E+00 0.  1.
         22    1    1    2    0    0  0.17582857697E+04 -0.10914815481E+03 -0.72821894398E+03  0.19062489339E+04  0.00000000000E+00 0. -1.
<mgrwt>
<rscale>  0 0.35372722E+04</rscale>
<asrwt>0</asrwt>
<pdfrwt beam="1">  1        2 0.44110056E+00 0.35372722E+04</pdfrwt>
<pdfrwt beam="2">  1       -2 0.16784664E+00 0.35372722E+04</pdfrwt>
<totfact> 0.38053335E-01</totfact>
</mgrwt>
</event>
<event>
 6    1  0.1831439E-005  0.1738309E+04  0.7818608E-02  0.8739812E-01
         -2   -1    0    0    0  501 -0.00000000000E+00  0.00000000000E+00  0.25444210702E+03  0.25444210702E+03  0.00000000000E+00 0.  1.
          2   -1    0    0  501    0  0.00000000000E+00 -0.00000000000E+00 -0.29689635877E+04  0.29689635877E+04  0.00000000000E+00 0. -1.
         23    2    1    2    0    0  0.62989532315E+03 -0.40442249032E+03 -0.55053446230E+03  0.93360974649E+03  0.90627235229E+02 0.  0.
         13    1    3    3    0    0  0.35937537082E+03 -0.27026025538E+03 -0.36548804038E+03  0.57945903260E+03  0.00000000000E+00 0. -1.
        -13    1    3    3    0    0  0.27051995232E+03 -0.13416223493E+03 -0.18504642192E+03  0.35415071389E+03  0.00000000000E+00 0.  1.
         22    1    1    2    0    0 -0.62989532315E+03  0.40442249032E+03 -0.21639870184E+04  0.22897959483E+04  0.00000000000E+00 0. -1.
<mgrwt>
<rscale>  0 0.17383088E+04</rscale>
<asrwt>0</asrwt>
<pdfrwt beam="1">  1        2 0.45676363E+00 0.17383088E+04</pdfrwt>
<pdfrwt beam="2">  1       -2 0.39144940E-01 0.17383088E+04</pdfrwt>
<totfact> 0.10702189E+01</totfact>
</mgrwt>
</event>
<event>
 6    1  0.1831439E-005  0.4488034E+04  0.7818608E-02  0.7912735E-01
          2   -1    0    0  501    0  0.00000000000E+00  0.00000000000E+00  0.29877815720E+04  0.29877815720E+04  0.00000000000E+00 0. -1.
         -2   -1    0    0    0  501 -0.00000000000E+00 -0.00000000000E+00 -0.16854015929E+04  0.16854015929E+04  0.00000000000E+00 0.  1.
         23    2    1    2    0    0 -0.16783514765E+03 -0.21499633034E+04  0.88733405733E+01  0.21584922760E+04  0.92191792912E+02 0.  0.
         11    1    3    3    0    0 -0.10386234678E+03 -0.13551968076E+04  0.50056172964E+02  0.13600924215E+04  0.00000000000E+00 0.  1.
        -11    1    3    3    0    0 -0.63972800870E+02 -0.79476649579E+03 -0.41182832391E+02  0.79839985456E+03  0.00000000000E+00 0. -1.
         22    1    1    2    0    0  0.16783514765E+03  0.21499633034E+04  0.12935066385E+04  0.25146908889E+04  0.00000000000E+00 0. -1.
<mgrwt>
<rscale>  0 0.44880338E+04</rscale>
<asrwt>0</asrwt>
<pdfrwt beam="1">  1        2 0.45965870E+00 0.44880338E+04</pdfrwt>
<pdfrwt beam="2">  1       -2 0.25929255E+00 0.44880338E+04</pdfrwt>
<totfact> 0.75700868E-02</totfact>
</mgrwt>
</event>
<event>
 6    1  0.1831439E-005  0.2529868E+04  0.7818608E-02  0.8392421E-01
          2   -1    0    0  501    0  0.00000000000E+00  0.00000000000E+00  0.13778356829E+04  0.13778356829E+04  0.00000000000E+00 0. -1.
         -2   -1    0    0    0  501 -0.00000000000E+00 -0.00000000000E+00 -0.11612837260E+04  0.11612837260E+04  0.00000000000E+00 0.  1.
         23    2    1    2    0    0  0.19672663264E+03  0.30131521364E+03 -0.11069765701E+04  0.11675436772E+04  0.90933412712E+02 0.  0.
         11    1    3    3    0    0  0.12144619941E+03  0.22459501809E+03 -0.65606272874E+03  0.70399602666E+03  0.00000000000E+00 0.  1.
        -11    1    3    3    0    0  0.75280433237E+02  0.76720195548E+02 -0.45091384136E+03  0.46354765059E+03  0.00000000000E+00 0. -1.
         22    1    1    2    0    0 -0.19672663264E+03 -0.30131521364E+03  0.13235285270E+04  0.13715757317E+04  0.00000000000E+00 0. -1.
<mgrwt>
<rscale>  0 0.25298681E+04</rscale>
<asrwt>0</asrwt>
<pdfrwt beam="1">  1        2 0.21197472E+00 0.25298681E+04</pdfrwt>
<pdfrwt beam="2">  1       -2 0.17865904E+00 0.25298681E+04</pdfrwt>
<totfact> 0.24561424E+00</totfact>
</mgrwt>
</event>
<event>
 6    1  0.1831439E-005  0.9617670E+03  0.7818608E-02  0.9351502E-01
          2   -1    0    0  501    0  0.00000000000E+00  0.00000000000E+00  0.11440803443E+04  0.11440803443E+04  0.00000000000E+00 0. -1.
         -2   -1    0    0    0  501 -0.00000000000E+00 -0.00000000000E+00 -0.20212647204E+03  0.20212647204E+03  0.00000000000E+00 0.  1.
         23    2    1    2    0    0 -0.22532929589E+03  0.28079865392E+03  0.91257430545E+03  0.98498066198E+03  0.88169529164E+02 0.  0.
         13    1    3    3    0    0 -0.59782651339E+02  0.72205250709E+02  0.14634960424E+03  0.17379807333E+03  0.00000000000E+00 0. -1.
        -13    1    3    3    0    0 -0.16554664455E+03  0.20859340321E+03  0.76622470121E+03  0.81118258865E+03  0.00000000000E+00 0.  1.
         22    1    1    2    0    0  0.22532929589E+03 -0.28079865392E+03  0.29379566781E+02  0.36122615433E+03  0.00000000000E+00 0.  1.
<mgrwt>
<rscale>  0 0.96176696E+03</rscale>
<asrwt>0</asrwt>
<pdfrwt beam="1">  1        2 0.17601236E+00 0.96176696E+03</pdfrwt>
<pdfrwt beam="2">  1       -2 0.31096381E-01 0.96176696E+03</pdfrwt>
<totfact> 0.19601009E+02</totfact>
</mgrwt>
</event>
<event>
 6    1  0.1831439E-005  0.4331580E+04  0.7818608E-02  0.7940804E-01
          1   -1    0    0  501    0  0.00000000000E+00  0.00000000000E+00  0.26646279219E+04  0.26646279219E+04  0.00000000000E+00 0. -1.
         -1   -1    0    0    0  501 -0.00000000000E+00 -0.00000000000E+00 -0.17603379825E+04  0.17603379825E+04  0.00000000000E+00 0.  1.
         23    2    1    2    0    0 -0.18035795809E+04  0.75733139924E+03  0.13997410107E+04  0.24070655309E+04  0.90771250423E+02 0.  0.
         11    1    3    3    0    0 -0.60684820520E+03  0.29941152775E+03  0.46763972800E+03  0.82255633381E+03  0.00000000000E+00 0.  1.
        -11    1    3    3    0    0 -0.11967313758E+04  0.45791987150E+03  0.93210128275E+03  0.15845091971E+04  0.00000000000E+00 0. -1.
         22    1    1    2    0    0  0.18035795809E+04 -0.75733139924E+03 -0.49545107139E+03  0.20179003735E+04  0.00000000000E+00 0. -1.
<mgrwt>
<rscale>  0 0.43315797E+04</rscale>
<asrwt>0</asrwt>
<pdfrwt beam="1">  1        1 0.40994276E+00 0.43315797E+04</pdfrwt>
<pdfrwt beam="2">  1       -1 0.27082123E+00 0.43315797E+04</pdfrwt>
<totfact> 0.40412560E-02</totfact>
</mgrwt>
</event>
<event>
 6    1  0.1831439E-005  0.2938015E+04  0.7818608E-02  0.8261656E-01
          1   -1    0    0  501    0  0.00000000000E+00  0.00000000000E+00  0.18860700824E+04  0.18860700824E+04  0.00000000000E+00 0. -1.
         -1   -1    0    0    0  501 -0.00000000000E+00 -0.00000000000E+00 -0.11441694043E+04  0.11441694043E+04  0.00000000000E+00 0.  1.
         23    2    1    2    0    0 -0.92073397251E+03 -0.39910819421E+03  0.14759208365E+04  0.17869277833E+04  0.87921488902E+02 0.  0.
         11    1    3    3    0    0 -0.76268934017E+03 -0.34494520845E+03  0.12805290159E+04  0.15298486157E+04  0.00000000000E+00 0. -1.
        -11    1    3    3    0    0 -0.15804463234E+03 -0.54162985760E+02  0.19539182063E+03  0.25707916759E+03  0.00000000000E+00 0.  1.
         22    1    1    2    0    0  0.92073397251E+03  0.39910819421E+03 -0.73402015845E+03  0.12433117034E+04  0.00000000000E+00 0.  1.
<mgrwt>
<rscale>  0 0.29380154E+04</rscale>
<asrwt>0</asrwt>
<pdfrwt beam="1">  1        1 0.29016463E+00 0.29380154E+04</pdfrwt>
<pdfrwt beam="2">  1       -1 0.17602606E+00 0.29380154E+04</pdfrwt>
<totfact> 0.67736068E-01</totfact>
</mgrwt>
</event>
<event>
 6    1  0.1831439E-005  0.2089475E+04  0.7818608E-02  0.8565894E-01
         -2   -1    0    0    0  501 -0.00000000000E+00  0.00000000000E+00  0.12850127500E+04  0.12850127500E+04  0.00000000000E+00 0.  1.
          2   -1    0    0  501    0  0.00000000000E+00 -0.00000000000E+00 -0.84938980288E+03  0.84938980288E+03  0.00000000000E+00 0. -1.
         23    2    1    2    0    0 -0.70019952783E+03  0.66514442794E+02  0.10045610082E+04  0.12297512017E+04  0.91878446538E+02 0.  0.
         13    1    3    3    0    0 -0.53946987794E+03  0.77655596516E+02  0.82182938767E+03  0.98613471865E+03  0.00000000000E+00 0.  1.
        -13    1    3    3    0    0 -0.16072964989E+03 -0.11141153722E+02  0.18273162051E+03  0.24361648301E+03  0.00000000000E+00 0. -1.
         22    1    1    2    0    0  0.70019952783E+03 -0.66514442794E+02 -0.56893806109E+03  0.90465135120E+03  0.00000000000E+00 0. -1.
<mgrwt>
<rscale>  0 0.20894753E+04</rscale>
<asrwt>0</asrwt>
<pdfrwt beam="1">  1        2 0.13067535E+00 0.20894753E+04</pdfrwt>
<pdfrwt beam="2">  1       -2 0.19769427E+00 0.20894753E+04</pdfrwt>
<totfact> 0.40342665E+00</totfact>
</mgrwt>
</event>
<event>
 6    1  0.1831439E-005  0.1623911E+04  0.7818608E-02  0.8805992E-01
         -2   -1    0    0    0  501 -0.00000000000E+00  0.00000000000E+00  0.53001828269E+03  0.53001828269E+03  0.00000000000E+00 0.  1.
          2   -1    0    0  501    0  0.00000000000E+00 -0.00000000000E+00 -0.12438660642E+04  0.12438660642E+04  0.00000000000E+00 0. -1.
         23    2    1    2    0    0 -0.61283505874E+03  0.32309508867E+03  0.99062190582E+02  0.70581137735E+03  0.91646807097E+02 0.  0.
         13    1    3    3    0    0 -0.55790565659E+03  0.29882498733E+03  0.63628619898E+02  0.63608466101E+03  0.00000000000E+00 0.  1.
        -13    1    3    3    0    0 -0.54929402157E+02  0.24270101335E+02  0.35433570683E+02  0.69726716340E+02  0.00000000000E+00 0. -1.
         22    1    1    2    0    0  0.61283505874E+03 -0.32309508867E+03 -0.81290997209E+03  0.10680729695E+04  0.00000000000E+00 0. -1.
<mgrwt>
<rscale>  0 0.16239110E+04</rscale>
<asrwt>0</asrwt>
<pdfrwt beam="1">  1        2 0.19136401E+00 0.16239110E+04</pdfrwt>
<pdfrwt beam="2">  1       -2 0.81541275E-01 0.16239110E+04</pdfrwt>
<totfact> 0.22607130E+01</totfact>
</mgrwt>
</event>
<event>
 6    1  0.1831439E-005  0.6295807E+03  0.7818608E-02  0.9845867E-01
          1   -1    0    0  501    0  0.00000000000E+00  0.00000000000E+00  0.36158599634E+03  0.36158599634E+03  0.00000000000E+00 0. -1.
         -1   -1    0    0    0  501 -0.00000000000E+00 -0.00000000000E+00 -0.27405087716E+03  0.27405087716E+03  0.00000000000E+00 0.  1.
         23    2    1    2    0    0  0.27484034958E+03  0.24210319762E+02 -0.95930263396E+02  0.30430184073E+03  0.85285623058E+02 0.  0.
         11    1    3    3    0    0  0.23181792980E+03  0.51684134759E+02 -0.74281141004E+02  0.24885435554E+03  0.00000000000E+00 0.  1.
        -11    1    3    3    0    0  0.43022419778E+02 -0.27473814997E+02 -0.21649122392E+02  0.55447485194E+02  0.00000000000E+00 0. -1.
         22    1    1    2    0    0 -0.27484034958E+03 -0.24210319762E+02  0.18346538257E+03  0.33133503277E+03  0.00000000000E+00 0. -1.
<mgrwt>
<rscale>  0 0.62958068E+03</rscale>
<asrwt>0</asrwt>
<pdfrwt beam="1">  1        1 0.55628615E-01 0.62958068E+03</pdfrwt>
<pdfrwt beam="2">  1       -1 0.42161673E-01 0.62958068E+03</pdfrwt>
<totfact> 0.38410552E+02</totfact>
</mgrwt>
</event>
<event>
 6    1  0.1831439E-005  0.2494206E+04  0.7818608E-02  0.8405053E-01
         -1   -1    0    0    0  501 -0.00000000000E+00  0.00000000000E+00  0.83290516240E+03  0.83290516240E+03  0.00000000000E+00 0.  1.
          1   -1    0    0  501    0  0.00000000000E+00 -0.00000000000E+00 -0.18672782351E+04  0.18672782351E+04  0.00000000000E+00 0. -1.
         23    2    1    2    0    0  0.62244243144E+03 -0.26754808313E+03  0.61316004366E+03  0.91878452955E+03  0.95829094515E+02 0.  0.
         11    1    3    3    0    0  0.16423996468E+03 -0.10859717329E+03  0.14332741321E+03  0.24353820937E+03  0.00000000000E+00 0.  1.
        -11    1    3    3    0    0  0.45820246676E+03 -0.15895090984E+03  0.46983263045E+03  0.67524632018E+03  0.00000000000E+00 0. -1.
         22    1    1    2    0    0 -0.62244243144E+03  0.26754808313E+03 -0.16475331164E+04  0.17813988680E+04  0.00000000000E+00 0. -1.
<mgrwt>
<rscale>  0 0.24942058E+04</rscale>
<asrwt>0</asrwt>
<pdfrwt beam="1">  1        1 0.28727357E+00 0.24942058E+04</pdfrwt>
<pdfrwt beam="2">  1       -1 0.12813926E+00 0.24942058E+04</pdfrwt>
<totfact> 0.17140113E+00</totfact>
</mgrwt>
</event>
<event>
 6    1  0.1831439E-005  0.3760527E+04  0.7818608E-02  0.8054679E-01
         -2   -1    0    0    0  501 -0.00000000000E+00  0.00000000000E+00  0.10445228095E+04  0.10445228095E+04  0.00000000000E+00 0.  1.
          2   -1    0    0  501    0  0.00000000000E+00 -0.00000000000E+00 -0.33846939618E+04  0.33846939618E+04  0.00000000000E+00 0. -1.
         23    2    1    2    0    0 -0.11953623553E+04 -0.77981139268E+02  0.53453929385E+03  0.13149058736E+04  0.90955929317E+02 0.  0.
         11    1    3    3    0    0 -0.50082935931E+03 -0.75114406263E+02  0.24179966828E+03  0.56119453023E+03  0.00000000000E+00 0. -1.
        -11    1    3    3    0    0 -0.69453299600E+03 -0.28667330057E+01  0.29273962556E+03  0.75371134333E+03  0.00000000000E+00 0.  1.
         22    1    1    2    0    0  0.11953623553E+04  0.77981139268E+02 -0.28747104462E+04  0.31143108978E+04  0.00000000000E+00 0. -1.
<mgrwt>
<rscale>  0 0.37605266E+04</rscale>
<asrwt>0</asrwt>
<pdfrwt beam="1">  1        2 0.52072214E+00 0.37605266E+04</pdfrwt>
<pdfrwt beam="2">  1       -2 0.16069582E+00 0.37605266E+04</pdfrwt>
<totfact> 0.19526809E-01</totfact>
</mgrwt>
</event>
<event>
 6    1  0.1831439E-005  0.2590024E+04  0.7818608E-02  0.8371598E-01
         -1   -1    0    0    0  501 -0.00000000000E+00  0.00000000000E+00  0.70722548604E+03  0.70722548604E+03  0.00000000000E+00 0.  1.
          1   -1    0    0  501    0  0.00000000000E+00 -0.00000000000E+00 -0.23713173534E+04  0.23713173534E+04  0.00000000000E+00 0. -1.
         23    2    1    2    0    0 -0.18519592366E+03 -0.13217383974E+03 -0.23464159827E+04  0.23592837397E+04  0.93724844944E+02 0.  0.
         13    1    3    3    0    0 -0.57055822524E+02 -0.52268428219E+02 -0.12663398779E+04  0.12687017151E+04  0.00000000000E+00 0. -1.
        -13    1    3    3    0    0 -0.12814010113E+03 -0.79905411521E+02 -0.10800761048E+04  0.10905820247E+04  0.00000000000E+00 0.  1.
         22    1    1    2    0    0  0.18519592366E+03  0.13217383974E+03  0.68232411538E+03  0.71925909969E+03  0.00000000000E+00 0.  1.
<mgrwt>
<rscale>  0 0.25900240E+04</rscale>
<asrwt>0</asrwt>
<pdfrwt beam="1">  1        1 0.36481806E+00 0.25900240E+04</pdfrwt>
<pdfrwt beam="2">  1       -1 0.10880392E+00 0.25900240E+04</pdfrwt>
<totfact> 0.11474147E+00</totfact>
</mgrwt>
</event>
<event>
 6    1  0.1831439E-005  0.1695071E+04  0.7818608E-02  0.8764180E-01
          1   -1    0    0  501    0  0.00000000000E+00  0.00000000000E+00  0.37019287984E+04  0.37019287984E+04  0.00000000000E+00 0. -1.
         -1   -1    0    0    0  501 -0.00000000000E+00 -0.00000000000E+00 -0.19403846426E+03  0.19403846426E+03  0.00000000000E+00 0.  1.
         23    2    1    2    0    0 -0.71431645450E+03  0.30397622315E+03  0.99047221221E+03  0.12615710240E+04  0.88750797901E+02 0.  0.
         13    1    3    3    0    0 -0.27961820480E+03  0.14142081779E+03  0.46206503609E+03  0.55829229418E+03  0.00000000000E+00 0.  1.
        -13    1    3    3    0    0 -0.43469824969E+03  0.16255540535E+03  0.52840717611E+03  0.70327872985E+03  0.00000000000E+00 0. -1.
         22    1    1    2    0    0  0.71431645450E+03 -0.30397622315E+03  0.25174181219E+04  0.26343962386E+04  0.00000000000E+00 0. -1.
<mgrwt>
<rscale>  0 0.16950712E+04</rscale>
<asrwt>0</asrwt>
<pdfrwt beam="1">  1        1 0.56952746E+00 0.16950712E+04</pdfrwt>
<pdfrwt beam="2">  1       -1 0.29852074E-01 0.16950712E+04</pdfrwt>
<totfact> 0.17017505E+00</totfact>
</mgrwt>
</event>
<event>
 6    1  0.1831439E-005  0.3003159E+04  0.7818608E-02  0.8242829E-01
          2   -1    0    0  501    0  0.00000000000E+00  0.00000000000E+00  0.14642217347E+04  0.14642217347E+04  0.00000000000E+00 0. -1.
         -2   -1    0    0    0  501 -0.00000000000E+00 -0.00000000000E+00 -0.15398905179E+04  0.15398905179E+04  0.00000000000E+00 0.  1.
         23    2    1    2    0    0  0.71263205795E+03  0.87734080759E+03 -0.10245982042E+04  0.15282943815E+04  0.91164104625E+02 0.  0.
         11    1    3    3    0    0  0.67475058436E+03  0.82102256518E+03 -0.93212120138E+03  0.14135828019E+04  0.00000000000E+00 0.  1.
        -11    1    3    3    0    0  0.37881473590E+02  0.56318242402E+02 -0.92477002774E+02  0.11471157967E+03  0.00000000000E+00 0. -1.
         22    1    1    2    0    0 -0.71263205795E+03 -0.87734080759E+03  0.94892942099E+03  0.14758178711E+04  0.00000000000E+00 0. -1.
<mgrwt>
<rscale>  0 0.30031591E+04</rscale>
<asrwt>0</asrwt>
<pdfrwt beam="1">  1        2 0.22526488E+00 0.30031591E+04</pdfrwt>
<pdfrwt beam="2">  1       -2 0.23690623E+00 0.30031591E+04</pdfrwt>
<totfact> 0.88129415E-01</totfact>
</mgrwt>
</event>
<event>
 6    1  0.1831439E-005  0.2077854E+04  0.7818608E-02  0.8571062E-01
          2   -1    0    0  501    0  0.00000000000E+00  0.00000000000E+00  0.10563400217E+04  0.10563400217E+04  0.00000000000E+00 0. -1.
         -2   -1    0    0    0  501 -0.00000000000E+00 -0.00000000000E+00 -0.10218007059E+04  0.10218007059E+04  0.00000000000E+00 0.  1.
         23    2    1    2    0    0  0.57791318524E+03  0.75542341047E+03  0.43024383765E+03  0.10479804258E+04  0.92222742838E+02 0.  0.
         11    1    3    3    0    0  0.13689763895E+03  0.24313210212E+03  0.14264387152E+03  0.31337111660E+03  0.00000000000E+00 0.  1.
        -11    1    3    3    0    0  0.44101554629E+03  0.51229130834E+03  0.28759996613E+03  0.73460930922E+03  0.00000000000E+00 0. -1.
         22    1    1    2    0    0 -0.57791318524E+03 -0.75542341047E+03 -0.39570452189E+03  0.10301603018E+04  0.00000000000E+00 0.  1.
<mgrwt>
<rscale>  0 0.20778537E+04</rscale>
<asrwt>0</asrwt>
<pdfrwt beam="1">  1        2 0.16251385E+00 0.20778537E+04</pdfrwt>
<pdfrwt beam="2">  1       -2 0.15720011E+00 0.20778537E+04</pdfrwt>
<totfact> 0.56584807E+00</totfact>
</mgrwt>
</event>
<event>
 6    1  0.1831439E-005  0.1926826E+04  0.7818608E-02  0.8641617E-01
         -1   -1    0    0    0  501 -0.00000000000E+00  0.00000000000E+00  0.70216307333E+03  0.70216307333E+03  0.00000000000E+00 0.  1.
          1   -1    0    0  501    0  0.00000000000E+00 -0.00000000000E+00 -0.13218651424E+04  0.13218651424E+04  0.00000000000E+00 0. -1.
         23    2    1    2    0    0  0.17165398811E+03 -0.90660392175E+03 -0.59361623588E+03  0.11009484611E+04  0.91167516336E+02 0.  0.
         13    1    3    3    0    0  0.40368288990E+02 -0.10428083439E+03 -0.98772488634E+02  0.14919817589E+03  0.00000000000E+00 0.  1.
        -13    1    3    3    0    0  0.13128569912E+03 -0.80232308736E+03 -0.49484374725E+03  0.95175028526E+03  0.00000000000E+00 0. -1.
         22    1    1    2    0    0 -0.17165398811E+03  0.90660392175E+03 -0.26085833167E+02  0.92307975455E+03  0.00000000000E+00 0.  1.
<mgrwt>
<rscale>  0 0.19268263E+04</rscale>
<asrwt>0</asrwt>
<pdfrwt beam="1">  1        1 0.20336387E+00 0.19268263E+04</pdfrwt>
<pdfrwt beam="2">  1       -1 0.10802509E+00 0.19268263E+04</pdfrwt>
<totfact> 0.64886330E+00</totfact>
</mgrwt>
</event>
<event>
 6    1  0.1831439E-005  0.3261204E+04  0.7818608E-02  0.8172838E-01
          1   -1    0    0  501    0  0.00000000000E+00  0.00000000000E+00  0.19470890279E+04  0.19470890279E+04  0.00000000000E+00 0. -1.
         -1   -1    0    0    0  501 -0.00000000000E+00 -0.00000000000E+00 -0.13655583386E+04  0.13655583386E+04  0.00000000000E+00 0.  1.
         23    2    1    2    0    0 -0.99452042795E+03 -0.79159789770E+03  0.13263601794E+04  0.18393961718E+04  0.91917561909E+02 0.  0.
         11    1    3    3    0    0 -0.39880226611E+03 -0.27717170764E+03  0.46084984474E+03  0.66951473649E+03  0.00000000000E+00 0. -1.
        -11    1    3    3    0    0 -0.59571816184E+03 -0.51442619006E+03  0.86551033462E+03  0.11698814353E+04  0.00000000000E+00 0.  1.
         22    1    1    2    0    0  0.99452042795E+03  0.79159789770E+03 -0.74482949007E+03  0.14732511946E+04  0.00000000000E+00 0.  1.
<mgrwt>
<rscale>  0 0.32612045E+04</rscale>
<asrwt>0</asrwt>
<pdfrwt beam="1">  1        1 0.29955216E+00 0.32612045E+04</pdfrwt>
<pdfrwt beam="2">  1       -1 0.21008590E+00 0.32612045E+04</pdfrwt>
<totfact> 0.34591740E-01</totfact>
</mgrwt>
</event>
<event>
 6    1  0.1831439E-005  0.3012618E+04  0.7818608E-02  0.8240137E-01
          2   -1    0    0  501    0  0.00000000000E+00  0.00000000000E+00  0.33334550253E+04  0.33334550253E+04  0.00000000000E+00 0. -1.
         -2   -1    0    0    0  501 -0.00000000000E+00 -0.00000000000E+00 -0.68066506187E+03  0.68066506187E+03  0.00000000000E+00 0.  1.
         23    2    1    2    0    0 -0.12621671238E+04 -0.49772557279E+03  0.21952623017E+04  0.25822932278E+04  0.90912852229E+02 0.  0.
         13    1    3    3    0    0 -0.68420880927E+03 -0.22217849017E+03  0.11428986574E+04  0.13504526342E+04  0.00000000000E+00 0.  1.
        -13    1    3    3    0    0 -0.57795831452E+03 -0.27554708262E+03  0.10523636443E+04  0.12318405936E+04  0.00000000000E+00 0. -1.
         22    1    1    2    0    0  0.12621671238E+04  0.49772557279E+03  0.45752766177E+03  0.14318268595E+04  0.00000000000E+00 0.  1.
<mgrwt>
<rscale>  0 0.30126177E+04</rscale>
<asrwt>0</asrwt>
<pdfrwt beam="1">  1        2 0.51283923E+00 0.30126177E+04</pdfrwt>
<pdfrwt beam="2">  1       -2 0.10471770E+00 0.30126177E+04</pdfrwt>
<totfact> 0.66870655E-01</totfact>
</mgrwt>
</event>
<event>
 6    1  0.1831439E-005  0.2024890E+04  0.7818608E-02  0.8595071E-01
         -2   -1    0    0    0  501 -0.00000000000E+00  0.00000000000E+00  0.66915307257E+03  0.66915307257E+03  0.00000000000E+00 0.  1.
          2   -1    0    0  501    0  0.00000000000E+00 -0.00000000000E+00 -0.15318544440E+04  0.15318544440E+04  0.00000000000E+00 0. -1.
         23    2    1    2    0    0 -0.68973888860E+03 -0.85603484760E+02  0.36504516554E+03  0.79018178314E+03  0.89786337838E+02 0.  0.
         11    1    3    3    0    0 -0.15273828158E+03 -0.26358292426E+02  0.12443524362E+03  0.19876587255E+03  0.00000000000E+00 0. -1.
        -11    1    3    3    0    0 -0.53700060703E+03 -0.59245192334E+02  0.24060992193E+03  0.59141591058E+03  0.00000000000E+00 0.  1.
         22    1    1    2    0    0  0.68973888860E+03  0.85603484760E+02 -0.12277465369E+04  0.14108257334E+04  0.00000000000E+00 0. -1.
<mgrwt>
<rscale>  0 0.20248902E+04</rscale>
<asrwt>0</asrwt>
<pdfrwt beam="1">  1        2 0.23566992E+00 0.20248902E+04</pdfrwt>
<pdfrwt beam="2">  1       -2 0.10294663E+00 0.20248902E+04</pdfrwt>
<totfact> 0.87044011E+00</totfact>
</mgrwt>
</event>
<event>
 6    1  0.1831439E-005  0.1744477E+04  0.7818608E-02  0.8736396E-01
          1   -1    0    0  501    0  0.00000000000E+00  0.00000000000E+00  0.67357017017E+03  0.67357017017E+03  0.00000000000E+00 0. -1.
         -1   -1    0    0    0  501 -0.00000000000E+00 -0.00000000000E+00 -0.11295036242E+04  0.11295036242E+04  0.00000000000E+00 0.  1.
         23    2    1    2    0    0 -0.59072524558E+03 -0.13397571259E+02 -0.88815627619E+03  0.10709861093E+04  0.95151797927E+02 0.  0.
         11    1    3    3    0    0 -0.12288982977E+03  0.35875875123E+02 -0.18453368533E+03  0.22459222982E+03  0.00000000000E+00 0. -1.
        -11    1    3    3    0    0 -0.46783541582E+03 -0.49273446382E+02 -0.70362259086E+03  0.84639387945E+03  0.00000000000E+00 0.  1.
         22    1    1    2    0    0  0.59072524558E+03  0.13397571259E+02  0.43222282216E+03  0.73208768510E+03  0.00000000000E+00 0. -1.
<mgrwt>
<rscale>  0 0.17444769E+04</rscale>
<asrwt>0</asrwt>
<pdfrwt beam="1">  1        1 0.10362618E+00 0.17444769E+04</pdfrwt>
<pdfrwt beam="2">  1       -1 0.17376979E+00 0.17444769E+04</pdfrwt>
<totfact> 0.63213358E+00</totfact>
</mgrwt>
</event>
<event>
 6    1  0.1831439E-005  0.1304407E+04  0.7818608E-02  0.9026078E-01
          1   -1    0    0  501    0  0.00000000000E+00  0.00000000000E+00  0.39649695063E+03  0.39649695063E+03  0.00000000000E+00 0. -1.
         -1   -1    0    0    0  501 -0.00000000000E+00 -0.00000000000E+00 -0.10728187011E+04  0.10728187011E+04  0.00000000000E+00 0.  1.
         23    2    1    2    0    0  0.72160325360E+02  0.41721315650E+03 -0.89385712278E+03  0.99329509682E+03  0.91545960676E+02 0.  0.
         13    1    3    3    0    0  0.86536831048E+02  0.37384154961E+03 -0.75174690881E+03  0.84401987077E+03  0.00000000000E+00 0. -1.
        -13    1    3    3    0    0 -0.14376505688E+02  0.43371606893E+02 -0.14211021397E+03  0.14927522606E+03  0.00000000000E+00 0.  1.
         22    1    1    2    0    0 -0.72160325360E+02 -0.41721315650E+03  0.21753537228E+03  0.47602055493E+03  0.00000000000E+00 0. -1.
<mgrwt>
<rscale>  0 0.13044069E+04</rscale>
<asrwt>0</asrwt>
<pdfrwt beam="1">  1        1 0.60999530E-01 0.13044069E+04</pdfrwt>
<pdfrwt beam="2">  1       -1 0.16504903E+00 0.13044069E+04</pdfrwt>
<totfact> 0.15964425E+01</totfact>
</mgrwt>
</event>
<event>
 6    1  0.1831439E-005  0.2255794E+04  0.7818608E-02  0.8495558E-01
         -1   -1    0    0    0  501 -0.00000000000E+00  0.00000000000E+00  0.60478929877E+03  0.60478929877E+03  0.00000000000E+00 0.  1.
          1   -1    0    0  501    0  0.00000000000E+00 -0.00000000000E+00 -0.21034616237E+04  0.21034616237E+04  0.00000000000E+00 0. -1.
         23    2    1    2    0    0  0.12275106996E+03  0.13525211591E+03 -0.20846091755E+04  0.20945058998E+04  0.89434834647E+02 0.  0.
         13    1    3    3    0    0  0.47704055410E+02  0.35989838135E+02 -0.11629160740E+04  0.11644504027E+04  0.00000000000E+00 0. -1.
        -13    1    3    3    0    0  0.75047014552E+02  0.99262277772E+02 -0.92169310157E+03  0.93005549709E+03  0.00000000000E+00 0.  1.
         22    1    1    2    0    0 -0.12275106996E+03 -0.13525211591E+03  0.58593685056E+03  0.61374502269E+03  0.00000000000E+00 0.  1.
<mgrwt>
<rscale>  0 0.22557935E+04</rscale>
<asrwt>0</asrwt>
<pdfrwt beam="1">  1        1 0.32360947E+00 0.22557935E+04</pdfrwt>
<pdfrwt beam="2">  1       -1 0.93044510E-01 0.22557935E+04</pdfrwt>
<totfact> 0.25795576E+00</totfact>
</mgrwt>
</event>
<event>
 6    1  0.1831439E-005  0.1634341E+04  0.7818608E-02  0.8799724E-01
         -1   -1    0    0    0  501 -0.00000000000E+00  0.00000000000E+00  0.38827059101E+03  0.38827059101E+03  0.00000000000E+00 0.  1.
          1   -1    0    0  501    0  0.00000000000E+00 -0.00000000000E+00 -0.17198520954E+04  0.17198520954E+04  0.00000000000E+00 0. -1.
         23    2    1    2    0    0  0.24590443402E+03  0.26187856658E+03  0.27551374836E+03  0.46136692865E+03  0.88894561182E+02 0.  0.
         11    1    3    3    0    0  0.11215265230E+03  0.77276348963E+02  0.64369442712E+02  0.15064287797E+03  0.00000000000E+00 0. -1.
        -11    1    3    3    0    0  0.13375178172E+03  0.18460221762E+03  0.21114430565E+03  0.31072405068E+03  0.00000000000E+00 0.  1.
         22    1    1    2    0    0 -0.24590443402E+03 -0.26187856658E+03 -0.16070952528E+04  0.16467557578E+04  0.00000000000E+00 0. -1.
<mgrwt>
<rscale>  0 0.16343414E+04</rscale>
<asrwt>0</asrwt>
<pdfrwt beam="1">  1        1 0.26459263E+00 0.16343414E+04</pdfrwt>
<pdfrwt beam="2">  1       -1 0.59733937E-01 0.16343414E+04</pdfrwt>
<totfact> 0.12559819E+01</totfact>
</mgrwt>
</event>
<event>
 6    1  0.1831439E-005  0.6892554E+03  0.7818608E-02  0.9735785E-01
         -2   -1    0    0    0  501 -0.00000000000E+00  0.00000000000E+00  0.23037440552E+03  0.23037440552E+03  0.00000000000E+00 0.  1.
          2   -1    0    0  501    0  0.00000000000E+00 -0.00000000000E+00 -0.51554445919E+03  0.51554445919E+03  0.00000000000E+00 0. -1.
         23    2    1    2    0    0  0.14558251242E+03  0.27623279076E+03 -0.35643888112E+01  0.32544226239E+03  0.91657725611E+02 0.  0.
         11    1    3    3    0    0  0.12801691315E+02  0.96152282430E+02 -0.26428793414E+02  0.10053668902E+03  0.00000000000E+00 0. -1.
        -11    1    3    3    0    0  0.13278082111E+03  0.18008050833E+03  0.22864404603E+02  0.22490557337E+03  0.00000000000E+00 0.  1.
         22    1    1    2    0    0 -0.14558251242E+03 -0.27623279076E+03 -0.28160566487E+03  0.42047660232E+03  0.00000000000E+00 0. -1.
<mgrwt>
<rscale>  0 0.68925539E+03</rscale>
<asrwt>0</asrwt>
<pdfrwt beam="1">  1        2 0.79314532E-01 0.68925539E+03</pdfrwt>
<pdfrwt beam="2">  1       -2 0.35442217E-01 0.68925539E+03</pdfrwt>
<totfact> 0.44755142E+02</totfact>
</mgrwt>
</event>
<event>
 6    1  0.1831439E-005  0.1693765E+04  0.7818608E-02  0.8764929E-01
          2   -1    0    0  501    0  0.00000000000E+00  0.00000000000E+00  0.15899234846E+04  0.15899234846E+04  0.00000000000E+00 0. -1.
         -2   -1    0    0    0  501 -0.00000000000E+00 -0.00000000000E+00 -0.45109694584E+03  0.45109694584E+03  0.00000000000E+00 0.  1.
         23    2    1    2    0    0  0.41139415521E+03 -0.65089480820E+03  0.98899195600E+03  0.12565718315E+04  0.89210292662E+02 0.  0.
         11    1    3    3    0    0  0.25276918201E+03 -0.44340803232E+03  0.70990567061E+03  0.87433918113E+03  0.00000000000E+00 0. -1.
        -11    1    3    3    0    0  0.15862497320E+03 -0.20748677587E+03  0.27908628539E+03  0.38223265033E+03  0.00000000000E+00 0.  1.
         22    1    1    2    0    0 -0.41139415521E+03  0.65089480820E+03  0.14983458278E+03  0.78444859900E+03  0.00000000000E+00 0.  1.
<mgrwt>
<rscale>  0 0.16937646E+04</rscale>
<asrwt>0</asrwt>
<pdfrwt beam="1">  1        2 0.24460361E+00 0.16937646E+04</pdfrwt>
<pdfrwt beam="2">  1       -2 0.69399531E-01 0.16937646E+04</pdfrwt>
<totfact> 0.20371908E+01</totfact>
</mgrwt>
</event>
<event>
 6    1  0.1831439E-005  0.1201444E+04  0.7818608E-02  0.9111594E-01
          2   -1    0    0  501    0  0.00000000000E+00  0.00000000000E+00  0.33105549334E+03  0.33105549334E+03  0.00000000000E+00 0. -1.
         -2   -1    0    0    0  501 -0.00000000000E+00 -0.00000000000E+00 -0.10900496931E+04  0.10900496931E+04  0.00000000000E+00 0.  1.
         23    2    1    2    0    0 -0.34419947266E+03  0.17709696942E+03  0.15652310192E+03  0.42711899778E+03  0.89969679747E+02 0.  0.
         11    1    3    3    0    0 -0.24413097904E+03  0.10369827739E+03  0.65483300304E+02  0.27320565565E+03  0.00000000000E+00 0.  1.
        -11    1    3    3    0    0 -0.10006849362E+03  0.73398692031E+02  0.91039801620E+02  0.15391334213E+03  0.00000000000E+00 0. -1.
         22    1    1    2    0    0  0.34419947266E+03 -0.17709696942E+03 -0.91551730169E+03  0.99398618866E+03  0.00000000000E+00 0.  1.
<mgrwt>
<rscale>  0 0.12014440E+04</rscale>
<asrwt>0</asrwt>
<pdfrwt beam="1">  1        2 0.50931614E-01 0.12014440E+04</pdfrwt>
<pdfrwt beam="2">  1       -2 0.16769995E+00 0.12014440E+04</pdfrwt>
<totfact> 0.21454529E+01</totfact>
</mgrwt>
</event>
<event>
 6    1  0.1831439E-005  0.2311302E+04  0.7818608E-02  0.8473478E-01
         -2   -1    0    0    0  501 -0.00000000000E+00  0.00000000000E+00  0.39847699151E+03  0.39847699151E+03  0.00000000000E+00 0. -1.
          2   -1    0    0  501    0  0.00000000000E+00 -0.00000000000E+00 -0.33515851199E+04  0.33515851199E+04  0.00000000000E+00 0.  1.
         23    2    1    2    0    0 -0.11329409497E+04 -0.71677325636E+02 -0.18134683745E+04  0.21415001439E+04  0.93072480330E+02 0.  0.
         11    1    3    3    0    0 -0.39655316459E+03  0.17268138959E+02 -0.65747910207E+03  0.76800479857E+03  0.00000000000E+00 0.  1.
        -11    1    3    3    0    0 -0.73638778513E+03 -0.88945464595E+02 -0.11559892724E+04  0.13734953454E+04  0.00000000000E+00 0. -1.
         22    1    1    2    0    0  0.11329409497E+04  0.71677325636E+02 -0.11396397538E+04  0.16085619674E+04  0.00000000000E+00 0. -1.
<mgrwt>
<rscale>  0 0.23113023E+04</rscale>
<asrwt>0</asrwt>
<pdfrwt beam="1">  1        2 0.51562846E+00 0.23113023E+04</pdfrwt>
<pdfrwt beam="2">  1       -2 0.61304154E-01 0.23113023E+04</pdfrwt>
<totfact> 0.23095027E+00</totfact>
</mgrwt>
</event>
<event>
 6    1  0.1831439E-005  0.7634529E+03  0.7818608E-02  0.9614478E-01
          2   -1    0    0  501    0  0.00000000000E+00  0.00000000000E+00  0.12493860929E+04  0.12493860929E+04  0.00000000000E+00 0. -1.
         -2   -1    0    0    0  501 -0.00000000000E+00 -0.00000000000E+00 -0.11662933417E+03  0.11662933417E+03  0.00000000000E+00 0.  1.
         23    2    1    2    0    0 -0.10556303972E+03 -0.25965639039E+03  0.12537634320E+03  0.32036716019E+03  0.91383223127E+02 0.  0.
         11    1    3    3    0    0  0.29996227035E+01 -0.61090493731E+02 -0.98754000034E+00  0.61172063852E+02  0.00000000000E+00 0. -1.
        -11    1    3    3    0    0 -0.10856266242E+03 -0.19856589666E+03  0.12636388320E+03  0.25919509634E+03  0.00000000000E+00 0.  1.
         22    1    1    2    0    0  0.10556303972E+03  0.25965639039E+03  0.10073804156E+04  0.10456482669E+04  0.00000000000E+00 0. -1.
<mgrwt>
<rscale>  0 0.76345286E+03</rscale>
<asrwt>0</asrwt>
<pdfrwt beam="1">  1        2 0.19221324E+00 0.76345286E+03</pdfrwt>
<pdfrwt beam="2">  1       -2 0.17942975E-01 0.76345286E+03</pdfrwt>
<totfact> 0.46005369E+02</totfact>
</mgrwt>
</event>
<event>
 6    1  0.1831439E-005  0.4937447E+04  0.7818608E-02  0.7838230E-01
         -1   -1    0    0    0  501 -0.00000000000E+00  0.00000000000E+00  0.29886410809E+04  0.29886410809E+04  0.00000000000E+00 0.  1.
          1   -1    0    0  501    0  0.00000000000E+00 -0.00000000000E+00 -0.20392534619E+04  0.20392534619E+04  0.00000000000E+00 0. -1.
         23    2    1    2    0    0 -0.28095708278E+03 -0.16949372274E+04  0.22789538424E+04  0.28554545714E+04  0.90780541635E+02 0.  0.
         13    1    3    3    0    0 -0.18555436256E+03 -0.12786807842E+04  0.16632628028E+04  0.21061571928E+04  0.00000000000E+00 0.  1.
        -13    1    3    3    0    0 -0.95402720218E+02 -0.41625644320E+03  0.61569103953E+03  0.74929737867E+03  0.00000000000E+00 0. -1.
         22    1    1    2    0    0  0.28095708278E+03  0.16949372274E+04 -0.13295662233E+04  0.21724399714E+04  0.00000000000E+00 0. -1.
<mgrwt>
<rscale>  0 0.49374474E+04</rscale>
<asrwt>0</asrwt>
<pdfrwt beam="1">  1        1 0.31373130E+00 0.49374474E+04</pdfrwt>
<pdfrwt beam="2">  1       -1 0.45979093E+00 0.49374474E+04</pdfrwt>
<totfact> 0.56493071E-03</totfact>
</mgrwt>
</event>
<event>
 6    1  0.1831439E-005  0.1072163E+04  0.7818608E-02  0.9232757E-01
          2   -1    0    0  501    0  0.00000000000E+00  0.00000000000E+00  0.10316934128E+04  0.10316934128E+04  0.00000000000E+00 0. -1.
         -2   -1    0    0    0  501 -0.00000000000E+00 -0.00000000000E+00 -0.27855504298E+03  0.27855504298E+03  0.00000000000E+00 0.  1.
         23    2    1    2    0    0 -0.25460556959E+03 -0.36140120384E+03  0.74097629758E+03  0.86800107906E+03  0.94578927200E+02 0.  0.
         11    1    3    3    0    0 -0.68923490189E+02 -0.15403410249E+03  0.21932020729E+03  0.27672785468E+03  0.00000000000E+00 0. -1.
        -11    1    3    3    0    0 -0.18568207940E+03 -0.20736710135E+03  0.52165609029E+03  0.59127322438E+03  0.00000000000E+00 0.  1.
         22    1    1    2    0    0  0.25460556959E+03  0.36140120384E+03  0.12162072231E+02  0.44224737671E+03  0.00000000000E+00 0.  1.
<mgrwt>
<rscale>  0 0.10721631E+04</rscale>
<asrwt>0</asrwt>
<pdfrwt beam="1">  1        2 0.15872206E+00 0.10721631E+04</pdfrwt>
<pdfrwt beam="2">  1       -2 0.42854622E-01 0.10721631E+04</pdfrwt>
<totfact> 0.12334143E+02</totfact>
</mgrwt>
</event>
<event>
 6    1  0.1831439E-005  0.3288081E+04  0.7818608E-02  0.8165935E-01
          2   -1    0    0  501    0  0.00000000000E+00  0.00000000000E+00  0.31517101944E+04  0.31517101944E+04  0.00000000000E+00 0. -1.
         -2   -1    0    0    0  501 -0.00000000000E+00 -0.00000000000E+00 -0.85758792838E+03  0.85758792838E+03  0.00000000000E+00 0.  1.
         23    2    1    2    0    0  0.12943205428E+04  0.17291933703E+03 -0.67823782900E+02  0.13104176321E+04  0.86183179168E+02 0.  0.
         13    1    3    3    0    0  0.96100312121E+03  0.10943759388E+03 -0.17308529713E+02  0.96736920104E+03  0.00000000000E+00 0.  1.
        -13    1    3    3    0    0  0.33331742164E+03  0.63481743147E+02 -0.50515253187E+02  0.34304843111E+03  0.00000000000E+00 0. -1.
         22    1    1    2    0    0 -0.12943205428E+04 -0.17291933703E+03  0.23619460489E+04  0.26988804906E+04  0.00000000000E+00 0. -1.
<mgrwt>
<rscale>  0 0.32880807E+04</rscale>
<asrwt>0</asrwt>
<pdfrwt beam="1">  1        2 0.48487849E+00 0.32880807E+04</pdfrwt>
<pdfrwt beam="2">  1       -2 0.13193661E+00 0.32880807E+04</pdfrwt>
<totfact> 0.48700901E-01</totfact>
</mgrwt>
</event>
<event>
 6    1  0.1831439E-005  0.1096341E+04  0.7818608E-02  0.9208766E-01
         -1   -1    0    0    0  501 -0.00000000000E+00  0.00000000000E+00  0.30648079927E+03  0.30648079927E+03  0.00000000000E+00 0.  1.
          1   -1    0    0  501    0  0.00000000000E+00 -0.00000000000E+00 -0.98045553268E+03  0.98045553268E+03  0.00000000000E+00 0. -1.
         23    2    1    2    0    0 -0.42825817822E+03 -0.58292232010E+00 -0.73399347685E+03  0.85449251296E+03  0.89474150642E+02 0.  0.
         11    1    3    3    0    0 -0.19101600267E+03  0.29436101198E+02 -0.26428113817E+03  0.32741123579E+03  0.00000000000E+00 0.  1.
        -11    1    3    3    0    0 -0.23724217555E+03 -0.30019023518E+02 -0.46971233868E+03  0.52708127717E+03  0.00000000000E+00 0. -1.
         22    1    1    2    0    0  0.42825817822E+03  0.58292232010E+00  0.60018743439E+02  0.43244381898E+03  0.00000000000E+00 0.  1.
<mgrwt>
<rscale>  0 0.10963408E+04</rscale>
<asrwt>0</asrwt>
<pdfrwt beam="1">  1        1 0.15083931E+00 0.10963408E+04</pdfrwt>
<pdfrwt beam="2">  1       -1 0.47150892E-01 0.10963408E+04</pdfrwt>
<totfact> 0.70062132E+01</totfact>
</mgrwt>
</event>
<event>
 6    1  0.1831439E-005  0.2339398E+04  0.7818608E-02  0.8462547E-01
         -1   -1    0    0    0  501 -0.00000000000E+00  0.00000000000E+00  0.11238677434E+04  0.11238677434E+04  0.00000000000E+00 0.  1.
          1   -1    0    0  501    0  0.00000000000E+00 -0.00000000000E+00 -0.12173992580E+04  0.12173992580E+04  0.00000000000E+00 0. -1.
         23    2    1    2    0    0  0.10750349729E+04  0.42018239060E+03 -0.22388012048E+03  0.11796972904E+04  0.96488104953E+02 0.  0.
         13    1    3    3    0    0  0.55061946826E+03  0.26684606037E+03 -0.12101202559E+03  0.62372472222E+03  0.00000000000E+00 0. -1.
        -13    1    3    3    0    0  0.52441550464E+03  0.15333633023E+03 -0.10286809489E+03  0.55597256823E+03  0.00000000000E+00 0.  1.
         22    1    1    2    0    0 -0.10750349729E+04 -0.42018239060E+03  0.13034860582E+03  0.11615697109E+04  0.00000000000E+00 0.  1.
<mgrwt>
<rscale>  0 0.23393980E+04</rscale>
<asrwt>0</asrwt>
<pdfrwt beam="1">  1        1 0.18729219E+00 0.23393980E+04</pdfrwt>
<pdfrwt beam="2">  1       -1 0.17290273E+00 0.23393980E+04</pdfrwt>
<totfact> 0.21903984E+00</totfact>
</mgrwt>
</event>
<event>
 6    1  0.1831439E-005  0.1877720E+04  0.7818608E-02  0.8666027E-01
         -2   -1    0    0    0  501 -0.00000000000E+00  0.00000000000E+00  0.11693384125E+04  0.11693384125E+04  0.00000000000E+00 0.  1.
          2   -1    0    0  501    0  0.00000000000E+00 -0.00000000000E+00 -0.75380912922E+03  0.75380912922E+03  0.00000000000E+00 0. -1.
         23    2    1    2    0    0  0.32798524397E+03  0.87000791577E+03  0.32438602939E+03  0.98891246072E+03  0.90738443570E+02 0.  0.
         13    1    3    3    0    0  0.22209819769E+03  0.46239671674E+03  0.18479197871E+03  0.54523977154E+03  0.00000000000E+00 0.  1.
        -13    1    3    3    0    0  0.10588704629E+03  0.40761119903E+03  0.13959405067E+03  0.44367268918E+03  0.00000000000E+00 0. -1.
         22    1    1    2    0    0 -0.32798524397E+03 -0.87000791577E+03  0.91143253842E+02  0.93423508095E+03  0.00000000000E+00 0. -1.
<mgrwt>
<rscale>  0 0.18777199E+04</rscale>
<asrwt>0</asrwt>
<pdfrwt beam="1">  1        2 0.11597064E+00 0.18777199E+04</pdfrwt>
<pdfrwt beam="2">  1       -2 0.17989822E+00 0.18777199E+04</pdfrwt>
<totfact> 0.63442857E+00</totfact>
</mgrwt>
</event>
<event>
 6    1  0.1831439E-005  0.2254606E+04  0.7818608E-02  0.8496037E-01
          1   -1    0    0  501    0  0.00000000000E+00  0.00000000000E+00  0.18485048130E+04  0.18485048130E+04  0.00000000000E+00 0. -1.
         -1   -1    0    0    0  501 -0.00000000000E+00 -0.00000000000E+00 -0.68748133633E+03  0.68748133633E+03  0.00000000000E+00 0.  1.
         23    2    1    2    0    0 -0.51641440136E+03  0.26909072273E+03  0.16647319705E+04  0.17660407631E+04  0.92053204531E+02 0.  0.
         11    1    3    3    0    0 -0.46480233706E+03  0.23602112925E+03  0.13895591228E+04  0.14841232233E+04  0.00000000000E+00 0. -1.
        -11    1    3    3    0    0 -0.51612064304E+02  0.33069593486E+02  0.27517284766E+03  0.28191753986E+03  0.00000000000E+00 0.  1.
         22    1    1    2    0    0  0.51641440136E+03 -0.26909072273E+03 -0.50370849381E+03  0.76994538621E+03  0.00000000000E+00 0.  1.
<mgrwt>
<rscale>  0 0.22546064E+04</rscale>
<asrwt>0</asrwt>
<pdfrwt beam="1">  1        1 0.28438535E+00 0.22546064E+04</pdfrwt>
<pdfrwt beam="2">  1       -1 0.10576636E+00 0.22546064E+04</pdfrwt>
<totfact> 0.28677518E+00</totfact>
</mgrwt>
</event>
<event>
 6    1  0.1831439E-005  0.2267984E+04  0.7818608E-02  0.8490653E-01
         -2   -1    0    0    0  501 -0.00000000000E+00  0.00000000000E+00  0.90164814994E+03  0.90164814994E+03  0.00000000000E+00 0.  1.
          2   -1    0    0  501    0  0.00000000000E+00 -0.00000000000E+00 -0.14262078813E+04  0.14262078813E+04  0.00000000000E+00 0. -1.
         23    2    1    2    0    0 -0.43188013623E+03 -0.92543917444E+03  0.23895295634E+03  0.10527443726E+04  0.90631567675E+02 0.  0.
         13    1    3    3    0    0 -0.32809485273E+03 -0.63781464180E+03  0.19914666639E+03  0.74438776482E+03  0.00000000000E+00 0.  1.
        -13    1    3    3    0    0 -0.10378528351E+03 -0.28762453264E+03  0.39806289955E+02  0.30835660779E+03  0.00000000000E+00 0. -1.
         22    1    1    2    0    0  0.43188013623E+03  0.92543917444E+03 -0.76351268766E+03  0.12751116586E+04  0.00000000000E+00 0. -1.
<mgrwt>
<rscale>  0 0.22679839E+04</rscale>
<asrwt>0</asrwt>
<pdfrwt beam="1">  1        2 0.21941659E+00 0.22679839E+04</pdfrwt>
<pdfrwt beam="2">  1       -2 0.13871510E+00 0.22679839E+04</pdfrwt>
<totfact> 0.46754392E+00</totfact>
</mgrwt>
</event>
<event>
 6    1  0.1831439E-005  0.2993343E+04  0.7818608E-02  0.8245634E-01
         -1   -1    0    0    0  501 -0.00000000000E+00  0.00000000000E+00  0.13513338246E+04  0.13513338246E+04  0.00000000000E+00 0.  1.
          1   -1    0    0  501    0  0.00000000000E+00 -0.00000000000E+00 -0.16576403064E+04  0.16576403064E+04  0.00000000000E+00 0. -1.
         23    2    1    2    0    0  0.99804927451E+03  0.81617114540E+03 -0.91476889425E+03  0.15833289436E+04  0.88829728749E+02 0.  0.
         11    1    3    3    0    0  0.71321487695E+03  0.57641925231E+03 -0.69864296734E+03  0.11528385017E+04  0.00000000000E+00 0.  1.
        -11    1    3    3    0    0  0.28483439756E+03  0.23975189309E+03 -0.21612592691E+03  0.43049044188E+03  0.00000000000E+00 0. -1.
         22    1    1    2    0    0 -0.99804927451E+03 -0.81617114540E+03  0.60846241243E+03  0.14256451874E+04  0.00000000000E+00 0.  1.
<mgrwt>
<rscale>  0 0.29933429E+04</rscale>
<asrwt>0</asrwt>
<pdfrwt beam="1">  1        1 0.25502159E+00 0.29933429E+04</pdfrwt>
<pdfrwt beam="2">  1       -1 0.20789751E+00 0.29933429E+04</pdfrwt>
<totfact> 0.57642504E-01</totfact>
</mgrwt>
</event>
<event>
 6    1  0.1831439E-005  0.3382756E+04  0.7818608E-02  0.8142152E-01
          2   -1    0    0  501    0  0.00000000000E+00  0.00000000000E+00  0.13136173497E+04  0.13136173497E+04  0.00000000000E+00 0. -1.
         -2   -1    0    0    0  501 -0.00000000000E+00 -0.00000000000E+00 -0.21777725816E+04  0.21777725816E+04  0.00000000000E+00 0.  1.
         23    2    1    2    0    0 -0.51523648735E+03  0.13560441077E+04 -0.13275921117E+04  0.19685314344E+04  0.91054560515E+02 0.  0.
         11    1    3    3    0    0 -0.36157809275E+03  0.90805922114E+03 -0.83957961418E+03  0.12884891132E+04  0.00000000000E+00 0.  1.
        -11    1    3    3    0    0 -0.15365839460E+03  0.44798488660E+03 -0.48801249754E+03  0.68004232118E+03  0.00000000000E+00 0. -1.
         22    1    1    2    0    0  0.51523648735E+03 -0.13560441077E+04  0.46343687988E+03  0.15228584969E+04  0.00000000000E+00 0. -1.
<mgrwt>
<rscale>  0 0.33827562E+04</rscale>
<asrwt>0</asrwt>
<pdfrwt beam="1">  1        2 0.20209498E+00 0.33827562E+04</pdfrwt>
<pdfrwt beam="2">  1       -2 0.33504193E+00 0.33827562E+04</pdfrwt>
<totfact> 0.25995490E-01</totfact>
</mgrwt>
</event>
<event>
 6    1  0.1831439E-005  0.3026858E+04  0.7818608E-02  0.8236103E-01
          1   -1    0    0  501    0  0.00000000000E+00  0.00000000000E+00  0.24121154421E+04  0.24121154421E+04  0.00000000000E+00 0. -1.
         -1   -1    0    0    0  501 -0.00000000000E+00 -0.00000000000E+00 -0.94956815809E+03  0.94956815809E+03  0.00000000000E+00 0.  1.
         23    2    1    2    0    0 -0.97563508709E+02  0.58028284513E+03 -0.81520325215E+03  0.10091542542E+04  0.87115715866E+02 0.  0.
         11    1    3    3    0    0  0.84596632780E+00  0.24277273309E+03 -0.31273145097E+03  0.39590437737E+03  0.00000000000E+00 0. -1.
        -11    1    3    3    0    0 -0.98409475036E+02  0.33751011205E+03 -0.50247180118E+03  0.61324987688E+03  0.00000000000E+00 0.  1.
         22    1    1    2    0    0  0.97563508709E+02 -0.58028284513E+03  0.22777505361E+04  0.23525293459E+04  0.00000000000E+00 0. -1.
<mgrwt>
<rscale>  0 0.30268584E+04</rscale>
<asrwt>0</asrwt>
<pdfrwt beam="1">  1        1 0.37109468E+00 0.30268584E+04</pdfrwt>
<pdfrwt beam="2">  1       -1 0.14608741E+00 0.30268584E+04</pdfrwt>
<totfact> 0.49547532E-01</totfact>
</mgrwt>
</event>
<event>
 6    1  0.2934598E-005  0.3987725E+04  0.7818608E-02  0.8007027E-01
          1   -1    0    0  501    0  0.00000000000E+00  0.00000000000E+00  0.31574040886E+04  0.31574040886E+04  0.00000000000E+00 0. -1.
         -1   -1    0    0    0  501 -0.00000000000E+00 -0.00000000000E+00 -0.12591001385E+04  0.12591001385E+04  0.00000000000E+00 0.  1.
         23    2    1    2    0    0  0.26771371057E+02 -0.16726325268E+04  0.21490182176E+04  0.27249741741E+04  0.93747928774E+02 0.  0.
         13    1    3    3    0    0  0.51570719348E+02 -0.77318188209E+03  0.95301625212E+03  0.12282954607E+04  0.00000000000E+00 0. -1.
        -13    1    3    3    0    0 -0.24799348291E+02 -0.89945064471E+03  0.11960019654E+04  0.14966787134E+04  0.00000000000E+00 0.  1.
         22    1    1    2    0    0 -0.26771371057E+02  0.16726325268E+04 -0.25071426745E+03  0.16915300529E+04  0.00000000000E+00 0.  1.
<mgrwt>
<rscale>  0 0.39877251E+04</rscale>
<asrwt>0</asrwt>
<pdfrwt beam="1">  1        1 0.48575447E+00 0.39877251E+04</pdfrwt>
<pdfrwt beam="2">  1       -1 0.19370771E+00 0.39877251E+04</pdfrwt>
<totfact> 0.59601227E-02</totfact>
</mgrwt>
</event>
<event>
 6    1  0.1831439E-005  0.2337261E+04  0.7818608E-02  0.8463373E-01
         -1   -1    0    0    0  501 -0.00000000000E+00  0.00000000000E+00  0.21688083121E+04  0.21688083121E+04  0.00000000000E+00 0.  1.
          1   -1    0    0  501    0  0.00000000000E+00 -0.00000000000E+00 -0.62969913959E+03  0.62969913959E+03  0.00000000000E+00 0. -1.
         23    2    1    2    0    0  0.51434921000E+03 -0.58818444155E+03 -0.26696015577E+03  0.83066536816E+03  0.90670733858E+02 0.  0.
         13    1    3    3    0    0  0.31553465301E+03 -0.34459971703E+03 -0.20483591536E+03  0.51016549712E+03  0.00000000000E+00 0. -1.
        -13    1    3    3    0    0  0.19881455699E+03 -0.24358472452E+03 -0.62124240412E+02  0.32049987104E+03  0.00000000000E+00 0.  1.
         22    1    1    2    0    0 -0.51434921000E+03  0.58818444155E+03  0.18060693282E+04  0.19678420835E+04  0.00000000000E+00 0.  1.
<mgrwt>
<rscale>  0 0.23372606E+04</rscale>
<asrwt>0</asrwt>
<pdfrwt beam="1">  1        1 0.96876791E-01 0.23372606E+04</pdfrwt>
<pdfrwt beam="2">  1       -1 0.33366281E+00 0.23372606E+04</pdfrwt>
<totfact> 0.57306236E-01</totfact>
</mgrwt>
</event>
<event>
 6    1  0.1831439E-005  0.3476670E+04  0.7818608E-02  0.8119341E-01
         -2   -1    0    0    0  501 -0.00000000000E+00  0.00000000000E+00  0.21354212775E+04  0.21354212775E+04  0.00000000000E+00 0.  1.
          2   -1    0    0  501    0  0.00000000000E+00 -0.00000000000E+00 -0.14150875403E+04  0.14150875403E+04  0.00000000000E+00 0. -1.
         23    2    1    2    0    0 -0.83876028731E+02  0.11189636120E+04 -0.99211539241E+03  0.15031698681E+04  0.12693284570E+03 0.  0.
         13    1    3    3    0    0  0.32244172015E+02  0.30216282534E+03 -0.25020237260E+03  0.39362836140E+03  0.00000000000E+00 0. -1.
        -13    1    3    3    0    0 -0.11612020075E+03  0.81680078665E+03 -0.74191301981E+03  0.11095415067E+04  0.00000000000E+00 0.  1.
         22    1    1    2    0    0  0.83876028731E+02 -0.11189636120E+04  0.17124491296E+04  0.20473389496E+04  0.00000000000E+00 0.  1.
<mgrwt>
<rscale>  0 0.34766697E+04</rscale>
<asrwt>0</asrwt>
<pdfrwt beam="1">  1        2 0.21770578E+00 0.34766697E+04</pdfrwt>
<pdfrwt beam="2">  1       -2 0.32852635E+00 0.34766697E+04</pdfrwt>
<totfact> 0.24753677E-01</totfact>
</mgrwt>
</event>
<event>
 6    1  0.1831439E-005  0.1637757E+04  0.7818608E-02  0.8797683E-01
          1   -1    0    0  501    0  0.00000000000E+00  0.00000000000E+00  0.27993501251E+04  0.27993501251E+04  0.00000000000E+00 0. -1.
         -1   -1    0    0    0  501 -0.00000000000E+00 -0.00000000000E+00 -0.23954193019E+03  0.23954193019E+03  0.00000000000E+00 0.  1.
         23    2    1    2    0    0 -0.60000947657E+03 -0.54133110055E+02  0.26166140313E+03  0.66309314921E+03  0.91016861444E+02 0.  0.
         13    1    3    3    0    0 -0.25465300995E+03  0.13229322331E+02  0.13926959992E+03  0.29054980968E+03  0.00000000000E+00 0.  1.
        -13    1    3    3    0    0 -0.34535646662E+03 -0.67362432387E+02  0.12239180321E+03  0.37254333953E+03  0.00000000000E+00 0. -1.
         22    1    1    2    0    0  0.60000947657E+03  0.54133110055E+02  0.22981467917E+04  0.23757989061E+04  0.00000000000E+00 0. -1.
<mgrwt>
<rscale>  0 0.16377567E+04</rscale>
<asrwt>0</asrwt>
<pdfrwt beam="1">  1        1 0.43066923E+00 0.16377567E+04</pdfrwt>
<pdfrwt beam="2">  1       -1 0.36852607E-01 0.16377567E+04</pdfrwt>
<totfact> 0.56617066E+00</totfact>
</mgrwt>
</event>
<event>
 6    1  0.1831439E-005  0.1916727E+04  0.7818608E-02  0.8646575E-01
          2   -1    0    0  501    0  0.00000000000E+00  0.00000000000E+00  0.31022447656E+04  0.31022447656E+04  0.00000000000E+00 0. -1.
         -2   -1    0    0    0  501 -0.00000000000E+00 -0.00000000000E+00 -0.29606320367E+03  0.29606320367E+03  0.00000000000E+00 0.  1.
         23    2    1    2    0    0  0.17464010719E+03 -0.52594348696E+03  0.24527832852E+02  0.56198760883E+03  0.90070746488E+02 0.  0.
         13    1    3    3    0    0  0.15732438953E+03 -0.41989066431E+03  0.51086721007E+02  0.45129700484E+03  0.00000000000E+00 0.  1.
        -13    1    3    3    0    0  0.17315717663E+02 -0.10605282266E+03 -0.26558888155E+02  0.11069060399E+03  0.00000000000E+00 0. -1.
         22    1    1    2    0    0 -0.17464010719E+03  0.52594348696E+03  0.27816537291E+04  0.28363203604E+04  0.00000000000E+00 0. -1.
<mgrwt>
<rscale>  0 0.19167269E+04</rscale>
<asrwt>0</asrwt>
<pdfrwt beam="1">  1        2 0.47726840E+00 0.19167269E+04</pdfrwt>
<pdfrwt beam="2">  1       -2 0.45548187E-01 0.19167269E+04</pdfrwt>
<totfact> 0.64351781E+00</totfact>
</mgrwt>
</event>
<event>
 6    1  0.1831439E-005  0.4212018E+04  0.7818608E-02  0.7963090E-01
          2   -1    0    0  501    0  0.00000000000E+00  0.00000000000E+00  0.16449462289E+04  0.16449462289E+04  0.00000000000E+00 0. -1.
         -2   -1    0    0    0  501 -0.00000000000E+00 -0.00000000000E+00 -0.26963031924E+04  0.26963031924E+04  0.00000000000E+00 0.  1.
         23    2    1    2    0    0  0.14742378932E+04  0.10172275136E+04 -0.16660067058E+04  0.24475959455E+04  0.83775821798E+02 0.  0.
         11    1    3    3    0    0  0.11950416175E+04  0.78653691228E+03 -0.13460186780E+04  0.19643144004E+04  0.00000000000E+00 0.  1.
        -11    1    3    3    0    0  0.27919627569E+03  0.23069060135E+03 -0.31998802779E+03  0.48328154510E+03  0.00000000000E+00 0. -1.
         22    1    1    2    0    0 -0.14742378932E+04 -0.10172275136E+04  0.61464974235E+03  0.18936534757E+04  0.00000000000E+00 0. -1.
<mgrwt>
<rscale>  0 0.42120179E+04</rscale>
<asrwt>0</asrwt>
<pdfrwt beam="1">  1        2 0.25306865E+00 0.42120179E+04</pdfrwt>
<pdfrwt beam="2">  1       -2 0.41481588E+00 0.42120179E+04</pdfrwt>
<totfact> 0.48415574E-02</totfact>
</mgrwt>
</event>
<event>
 6    1  0.1831439E-005  0.3228956E+04  0.7818608E-02  0.8181211E-01
          2   -1    0    0  501    0  0.00000000000E+00  0.00000000000E+00  0.12480853490E+04  0.12480853490E+04  0.00000000000E+00 0. -1.
         -2   -1    0    0    0  501 -0.00000000000E+00 -0.00000000000E+00 -0.20884306949E+04  0.20884306949E+04  0.00000000000E+00 0.  1.
         23    2    1    2    0    0 -0.13702385562E+04  0.58710692208E+03  0.21673479910E+03  0.15090405524E+04  0.89337432386E+02 0.  0.
         13    1    3    3    0    0 -0.10322797261E+04  0.41132976237E+03  0.13445103809E+03  0.11193170632E+04  0.00000000000E+00 0. -1.
        -13    1    3    3    0    0 -0.33795883016E+03  0.17577715971E+03  0.82283761005E+02  0.38972348927E+03  0.00000000000E+00 0.  1.
         22    1    1    2    0    0  0.13702385562E+04 -0.58710692208E+03 -0.10570801450E+04  0.18274754915E+04  0.00000000000E+00 0.  1.
<mgrwt>
<rscale>  0 0.32289563E+04</rscale>
<asrwt>0</asrwt>
<pdfrwt beam="1">  1        2 0.19201313E+00 0.32289563E+04</pdfrwt>
<pdfrwt beam="2">  1       -2 0.32129703E+00 0.32289563E+04</pdfrwt>
<totfact> 0.35010373E-01</totfact>
</mgrwt>
</event>
<event>
 6    1  0.1831439E-005  0.5096227E+03  0.7818608E-02  0.1011297E+00
         -1   -1    0    0    0  501 -0.00000000000E+00  0.00000000000E+00  0.10547152630E+03  0.10547152630E+03  0.00000000000E+00 0.  1.
          1   -1    0    0  501    0  0.00000000000E+00 -0.00000000000E+00 -0.61560534333E+03  0.61560534333E+03  0.00000000000E+00 0. -1.
         23    2    1    2    0    0 -0.10789272782E+03  0.22143181356E+03 -0.24943890745E+03  0.36242003552E+03  0.91954471475E+02 0.  0.
         11    1    3    3    0    0 -0.31515060851E+02  0.78634540071E+02 -0.15033775851E+03  0.17256312348E+03  0.00000000000E+00 0. -1.
        -11    1    3    3    0    0 -0.76377666969E+02  0.14279727349E+03 -0.99101148946E+02  0.18985691204E+03  0.00000000000E+00 0.  1.
         22    1    1    2    0    0  0.10789272782E+03 -0.22143181356E+03 -0.26069490958E+03  0.35865683411E+03  0.00000000000E+00 0. -1.
<mgrwt>
<rscale>  0 0.50962274E+03</rscale>
<asrwt>0</asrwt>
<pdfrwt beam="1">  1        1 0.94708513E-01 0.50962274E+03</pdfrwt>
<pdfrwt beam="2">  1       -1 0.16226389E-01 0.50962274E+03</pdfrwt>
<totfact> 0.96017414E+02</totfact>
</mgrwt>
</event>
<event>
 6    1  0.1831439E-005  0.8522340E+03  0.7818608E-02  0.9487343E-01
          1   -1    0    0  501    0  0.00000000000E+00  0.00000000000E+00  0.85710075328E+03  0.85710075328E+03  0.00000000000E+00 0. -1.
         -1   -1    0    0    0  501 -0.00000000000E+00 -0.00000000000E+00 -0.21184873320E+03  0.21184873320E+03  0.00000000000E+00 0.  1.
         23    2    1    2    0    0 -0.21051243648E+03 -0.29672267764E+03  0.59310372572E+03  0.70141815728E+03  0.88631645372E+02 0.  0.
         11    1    3    3    0    0 -0.13652164239E+03 -0.20704614477E+03  0.32199072635E+03  0.40642870563E+03  0.00000000000E+00 0.  1.
        -11    1    3    3    0    0 -0.73990794087E+02 -0.89676532872E+02  0.27111299937E+03  0.29498945165E+03  0.00000000000E+00 0. -1.
         22    1    1    2    0    0  0.21051243648E+03  0.29672267764E+03  0.52148294355E+02  0.36753132920E+03  0.00000000000E+00 0.  1.
<mgrwt>
<rscale>  0 0.85223403E+03</rscale>
<asrwt>0</asrwt>
<pdfrwt beam="1">  1        1 0.13186165E+00 0.85223403E+03</pdfrwt>
<pdfrwt beam="2">  1       -1 0.32592113E-01 0.85223403E+03</pdfrwt>
<totfact> 0.17551659E+02</totfact>
</mgrwt>
</event>
<event>
 6    1  0.1831439E-005  0.1080488E+04  0.7818608E-02  0.9224421E-01
         -2   -1    0    0    0  501 -0.00000000000E+00  0.00000000000E+00  0.14581412321E+03  0.14581412321E+03  0.00000000000E+00 0.  1.
          2   -1    0    0  501    0  0.00000000000E+00 -0.00000000000E+00 -0.20016143031E+04  0.20016143031E+04  0.00000000000E+00 0. -1.
         23    2    1    2    0    0  0.21784299650E+03 -0.31137704051E+03 -0.18239180404E+03  0.43141361727E+03  0.91867875274E+02 0.  0.
         13    1    3    3    0    0  0.14560684967E+01 -0.11483289820E+02 -0.28684619630E+02  0.30932078557E+02  0.00000000000E+00 0. -1.
        -13    1    3    3    0    0  0.21638692800E+03 -0.29989375069E+03 -0.15370718441E+03  0.40048153872E+03  0.00000000000E+00 0.  1.
         22    1    1    2    0    0 -0.21784299650E+03  0.31137704051E+03 -0.16734083759E+04  0.17160148090E+04  0.00000000000E+00 0.  1.
<mgrwt>
<rscale>  0 0.10804881E+04</rscale>
<asrwt>0</asrwt>
<pdfrwt beam="1">  1        2 0.30794067E+00 0.10804881E+04</pdfrwt>
<pdfrwt beam="2">  1       -2 0.22432941E-01 0.10804881E+04</pdfrwt>
<totfact> 0.11584949E+02</totfact>
</mgrwt>
</event>
<event>
 6    1  0.1831439E-005  0.1479944E+04  0.7818608E-02  0.8897900E-01
         -2   -1    0    0    0  501 -0.00000000000E+00  0.00000000000E+00  0.95421673991E+03  0.95421673991E+03  0.00000000000E+00 0.  1.
          2   -1    0    0  501    0  0.00000000000E+00 -0.00000000000E+00 -0.57383044869E+03  0.57383044869E+03  0.00000000000E+00 0. -1.
         23    2    1    2    0    0 -0.29164844995E+03  0.67600384843E+03  0.15034363425E+03  0.75671091597E+03  0.89264665735E+02 0.  0.
         11    1    3    3    0    0 -0.17700169120E+03  0.49790253992E+03  0.86297566552E+02  0.53542862077E+03  0.00000000000E+00 0. -1.
        -11    1    3    3    0    0 -0.11464675875E+03  0.17810130851E+03  0.64046067698E+02  0.22128229520E+03  0.00000000000E+00 0.  1.
         22    1    1    2    0    0  0.29164844995E+03 -0.67600384843E+03  0.23004265698E+03  0.77133627263E+03  0.00000000000E+00 0.  1.
<mgrwt>
<rscale>  0 0.14799441E+04</rscale>
<asrwt>0</asrwt>
<pdfrwt beam="1">  1        2 0.88281608E-01 0.14799441E+04</pdfrwt>
<pdfrwt beam="2">  1       -2 0.14680257E+00 0.14799441E+04</pdfrwt>
<totfact> 0.16051442E+01</totfact>
</mgrwt>
</event>
<event>
 6    1  0.1831439E-005  0.1711760E+04  0.7818608E-02  0.8754685E-01
         -1   -1    0    0    0  501 -0.00000000000E+00  0.00000000000E+00  0.72012727399E+03  0.72012727399E+03  0.00000000000E+00 0.  1.
          1   -1    0    0  501    0  0.00000000000E+00 -0.00000000000E+00 -0.10172240048E+04  0.10172240048E+04  0.00000000000E+00 0. -1.
         23    2    1    2    0    0  0.12840057039E+03  0.83445518695E+03 -0.22026251570E+02  0.84939523596E+03  0.90470689220E+02 0.  0.
         11    1    3    3    0    0  0.13361767898E+02  0.24581615933E+03 -0.39702517108E+02  0.24936000259E+03  0.00000000000E+00 0.  1.
        -11    1    3    3    0    0  0.11503880249E+03  0.58863902762E+03  0.17676265538E+02  0.60003523336E+03  0.00000000000E+00 0. -1.
         22    1    1    2    0    0 -0.12840057039E+03 -0.83445518695E+03 -0.27507047929E+03  0.88795604288E+03  0.00000000000E+00 0. -1.
<mgrwt>
<rscale>  0 0.17117602E+04</rscale>
<asrwt>0</asrwt>
<pdfrwt beam="1">  1        1 0.15649600E+00 0.17117602E+04</pdfrwt>
<pdfrwt beam="2">  1       -1 0.11078881E+00 0.17117602E+04</pdfrwt>
<totfact> 0.10466915E+01</totfact>
</mgrwt>
</event>
<event>
 6    1  0.1831439E-005  0.1206521E+04  0.7818608E-02  0.9107168E-01
         -1   -1    0    0    0  501 -0.00000000000E+00  0.00000000000E+00  0.14378636702E+03  0.14378636702E+03  0.00000000000E+00 0.  1.
          1   -1    0    0  501    0  0.00000000000E+00 -0.00000000000E+00 -0.25309999111E+04  0.25309999111E+04  0.00000000000E+00 0. -1.
         23    2    1    2    0    0 -0.41109832777E+03  0.43682674134E+03 -0.12443850718E+04  0.13840979524E+04  0.86101671916E+02 0.  0.
         13    1    3    3    0    0 -0.16861287337E+03  0.12248365009E+03 -0.39971744540E+03  0.45078440719E+03  0.00000000000E+00 0.  1.
        -13    1    3    3    0    0 -0.24248545440E+03  0.31434309125E+03 -0.84466762642E+03  0.93331354524E+03  0.00000000000E+00 0. -1.
         22    1    1    2    0    0  0.41109832777E+03 -0.43682674134E+03 -0.11428284723E+04  0.12906883257E+04  0.00000000000E+00 0.  1.
<mgrwt>
<rscale>  0 0.12065211E+04</rscale>
<asrwt>0</asrwt>
<pdfrwt beam="1">  1        1 0.38938460E+00 0.12065211E+04</pdfrwt>
<pdfrwt beam="2">  1       -1 0.22120980E-01 0.12065211E+04</pdfrwt>
<totfact> 0.22155538E+01</totfact>
</mgrwt>
</event>
<event>
 6    1  0.1831439E-005  0.6042863E+04  0.7818608E-02  0.7685110E-01
         -2   -1    0    0    0  501 -0.00000000000E+00  0.00000000000E+00  0.20808446123E+04  0.20808446123E+04  0.00000000000E+00 0. -1.
          2   -1    0    0  501    0  0.00000000000E+00 -0.00000000000E+00 -0.43871846028E+04  0.43871846028E+04  0.00000000000E+00 0.  1.
         23    2    1    2    0    0  0.24720069616E+04  0.10944734357E+04  0.28892803561E+03  0.27204824646E+04  0.94100535677E+02 0.  0.
         11    1    3    3    0    0  0.13447522436E+04  0.54461727201E+03  0.16186613779E+03  0.14598517788E+04  0.00000000000E+00 0. -1.
        -11    1    3    3    0    0  0.11272547180E+04  0.54985616366E+03  0.12706189782E+03  0.12606306857E+04  0.00000000000E+00 0.  1.
         22    1    1    2    0    0 -0.24720069616E+04 -0.10944734357E+04 -0.25952680262E+04  0.37475467505E+04  0.00000000000E+00 0.  1.
<mgrwt>
<rscale>  0 0.60428634E+04</rscale>
<asrwt>0</asrwt>
<pdfrwt beam="1">  1        2 0.67495147E+00 0.60428634E+04</pdfrwt>
<pdfrwt beam="2">  1       -2 0.32012994E+00 0.60428634E+04</pdfrwt>
<totfact> 0.25043710E-03</totfact>
</mgrwt>
</event>
<event>
 6    1  0.1831439E-005  0.2961095E+04  0.7818608E-02  0.8254928E-01
          1   -1    0    0  501    0  0.00000000000E+00  0.00000000000E+00  0.14468407941E+04  0.14468407941E+04  0.00000000000E+00 0. -1.
         -1   -1    0    0    0  501 -0.00000000000E+00 -0.00000000000E+00 -0.15150395030E+04  0.15150395030E+04  0.00000000000E+00 0.  1.
         23    2    1    2    0    0 -0.10330917108E+04  0.77800412114E+03  0.68396277288E+03  0.14657801032E+04  0.90207211144E+02 0.  0.
         13    1    3    3    0    0 -0.52566235507E+03  0.37305403740E+03  0.38741234872E+03  0.75204956904E+03  0.00000000000E+00 0.  1.
        -13    1    3    3    0    0 -0.50742935573E+03  0.40495008375E+03  0.29655042416E+03  0.71373053420E+03  0.00000000000E+00 0. -1.
         22    1    1    2    0    0  0.10330917108E+04 -0.77800412114E+03 -0.75216148178E+03  0.14961001939E+04  0.00000000000E+00 0.  1.
<mgrwt>
<rscale>  0 0.29610950E+04</rscale>
<asrwt>0</asrwt>
<pdfrwt beam="1">  1        1 0.22259089E+00 0.29610950E+04</pdfrwt>
<pdfrwt beam="2">  1       -1 0.23308300E+00 0.29610950E+04</pdfrwt>
<totfact> 0.54778613E-01</totfact>
</mgrwt>
</event>
<event>
 6    1  0.1831439E-005  0.5921333E+03  0.7818608E-02  0.9921863E-01
          2   -1    0    0  501    0  0.00000000000E+00  0.00000000000E+00  0.41922462230E+03  0.41922462230E+03  0.00000000000E+00 0. -1.
         -2   -1    0    0    0  501 -0.00000000000E+00 -0.00000000000E+00 -0.20908947717E+03  0.20908947717E+03  0.00000000000E+00 0.  1.
         23    2    1    2    0    0 -0.13830606947E+03 -0.11234556021E+03 -0.13407009556E+03  0.24072237939E+03  0.90677338207E+02 0.  0.
         13    1    3    3    0    0 -0.12371027776E+03 -0.10318077981E+03 -0.72262691075E+02  0.17655708048E+03  0.00000000000E+00 0. -1.
        -13    1    3    3    0    0 -0.14595791712E+02 -0.91647804034E+01 -0.61807404486E+02  0.64165298915E+02  0.00000000000E+00 0.  1.
         22    1    1    2    0    0  0.13830606947E+03  0.11234556021E+03  0.34420524070E+03  0.38759172008E+03  0.00000000000E+00 0. -1.
<mgrwt>
<rscale>  0 0.59213329E+03</rscale>
<asrwt>0</asrwt>
<pdfrwt beam="1">  1        2 0.64496096E-01 0.59213329E+03</pdfrwt>
<pdfrwt beam="2">  1       -2 0.32167612E-01 0.59213329E+03</pdfrwt>
<totfact> 0.68208138E+02</totfact>
</mgrwt>
</event>
<event>
 6    1  0.1831439E-005  0.3145800E+04  0.7818608E-02  0.8203280E-01
          1   -1    0    0  501    0  0.00000000000E+00  0.00000000000E+00  0.21612606620E+04  0.21612606620E+04  0.00000000000E+00 0. -1.
         -1   -1    0    0    0  501 -0.00000000000E+00 -0.00000000000E+00 -0.11447089538E+04  0.11447089538E+04  0.00000000000E+00 0.  1.
         23    2    1    2    0    0  0.95614727731E+03 -0.87902632120E+02  0.18162144602E+04  0.20564076903E+04  0.90736621521E+02 0.  0.
         13    1    3    3    0    0  0.12887003495E+03 -0.38294938748E+02  0.29158580900E+03  0.32108608231E+03  0.00000000000E+00 0. -1.
        -13    1    3    3    0    0  0.82727724237E+03 -0.49607693372E+02  0.15246286512E+04  0.17353216080E+04  0.00000000000E+00 0.  1.
         22    1    1    2    0    0 -0.95614727731E+03  0.87902632120E+02 -0.79966275205E+03  0.12495619255E+04  0.00000000000E+00 0.  1.
<mgrwt>
<rscale>  0 0.31458000E+04</rscale>
<asrwt>0</asrwt>
<pdfrwt beam="1">  1        1 0.33250164E+00 0.31458000E+04</pdfrwt>
<pdfrwt beam="2">  1       -1 0.17610907E+00 0.31458000E+04</pdfrwt>
<totfact> 0.43202704E-01</totfact>
</mgrwt>
</event>
<event>
 6    1  0.1831439E-005  0.2823600E+04  0.7818608E-02  0.8295979E-01
          2   -1    0    0  501    0  0.00000000000E+00  0.00000000000E+00  0.19260285168E+04  0.19260285168E+04  0.00000000000E+00 0.  1.
         -2   -1    0    0    0  501 -0.00000000000E+00 -0.00000000000E+00 -0.10348652096E+04  0.10348652096E+04  0.00000000000E+00 0. -1.
         23    2    1    2    0    0  0.12514945585E+04  0.65022354611E+03  0.44123000779E+03  0.14805325327E+04  0.90903084435E+02 0.  0.
         13    1    3    3    0    0  0.56995780643E+03  0.34660856592E+03  0.20068285085E+03  0.69660821536E+03  0.00000000000E+00 0. -1.
        -13    1    3    3    0    0  0.68153675211E+03  0.30361498019E+03  0.24054715694E+03  0.78392431739E+03  0.00000000000E+00 0.  1.
         22    1    1    2    0    0 -0.12514945585E+04 -0.65022354611E+03  0.44993329938E+03  0.14803611937E+04  0.00000000000E+00 0.  1.
<mgrwt>
<rscale>  0 0.28236005E+04</rscale>
<asrwt>0</asrwt>
<pdfrwt beam="1">  1        2 0.29631208E+00 0.28236005E+04</pdfrwt>
<pdfrwt beam="2">  1       -2 0.15921003E+00 0.28236005E+04</pdfrwt>
<totfact> 0.16287612E+00</totfact>
</mgrwt>
</event>
<event>
 6    1  0.1831439E-005  0.5490010E+04  0.7818608E-02  0.7757065E-01
          2   -1    0    0  501    0  0.00000000000E+00  0.00000000000E+00  0.28159089514E+04  0.28159089514E+04  0.00000000000E+00 0. -1.
         -2   -1    0    0    0  501 -0.00000000000E+00 -0.00000000000E+00 -0.26758865384E+04  0.26758865384E+04  0.00000000000E+00 0.  1.
         23    2    1    2    0    0  0.19624187650E+04  0.85812851251E+03  0.17862307383E+04  0.27904118065E+04  0.91136415104E+02 0.  0.
         13    1    3    3    0    0  0.18907257463E+04  0.84446596571E+03  0.17289257225E+04  0.26976194634E+04  0.00000000000E+00 0. -1.
        -13    1    3    3    0    0  0.71693018703E+02  0.13662546798E+02  0.57305015797E+02  0.92792343171E+02  0.00000000000E+00 0.  1.
         22    1    1    2    0    0 -0.19624187650E+04 -0.85812851251E+03 -0.16462083253E+04  0.27013836832E+04  0.00000000000E+00 0.  1.
<mgrwt>
<rscale>  0 0.54900101E+04</rscale>
<asrwt>0</asrwt>
<pdfrwt beam="1">  1        2 0.43321676E+00 0.54900101E+04</pdfrwt>
<pdfrwt beam="2">  1       -2 0.41167485E+00 0.54900101E+04</pdfrwt>
<totfact> 0.98681064E-03</totfact>
</mgrwt>
</event>
<event>
 6    1  0.1831439E-005  0.1882214E+04  0.7818608E-02  0.8663761E-01
         -2   -1    0    0    0  501 -0.00000000000E+00  0.00000000000E+00  0.45150608958E+03  0.45150608958E+03  0.00000000000E+00 0.  1.
          2   -1    0    0  501    0  0.00000000000E+00 -0.00000000000E+00 -0.19616177890E+04  0.19616177890E+04  0.00000000000E+00 0. -1.
         23    2    1    2    0    0  0.92059466217E+03  0.55473894996E+02 -0.98219422586E+03  0.13504533069E+04  0.91906211792E+02 0.  0.
         13    1    3    3    0    0  0.28535181354E+03 -0.17560240236E+02 -0.33973262402E+03  0.44401832772E+03  0.00000000000E+00 0. -1.
        -13    1    3    3    0    0  0.63524284863E+03  0.73034135232E+02 -0.64246160184E+03  0.90643497918E+03  0.00000000000E+00 0.  1.
         22    1    1    2    0    0 -0.92059466217E+03 -0.55473894996E+02 -0.52791747358E+03  0.10626705717E+04  0.00000000000E+00 0. -1.
<mgrwt>
<rscale>  0 0.18822140E+04</rscale>
<asrwt>0</asrwt>
<pdfrwt beam="1">  1        2 0.30178735E+00 0.18822140E+04</pdfrwt>
<pdfrwt beam="2">  1       -2 0.69462475E-01 0.18822140E+04</pdfrwt>
<totfact> 0.12442366E+01</totfact>
</mgrwt>
</event>
<event>
 6    1  0.1831439E-005  0.1621775E+04  0.7818608E-02  0.8807281E-01
          2   -1    0    0  501    0  0.00000000000E+00  0.00000000000E+00  0.80285668249E+03  0.80285668249E+03  0.00000000000E+00 0. -1.
         -2   -1    0    0    0  501 -0.00000000000E+00 -0.00000000000E+00 -0.81899889301E+03  0.81899889301E+03  0.00000000000E+00 0.  1.
         23    2    1    2    0    0 -0.80082431546E+03  0.89742147999E+02 -0.72395581954E+02  0.81405753195E+03  0.89862715703E+02 0.  0.
         11    1    3    3    0    0 -0.88597392140E+02  0.81355270884E+01 -0.36821073208E+02  0.96288504647E+02  0.00000000000E+00 0. -1.
        -11    1    3    3    0    0 -0.71222692332E+03  0.81606620911E+02 -0.35574508746E+02  0.71776902730E+03  0.00000000000E+00 0.  1.
         22    1    1    2    0    0  0.80082431546E+03 -0.89742147999E+02  0.56253371434E+02  0.80779804355E+03  0.00000000000E+00 0.  1.
<mgrwt>
<rscale>  0 0.16217752E+04</rscale>
<asrwt>0</asrwt>
<pdfrwt beam="1">  1        2 0.12351641E+00 0.16217752E+04</pdfrwt>
<pdfrwt beam="2">  1       -2 0.12599983E+00 0.16217752E+04</pdfrwt>
<totfact> 0.15422438E+01</totfact>
</mgrwt>
</event>
<event>
 6    1  0.1831439E-005  0.1266525E+04  0.7818608E-02  0.9056540E-01
          2   -1    0    0  501    0  0.00000000000E+00  0.00000000000E+00  0.14505155764E+04  0.14505155764E+04  0.00000000000E+00 0. -1.
         -2   -1    0    0    0  501 -0.00000000000E+00 -0.00000000000E+00 -0.27646839014E+03  0.27646839014E+03  0.00000000000E+00 0.  1.
         23    2    1    2    0    0  0.21242094180E+03 -0.59198115692E+03  0.54166289995E+03  0.83509034493E+03  0.91721537015E+02 0.  0.
         11    1    3    3    0    0  0.11336473862E+02 -0.57718060577E+02  0.88364978753E+02  0.10615205898E+03  0.00000000000E+00 0. -1.
        -11    1    3    3    0    0  0.20108446793E+03 -0.53426309634E+03  0.45329792119E+03  0.72893828594E+03  0.00000000000E+00 0.  1.
         22    1    1    2    0    0 -0.21242094180E+03  0.59198115692E+03  0.63238428627E+03  0.89189362156E+03  0.00000000000E+00 0.  1.
<mgrwt>
<rscale>  0 0.12665255E+04</rscale>
<asrwt>0</asrwt>
<pdfrwt beam="1">  1        2 0.22315624E+00 0.12665255E+04</pdfrwt>
<pdfrwt beam="2">  1       -2 0.42533599E-01 0.12665255E+04</pdfrwt>
<totfact> 0.69673099E+01</totfact>
</mgrwt>
</event>
<event>
 6    1  0.1831439E-005  0.6786527E+04  0.7818608E-02  0.7599861E-01
         -2   -1    0    0    0  501 -0.00000000000E+00  0.00000000000E+00  0.32191072686E+04  0.32191072686E+04  0.00000000000E+00 0.  1.
          2   -1    0    0  501    0  0.00000000000E+00 -0.00000000000E+00 -0.35768419658E+04  0.35768419658E+04  0.00000000000E+00 0. -1.
         23    2    1    2    0    0 -0.30025336651E+04 -0.14223970166E+04  0.50886721366E+03  0.33623766700E+04  0.90605449570E+02 0.  0.
         13    1    3    3    0    0 -0.18000171602E+04 -0.85434146430E+03  0.26024728179E+03  0.20094003489E+04  0.00000000000E+00 0. -1.
        -13    1    3    3    0    0 -0.12025165049E+04 -0.56805555230E+03  0.24861993186E+03  0.13529763211E+04  0.00000000000E+00 0.  1.
         22    1    1    2    0    0  0.30025336651E+04  0.14223970166E+04 -0.86660191094E+03  0.34335725644E+04  0.00000000000E+00 0. -1.
<mgrwt>
<rscale>  0 0.67865272E+04</rscale>
<asrwt>0</asrwt>
<pdfrwt beam="1">  1        2 0.55028338E+00 0.67865272E+04</pdfrwt>
<pdfrwt beam="2">  1       -2 0.49524727E+00 0.67865272E+04</pdfrwt>
<totfact> 0.81146245E-04</totfact>
</mgrwt>
</event>
<event>
 6    1  0.1831439E-005  0.2820145E+04  0.7818608E-02  0.8297041E-01
         -2   -1    0    0    0  501 -0.00000000000E+00  0.00000000000E+00  0.20163264669E+04  0.20163264669E+04  0.00000000000E+00 0.  1.
          2   -1    0    0  501    0  0.00000000000E+00 -0.00000000000E+00 -0.98610265186E+03  0.98610265186E+03  0.00000000000E+00 0. -1.
         23    2    1    2    0    0  0.10706938058E+04  0.61772152821E+02  0.14878800764E+04  0.18363886914E+04  0.91297751386E+02 0.  0.
         11    1    3    3    0    0  0.65966418874E+03  0.76651069727E+02  0.88098885125E+03  0.11032559016E+04  0.00000000000E+00 0.  1.
        -11    1    3    3    0    0  0.41102961705E+03 -0.14878916907E+02  0.60689122516E+03  0.73313278977E+03  0.00000000000E+00 0. -1.
         22    1    1    2    0    0 -0.10706938058E+04 -0.61772152821E+02 -0.45765626139E+03  0.11660404274E+04  0.00000000000E+00 0. -1.
<mgrwt>
<rscale>  0 0.28201453E+04</rscale>
<asrwt>0</asrwt>
<pdfrwt beam="1">  1        2 0.15170810E+00 0.28201453E+04</pdfrwt>
<pdfrwt beam="2">  1       -2 0.31020407E+00 0.28201453E+04</pdfrwt>
<totfact> 0.61464920E-01</totfact>
</mgrwt>
</event>
<event>
 6    1  0.1831439E-005  0.1711145E+04  0.7818608E-02  0.8755033E-01
          2   -1    0    0  501    0  0.00000000000E+00  0.00000000000E+00  0.24063926286E+04  0.24063926286E+04  0.00000000000E+00 0. -1.
         -2   -1    0    0    0  501 -0.00000000000E+00 -0.00000000000E+00 -0.30419162403E+03  0.30419162403E+03  0.00000000000E+00 0.  1.
         23    2    1    2    0    0  0.62861296561E+03 -0.38381165278E+03  0.37249403210E+03  0.83059705693E+03  0.93134428111E+02 0.  0.
         11    1    3    3    0    0  0.37787558474E+03 -0.20010759994E+03  0.25772020673E+03  0.49925215478E+03  0.00000000000E+00 0.  1.
        -11    1    3    3    0    0  0.25073738087E+03 -0.18370405283E+03  0.11477382537E+03  0.33134490216E+03  0.00000000000E+00 0. -1.
         22    1    1    2    0    0 -0.62861296561E+03  0.38381165278E+03  0.17297069725E+04  0.18799871957E+04  0.00000000000E+00 0. -1.
<mgrwt>
<rscale>  0 0.17111452E+04</rscale>
<asrwt>0</asrwt>
<pdfrwt beam="1">  1        2 0.37021424E+00 0.17111452E+04</pdfrwt>
<pdfrwt beam="2">  1       -2 0.46798713E-01 0.17111452E+04</pdfrwt>
<totfact> 0.16240957E+01</totfact>
</mgrwt>
</event>
<event>
 6    1  0.1831439E-005  0.5127598E+03  0.7818608E-02  0.1010501E+00
         -2   -1    0    0    0  501 -0.00000000000E+00  0.00000000000E+00  0.18973778699E+03  0.18973778699E+03  0.00000000000E+00 0.  1.
          2   -1    0    0  501    0  0.00000000000E+00 -0.00000000000E+00 -0.34642883820E+03  0.34642883820E+03  0.00000000000E+00 0. -1.
         23    2    1    2    0    0 -0.22469725648E+03  0.53586401194E+02  0.12742155682E+02  0.24969154589E+03  0.93931603286E+02 0.  0.
         13    1    3    3    0    0 -0.35693972493E+02  0.46104436332E+02  0.16176139290E+02  0.60509058860E+02  0.00000000000E+00 0.  1.
        -13    1    3    3    0    0 -0.18900328399E+03  0.74819648617E+01 -0.34339836078E+01  0.18918248703E+03  0.00000000000E+00 0. -1.
         22    1    1    2    0    0  0.22469725648E+03 -0.53586401194E+02 -0.16943320689E+03  0.28647507930E+03  0.00000000000E+00 0. -1.
<mgrwt>
<rscale>  0 0.51275975E+03</rscale>
<asrwt>0</asrwt>
<pdfrwt beam="1">  1        2 0.53296743E-01 0.51275975E+03</pdfrwt>
<pdfrwt beam="2">  1       -2 0.29190429E-01 0.51275975E+03</pdfrwt>
<totfact> 0.10101422E+03</totfact>
</mgrwt>
</event>
<event>
 6    1  0.1831439E-005  0.2545083E+04  0.7818608E-02  0.8387098E-01
         -2   -1    0    0    0  501 -0.00000000000E+00  0.00000000000E+00  0.67172703162E+03  0.67172703162E+03  0.00000000000E+00 0.  1.
          2   -1    0    0  501    0  0.00000000000E+00 -0.00000000000E+00 -0.24107442770E+04  0.24107442770E+04  0.00000000000E+00 0. -1.
         23    2    1    2    0    0 -0.12468350874E+02  0.87809419426E+03 -0.19833251578E+04  0.21709389561E+04  0.90511853101E+02 0.  0.
         11    1    3    3    0    0 -0.99704678620E+01  0.63184835341E+03 -0.13225153819E+04  0.14657348625E+04  0.00000000000E+00 0.  1.
        -11    1    3    3    0    0 -0.24978830116E+01  0.24624584085E+03 -0.66080977594E+03  0.70520409353E+03  0.00000000000E+00 0. -1.
         22    1    1    2    0    0  0.12468350874E+02 -0.87809419426E+03  0.24430791240E+03  0.91153235259E+03  0.00000000000E+00 0.  1.
<mgrwt>
<rscale>  0 0.25450832E+04</rscale>
<asrwt>0</asrwt>
<pdfrwt beam="1">  1        2 0.37088374E+00 0.25450832E+04</pdfrwt>
<pdfrwt beam="2">  1       -2 0.10334262E+00 0.25450832E+04</pdfrwt>
<totfact> 0.26592040E+00</totfact>
</mgrwt>
</event>
<event>
 6    1  0.1926753E-005  0.3828702E+04  0.7818608E-02  0.8040023E-01
         -1   -1    0    0    0  501 -0.00000000000E+00  0.00000000000E+00  0.15665139843E+04  0.15665139843E+04  0.00000000000E+00 0.  1.
          1   -1    0    0  501    0  0.00000000000E+00 -0.00000000000E+00 -0.23394231570E+04  0.23394231570E+04  0.00000000000E+00 0. -1.
         23    2    1    2    0    0  0.63314531612E+03 -0.73186504890E+03  0.12970869834E+04  0.16209024528E+04  0.91600643510E+02 0.  0.
         13    1    3    3    0    0  0.40484777210E+03 -0.52553693859E+03  0.91881401011E+03  0.11332740082E+04  0.00000000000E+00 0. -1.
        -13    1    3    3    0    0  0.22829754402E+03 -0.20632811032E+03  0.37827297330E+03  0.48762844466E+03  0.00000000000E+00 0.  1.
         22    1    1    2    0    0 -0.63314531612E+03  0.73186504890E+03 -0.20699961561E+04  0.22850346884E+04  0.00000000000E+00 0. -1.
<mgrwt>
<rscale>  0 0.38287017E+04</rscale>
<asrwt>0</asrwt>
<pdfrwt beam="1">  1        1 0.35991125E+00 0.38287017E+04</pdfrwt>
<pdfrwt beam="2">  1       -1 0.24100215E+00 0.38287017E+04</pdfrwt>
<totfact> 0.11085159E-01</totfact>
</mgrwt>
</event>
<event>
 6    1  0.1831439E-005  0.6585977E+04  0.7818608E-02  0.7621709E-01
         -2   -1    0    0    0  501 -0.00000000000E+00  0.00000000000E+00  0.26726079154E+04  0.26726079154E+04  0.00000000000E+00 0.  1.
          2   -1    0    0  501    0  0.00000000000E+00 -0.00000000000E+00 -0.40573746900E+04  0.40573746900E+04  0.00000000000E+00 0. -1.
         23    2    1    2    0    0  0.12292641234E+04  0.11771414252E+04  0.21874245380E+04  0.27730515984E+04  0.90757028036E+02 0.  0.
         11    1    3    3    0    0  0.95409490416E+03  0.92597410563E+03  0.17663396846E+04  0.22108100352E+04  0.00000000000E+00 0.  1.
        -11    1    3    3    0    0  0.27516921927E+03  0.25116731960E+03  0.42108485334E+03  0.56224156319E+03  0.00000000000E+00 0. -1.
         22    1    1    2    0    0 -0.12292641234E+04 -0.11771414252E+04 -0.35721913125E+04  0.39569310069E+04  0.00000000000E+00 0. -1.
<mgrwt>
<rscale>  0 0.65859765E+04</rscale>
<asrwt>0</asrwt>
<pdfrwt beam="1">  1        2 0.62421149E+00 0.65859765E+04</pdfrwt>
<pdfrwt beam="2">  1       -2 0.41117045E+00 0.65859765E+04</pdfrwt>
<totfact> 0.12337362E-03</totfact>
</mgrwt>
</event>
<event>
 6    1  0.1831439E-005  0.1441741E+04  0.7818608E-02  0.8924146E-01
         -1   -1    0    0    0  501 -0.00000000000E+00  0.00000000000E+00  0.91856542003E+03  0.91856542003E+03  0.00000000000E+00 0.  1.
          1   -1    0    0  501    0  0.00000000000E+00 -0.00000000000E+00 -0.56572387569E+03  0.56572387569E+03  0.00000000000E+00 0. -1.
         23    2    1    2    0    0 -0.18599706257E+03  0.55009827880E+03  0.61297165800E+03  0.84799478871E+03  0.78472189598E+02 0.  0.
         11    1    3    3    0    0 -0.11591260546E+03  0.22708151306E+03  0.28406077921E+03  0.38169657054E+03  0.00000000000E+00 0.  1.
        -11    1    3    3    0    0 -0.70084457113E+02  0.32301676575E+03  0.32891087878E+03  0.46629821817E+03  0.00000000000E+00 0. -1.
         22    1    1    2    0    0  0.18599706257E+03 -0.55009827880E+03 -0.26013011366E+03  0.63629450702E+03  0.00000000000E+00 0. -1.
<mgrwt>
<rscale>  0 0.14417412E+04</rscale>
<asrwt>0</asrwt>
<pdfrwt beam="1">  1        1 0.87034443E-01 0.14417412E+04</pdfrwt>
<pdfrwt beam="2">  1       -1 0.14131776E+00 0.14417412E+04</pdfrwt>
<totfact> 0.14815594E+01</totfact>
</mgrwt>
</event>
<event>
 6    1  0.1831439E-005  0.2731665E+04  0.7818608E-02  0.8324803E-01
          2   -1    0    0  501    0  0.00000000000E+00  0.00000000000E+00  0.25394219528E+04  0.25394219528E+04  0.00000000000E+00 0. -1.
         -2   -1    0    0    0  501 -0.00000000000E+00 -0.00000000000E+00 -0.73461546450E+03  0.73461546450E+03  0.00000000000E+00 0.  1.
         23    2    1    2    0    0 -0.74459916233E+03 -0.43342002465E+02  0.22726608448E+04  0.23935863166E+04  0.89228347143E+02 0.  0.
         13    1    3    3    0    0 -0.90134196562E+02 -0.30967149063E+02  0.33855915414E+03  0.35171783942E+03  0.00000000000E+00 0.  1.
        -13    1    3    3    0    0 -0.65446496577E+03 -0.12374853402E+02  0.19341016907E+04  0.20418684772E+04  0.00000000000E+00 0. -1.
         22    1    1    2    0    0  0.74459916233E+03  0.43342002465E+02 -0.46785435653E+03  0.88045110066E+03  0.00000000000E+00 0.  1.
<mgrwt>
<rscale>  0 0.27316652E+04</rscale>
<asrwt>0</asrwt>
<pdfrwt beam="1">  1        2 0.39068030E+00 0.27316652E+04</pdfrwt>
<pdfrwt beam="2">  1       -2 0.11301776E+00 0.27316652E+04</pdfrwt>
<totfact> 0.17771391E+00</totfact>
</mgrwt>
</event>
<event>
 6    1  0.1831439E-005  0.1616663E+04  0.7818608E-02  0.8810376E-01
          2   -1    0    0  501    0  0.00000000000E+00  0.00000000000E+00  0.15641629080E+04  0.15641629080E+04  0.00000000000E+00 0. -1.
         -2   -1    0    0    0  501 -0.00000000000E+00 -0.00000000000E+00 -0.41773110944E+03  0.41773110944E+03  0.00000000000E+00 0.  1.
         23    2    1    2    0    0 -0.59849300303E+03 -0.71198364990E+02 -0.80489094782E+02  0.61492731691E+03  0.91618932823E+02 0.  0.
         11    1    3    3    0    0 -0.23356556766E+03  0.12745909623E+02 -0.50256493380E+02  0.23925101408E+03  0.00000000000E+00 0.  1.
        -11    1    3    3    0    0 -0.36492743536E+03 -0.83944274613E+02 -0.30232601402E+02  0.37567630283E+03  0.00000000000E+00 0. -1.
         22    1    1    2    0    0  0.59849300303E+03  0.71198364990E+02  0.12269208934E+04  0.13669667006E+04  0.00000000000E+00 0. -1.
<mgrwt>
<rscale>  0 0.16166626E+04</rscale>
<asrwt>0</asrwt>
<pdfrwt beam="1">  1        2 0.24064044E+00 0.16166626E+04</pdfrwt>
<pdfrwt beam="2">  1       -2 0.64266325E-01 0.16166626E+04</pdfrwt>
<totfact> 0.25021546E+01</totfact>
</mgrwt>
</event>
<event>
 6    1  0.1831439E-005  0.3029234E+04  0.7818608E-02  0.8235432E-01
         -2   -1    0    0    0  501 -0.00000000000E+00  0.00000000000E+00  0.83791200878E+03  0.83791200878E+03  0.00000000000E+00 0.  1.
          2   -1    0    0  501    0  0.00000000000E+00 -0.00000000000E+00 -0.27378344500E+04  0.27378344500E+04  0.00000000000E+00 0. -1.
         23    2    1    2    0    0 -0.10003168303E+04 -0.24146588602E+03  0.35892959092E+03  0.10935393687E+04  0.89768393283E+02 0.  0.
         13    1    3    3    0    0 -0.55614039223E+03 -0.14257789482E+03  0.15366248311E+03  0.59433387138E+03  0.00000000000E+00 0.  1.
        -13    1    3    3    0    0 -0.44417643809E+03 -0.98887991198E+02  0.20526710781E+03  0.49920549727E+03  0.00000000000E+00 0. -1.
         22    1    1    2    0    0  0.10003168303E+04  0.24146588602E+03 -0.22588520321E+04  0.24822070901E+04  0.00000000000E+00 0. -1.
<mgrwt>
<rscale>  0 0.30292338E+04</rscale>
<asrwt>0</asrwt>
<pdfrwt beam="1">  1        2 0.42120530E+00 0.30292338E+04</pdfrwt>
<pdfrwt beam="2">  1       -2 0.12890954E+00 0.30292338E+04</pdfrwt>
<totfact> 0.95465291E-01</totfact>
</mgrwt>
</event>
<event>
 6    1  0.1831439E-005  0.6323749E+03  0.7818608E-02  0.9840425E-01
          1   -1    0    0  501    0  0.00000000000E+00  0.00000000000E+00  0.70752531154E+03  0.70752531154E+03  0.00000000000E+00 0. -1.
         -1   -1    0    0    0  501 -0.00000000000E+00 -0.00000000000E+00 -0.14130166193E+03  0.14130166193E+03  0.00000000000E+00 0.  1.
         23    2    1    2    0    0 -0.65018520326E+02 -0.11570170865E+03 -0.85421903127E+02  0.18380350037E+03  0.94194117890E+02 0.  0.
         13    1    3    3    0    0  0.96605775480E+01 -0.65795770853E+02 -0.11525655349E+02  0.67492599238E+02  0.00000000000E+00 0.  1.
        -13    1    3    3    0    0 -0.74679097874E+02 -0.49905937793E+02 -0.73896247778E+02  0.11631090113E+03  0.00000000000E+00 0. -1.
         22    1    1    2    0    0  0.65018520326E+02  0.11570170865E+03  0.65164555274E+03  0.66502347310E+03  0.00000000000E+00 0. -1.
<mgrwt>
<rscale>  0 0.63237490E+03</rscale>
<asrwt>0</asrwt>
<pdfrwt beam="1">  1        1 0.10885005E+00 0.63237490E+03</pdfrwt>
<pdfrwt beam="2">  1       -1 0.21738718E-01 0.63237490E+03</pdfrwt>
<totfact> 0.48148996E+02</totfact>
</mgrwt>
</event>
<event>
 6    1  0.1831439E-005  0.1773139E+04  0.7818608E-02  0.8720716E-01
          1   -1    0    0  501    0  0.00000000000E+00  0.00000000000E+00  0.74449873898E+03  0.74449873898E+03  0.00000000000E+00 0. -1.
         -1   -1    0    0    0  501 -0.00000000000E+00 -0.00000000000E+00 -0.10557508595E+04  0.10557508595E+04  0.00000000000E+00 0.  1.
         23    2    1    2    0    0  0.45756649840E+03 -0.25060319095E+03  0.56873462869E+03  0.77724141739E+03  0.92065646482E+02 0.  0.
         11    1    3    3    0    0  0.22058293135E+03 -0.16751156063E+03  0.32883888303E+03  0.42994414003E+03  0.00000000000E+00 0.  1.
        -11    1    3    3    0    0  0.23698356704E+03 -0.83091630319E+02  0.23989574566E+03  0.34729727736E+03  0.00000000000E+00 0. -1.
         22    1    1    2    0    0 -0.45756649840E+03  0.25060319095E+03 -0.87998674920E+03  0.10230081811E+04  0.00000000000E+00 0.  1.
<mgrwt>
<rscale>  0 0.17731387E+04</rscale>
<asrwt>0</asrwt>
<pdfrwt beam="1">  1        1 0.11453827E+00 0.17731387E+04</pdfrwt>
<pdfrwt beam="2">  1       -1 0.16242321E+00 0.17731387E+04</pdfrwt>
<totfact> 0.65651211E+00</totfact>
</mgrwt>
</event>
<event>
 6    1  0.2637509E-005  0.1983320E+04  0.7818608E-02  0.8614459E-01
         -2   -1    0    0    0  501 -0.00000000000E+00  0.00000000000E+00  0.58988641151E+03  0.58988641151E+03  0.00000000000E+00 0.  1.
          2   -1    0    0  501    0  0.00000000000E+00 -0.00000000000E+00 -0.16670824909E+04  0.16670824909E+04  0.00000000000E+00 0. -1.
         23    2    1    2    0    0 -0.39158815304E+03  0.36443514005E+03  0.40836217061E+03  0.67803332201E+03  0.82554651405E+02 0.  0.
         13    1    3    3    0    0 -0.22239799796E+03  0.17628447765E+03  0.25896429498E+03  0.38418692408E+03  0.00000000000E+00 0.  1.
        -13    1    3    3    0    0 -0.16919015508E+03  0.18815066240E+03  0.14939787564E+03  0.29384639794E+03  0.00000000000E+00 0. -1.
         22    1    1    2    0    0  0.39158815304E+03 -0.36443514005E+03 -0.14855582500E+04  0.15789355804E+04  0.00000000000E+00 0. -1.
<mgrwt>
<rscale>  0 0.19833198E+04</rscale>
<asrwt>0</asrwt>
<pdfrwt beam="1">  1        2 0.25647423E+00 0.19833198E+04</pdfrwt>
<pdfrwt beam="2">  1       -2 0.90751757E-01 0.19833198E+04</pdfrwt>
<totfact> 0.98661704E+00</totfact>
</mgrwt>
</event>
<event>
 6    1  0.1831439E-005  0.2317818E+04  0.7818608E-02  0.8470929E-01
         -2   -1    0    0    0  501 -0.00000000000E+00  0.00000000000E+00  0.63866581643E+03  0.63866581643E+03  0.00000000000E+00 0.  1.
          2   -1    0    0  501    0  0.00000000000E+00 -0.00000000000E+00 -0.21029312162E+04  0.21029312162E+04  0.00000000000E+00 0. -1.
         23    2    1    2    0    0 -0.86940309732E+03  0.67908739246E+03 -0.11462105643E+04  0.15934766946E+04  0.91366768991E+02 0.  0.
         11    1    3    3    0    0 -0.61751833369E+03  0.52139902596E+03 -0.87519112481E+03  0.11912788681E+04  0.00000000000E+00 0.  1.
        -11    1    3    3    0    0 -0.25188476362E+03  0.15768836649E+03 -0.27101943946E+03  0.40219782650E+03  0.00000000000E+00 0. -1.
         22    1    1    2    0    0  0.86940309732E+03 -0.67908739246E+03 -0.31805483554E+03  0.11481203380E+04  0.00000000000E+00 0.  1.
<mgrwt>
<rscale>  0 0.23178182E+04</rscale>
<asrwt>0</asrwt>
<pdfrwt beam="1">  1        2 0.32352787E+00 0.23178182E+04</pdfrwt>
<pdfrwt beam="2">  1       -2 0.98256281E-01 0.23178182E+04</pdfrwt>
<totfact> 0.45627060E+00</totfact>
</mgrwt>
</event>
<event>
 6    1  0.1831439E-005  0.1990016E+04  0.7818608E-02  0.8611303E-01
         -1   -1    0    0    0  501 -0.00000000000E+00  0.00000000000E+00  0.69734413875E+03  0.69734413875E+03  0.00000000000E+00 0.  1.
          1   -1    0    0  501    0  0.00000000000E+00 -0.00000000000E+00 -0.14197302825E+04  0.14197302825E+04  0.00000000000E+00 0. -1.
         23    2    1    2    0    0 -0.54520136967E+03  0.55188079061E+03 -0.10225252173E+04  0.12852689127E+04  0.67390039833E+02 0.  0.
         11    1    3    3    0    0 -0.18817596893E+03  0.19528225545E+03 -0.41134263917E+03  0.49269475477E+03  0.00000000000E+00 0. -1.
        -11    1    3    3    0    0 -0.35702540075E+03  0.35659853515E+03 -0.61118257814E+03  0.79257415796E+03  0.00000000000E+00 0.  1.
         22    1    1    2    0    0  0.54520136967E+03 -0.55188079061E+03  0.30013907355E+03  0.83180550852E+03  0.00000000000E+00 0.  1.
<mgrwt>
<rscale>  0 0.19900157E+04</rscale>
<asrwt>0</asrwt>
<pdfrwt beam="1">  1        1 0.21842004E+00 0.19900157E+04</pdfrwt>
<pdfrwt beam="2">  1       -1 0.10728371E+00 0.19900157E+04</pdfrwt>
<totfact> 0.55932533E+00</totfact>
</mgrwt>
</event>
<event>
 6    1  0.1831439E-005  0.2919217E+04  0.7818608E-02  0.8267183E-01
          1   -1    0    0  501    0  0.00000000000E+00  0.00000000000E+00  0.96595777508E+03  0.96595777508E+03  0.00000000000E+00 0. -1.
         -1   -1    0    0    0  501 -0.00000000000E+00 -0.00000000000E+00 -0.22055389412E+04  0.22055389412E+04  0.00000000000E+00 0.  1.
         23    2    1    2    0    0  0.10450065528E+04  0.80848776399E+03  0.49917412289E+02  0.13252849885E+04  0.90539454825E+02 0.  0.
         13    1    3    3    0    0  0.60685868411E+03  0.41314914506E+03  0.21496053584E+02  0.73446018195E+03  0.00000000000E+00 0. -1.
        -13    1    3    3    0    0  0.43814786869E+03  0.39533861893E+03  0.28421358706E+02  0.59082480659E+03  0.00000000000E+00 0.  1.
         22    1    1    2    0    0 -0.10450065528E+04 -0.80848776399E+03 -0.12894985784E+04  0.18462117277E+04  0.00000000000E+00 0.  1.
<mgrwt>
<rscale>  0 0.29192174E+04</rscale>
<asrwt>0</asrwt>
<pdfrwt beam="1">  1        1 0.14860889E+00 0.29192174E+04</pdfrwt>
<pdfrwt beam="2">  1       -1 0.33931368E+00 0.29192174E+04</pdfrwt>
<totfact> 0.25214534E-01</totfact>
</mgrwt>
</event>
<event>
 6    1  0.1831439E-005  0.2522847E+04  0.7818608E-02  0.8394891E-01
          2   -1    0    0  501    0  0.00000000000E+00  0.00000000000E+00  0.23326403300E+04  0.23326403300E+04  0.00000000000E+00 0.  1.
         -2   -1    0    0    0  501 -0.00000000000E+00 -0.00000000000E+00 -0.68214085345E+03  0.68214085345E+03  0.00000000000E+00 0. -1.
         23    2    1    2    0    0  0.97146586627E+03 -0.52736403233E+03  0.10390295380E+03  0.11137763028E+04  0.88561148538E+02 0.  0.
         11    1    3    3    0    0  0.36420711246E+03 -0.14998398187E+03  0.42930794223E+02  0.39621341304E+03  0.00000000000E+00 0. -1.
        -11    1    3    3    0    0  0.60725875382E+03 -0.37738005046E+03  0.60972159575E+02  0.71756288980E+03  0.00000000000E+00 0.  1.
         22    1    1    2    0    0 -0.97146586627E+03  0.52736403233E+03  0.15465965228E+04  0.19010048806E+04  0.00000000000E+00 0.  1.
<mgrwt>
<rscale>  0 0.25228470E+04</rscale>
<asrwt>0</asrwt>
<pdfrwt beam="1">  1        2 0.35886774E+00 0.25228470E+04</pdfrwt>
<pdfrwt beam="2">  1       -2 0.10494475E+00 0.25228470E+04</pdfrwt>
<totfact> 0.28456843E+00</totfact>
</mgrwt>
</event>
<event>
 6    1  0.1831439E-005  0.2560128E+04  0.7818608E-02  0.8381872E-01
         -2   -1    0    0    0  501 -0.00000000000E+00  0.00000000000E+00  0.50239709909E+03  0.50239709909E+03  0.00000000000E+00 0.  1.
          2   -1    0    0  501    0  0.00000000000E+00 -0.00000000000E+00 -0.32614921268E+04  0.32614921268E+04  0.00000000000E+00 0. -1.
         23    2    1    2    0    0  0.32827476644E+03 -0.11927206827E+04 -0.90787986219E+03  0.15373797293E+04  0.94570812969E+02 0.  0.
         13    1    3    3    0    0  0.22983693769E+03 -0.76092706577E+03 -0.63304651497E+03  0.10161608669E+04  0.00000000000E+00 0. -1.
        -13    1    3    3    0    0  0.98437828751E+02 -0.43179361696E+03 -0.27483334721E+03  0.52121886240E+03  0.00000000000E+00 0.  1.
         22    1    1    2    0    0 -0.32827476644E+03  0.11927206827E+04 -0.18512151655E+04  0.22265094966E+04  0.00000000000E+00 0. -1.
<mgrwt>
<rscale>  0 0.25601283E+04</rscale>
<asrwt>0</asrwt>
<pdfrwt beam="1">  1        2 0.50176800E+00 0.25601283E+04</pdfrwt>
<pdfrwt beam="2">  1       -2 0.77291864E-01 0.25601283E+04</pdfrwt>
<totfact> 0.15663869E+00</totfact>
</mgrwt>
</event>
<event>
 6    1  0.1831439E-005  0.1496493E+04  0.7818608E-02  0.8886788E-01
          2   -1    0    0  501    0  0.00000000000E+00  0.00000000000E+00  0.10066714248E+04  0.10066714248E+04  0.00000000000E+00 0. -1.
         -2   -1    0    0    0  501 -0.00000000000E+00 -0.00000000000E+00 -0.55616259950E+03  0.55616259950E+03  0.00000000000E+00 0.  1.
         23    2    1    2    0    0  0.15271680225E+03 -0.32311595618E+03 -0.45722337851E+03  0.58728079835E+03  0.90106467163E+02 0.  0.
         11    1    3    3    0    0  0.61543275336E+02 -0.49488835842E+02 -0.79780358097E+02  0.11225696036E+03  0.00000000000E+00 0. -1.
        -11    1    3    3    0    0  0.91173526910E+02 -0.27362712034E+03 -0.37744302041E+03  0.47502383798E+03  0.00000000000E+00 0.  1.
         22    1    1    2    0    0 -0.15271680225E+03  0.32311595618E+03  0.90773220377E+03  0.97555322591E+03  0.00000000000E+00 0. -1.
<mgrwt>
<rscale>  0 0.14964932E+04</rscale>
<asrwt>0</asrwt>
<pdfrwt beam="1">  1        2 0.15487253E+00 0.14964932E+04</pdfrwt>
<pdfrwt beam="2">  1       -2 0.85563477E-01 0.14964932E+04</pdfrwt>
<totfact> 0.28615806E+01</totfact>
</mgrwt>
</event>
<event>
 6    1  0.1831439E-005  0.2195097E+04  0.7818608E-02  0.8520472E-01
          1   -1    0    0  501    0  0.00000000000E+00  0.00000000000E+00  0.16516380331E+04  0.16516380331E+04  0.00000000000E+00 0. -1.
         -1   -1    0    0    0  501 -0.00000000000E+00 -0.00000000000E+00 -0.72934415257E+03  0.72934415257E+03  0.00000000000E+00 0.  1.
         23    2    1    2    0    0 -0.33945755615E+03  0.54066865334E+03  0.14279917544E+04  0.15665594669E+04  0.85988880996E+02 0.  0.
         11    1    3    3    0    0 -0.94067605483E+02  0.96022793189E+02  0.25256475286E+03  0.28610845077E+03  0.00000000000E+00 0. -1.
        -11    1    3    3    0    0 -0.24538995066E+03  0.44464586015E+03  0.11754270015E+04  0.12804510161E+04  0.00000000000E+00 0.  1.
         22    1    1    2    0    0  0.33945755615E+03 -0.54066865334E+03 -0.50569787388E+03  0.81442271873E+03  0.00000000000E+00 0.  1.
<mgrwt>
<rscale>  0 0.21950968E+04</rscale>
<asrwt>0</asrwt>
<pdfrwt beam="1">  1        1 0.25409816E+00 0.21950968E+04</pdfrwt>
<pdfrwt beam="2">  1       -1 0.11220679E+00 0.21950968E+04</pdfrwt>
<totfact> 0.34148402E+00</totfact>
</mgrwt>
</event>
<event>
 6    1  0.1831439E-005  0.2606416E+04  0.7818608E-02  0.8366025E-01
          2   -1    0    0  501    0  0.00000000000E+00  0.00000000000E+00  0.13789532014E+04  0.13789532014E+04  0.00000000000E+00 0. -1.
         -2   -1    0    0    0  501 -0.00000000000E+00 -0.00000000000E+00 -0.12316233729E+04  0.12316233729E+04  0.00000000000E+00 0.  1.
         23    2    1    2    0    0 -0.92889312697E+03 -0.69016130126E+03  0.67052244448E+03  0.13405783158E+04  0.91568603399E+02 0.  0.
         13    1    3    3    0    0 -0.59818528841E+03 -0.44310598364E+03  0.38008464175E+03  0.83584262090E+03  0.00000000000E+00 0. -1.
        -13    1    3    3    0    0 -0.33070783856E+03 -0.24705531762E+03  0.29043780272E+03  0.50473569489E+03  0.00000000000E+00 0.  1.
         22    1    1    2    0    0  0.92889312697E+03  0.69016130126E+03 -0.52319261606E+03  0.12699982585E+04  0.00000000000E+00 0.  1.
<mgrwt>
<rscale>  0 0.26064159E+04</rscale>
<asrwt>0</asrwt>
<pdfrwt beam="1">  1        2 0.21214665E+00 0.26064159E+04</pdfrwt>
<pdfrwt beam="2">  1       -2 0.18948052E+00 0.26064159E+04</pdfrwt>
<totfact> 0.20555689E+00</totfact>
</mgrwt>
</event>
<event>
 6    1  0.1831439E-005  0.7000747E+03  0.7818608E-02  0.9717104E-01
          2   -1    0    0  501    0  0.00000000000E+00  0.00000000000E+00  0.58705956157E+03  0.58705956157E+03  0.00000000000E+00 0. -1.
         -2   -1    0    0    0  501 -0.00000000000E+00 -0.00000000000E+00 -0.20871161835E+03  0.20871161835E+03  0.00000000000E+00 0.  1.
         23    2    1    2    0    0 -0.88419239102E+02 -0.30120644909E+02  0.56881670636E+03  0.58363074335E+03  0.91362924942E+02 0.  0.
         11    1    3    3    0    0 -0.46320097181E+02  0.13304472651E+02  0.42345200131E+03  0.42618559080E+03  0.00000000000E+00 0.  1.
        -11    1    3    3    0    0 -0.42099141921E+02 -0.43425117560E+02  0.14536470505E+03  0.15744515255E+03  0.00000000000E+00 0. -1.
         22    1    1    2    0    0  0.88419239102E+02  0.30120644909E+02 -0.19046876315E+03  0.21214043657E+03  0.00000000000E+00 0.  1.
<mgrwt>
<rscale>  0 0.70007471E+03</rscale>
<asrwt>0</asrwt>
<pdfrwt beam="1">  1        2 0.90316855E-01 0.70007471E+03</pdfrwt>
<pdfrwt beam="2">  1       -2 0.32109480E-01 0.70007471E+03</pdfrwt>
<totfact> 0.46255569E+02</totfact>
</mgrwt>
</event>
<event>
 6    1  0.1831439E-005  0.4865240E+04  0.7818608E-02  0.7849638E-01
         -2   -1    0    0    0  501 -0.00000000000E+00  0.00000000000E+00  0.16523628086E+04  0.16523628086E+04  0.00000000000E+00 0.  1.
          2   -1    0    0  501    0  0.00000000000E+00 -0.00000000000E+00 -0.35813194686E+04  0.35813194686E+04  0.00000000000E+00 0. -1.
         23    2    1    2    0    0 -0.73017303264E+03  0.20929132677E+04 -0.20405818670E+04  0.30142456841E+04  0.90907007808E+02 0.  0.
         11    1    3    3    0    0 -0.59849512715E+03  0.16988587161E+04 -0.16094180298E+04  0.24154800246E+04  0.00000000000E+00 0. -1.
        -11    1    3    3    0    0 -0.13167790549E+03  0.39405455164E+03 -0.43116383725E+03  0.59876565951E+03  0.00000000000E+00 0.  1.
         22    1    1    2    0    0  0.73017303264E+03 -0.20929132677E+04  0.11162520701E+03  0.22194365931E+04  0.00000000000E+00 0. -1.
<mgrwt>
<rscale>  0 0.48652396E+04</rscale>
<asrwt>0</asrwt>
<pdfrwt beam="1">  1        2 0.55097222E+00 0.48652396E+04</pdfrwt>
<pdfrwt beam="2">  1       -2 0.25420967E+00 0.48652396E+04</pdfrwt>
<totfact> 0.31648988E-02</totfact>
</mgrwt>
</event>
<event>
 6    1  0.1831439E-005  0.1401143E+04  0.7818608E-02  0.8952992E-01
         -1   -1    0    0    0  501 -0.00000000000E+00  0.00000000000E+00  0.46423434041E+03  0.46423434041E+03  0.00000000000E+00 0.  1.
          1   -1    0    0  501    0  0.00000000000E+00 -0.00000000000E+00 -0.10572251915E+04  0.10572251915E+04  0.00000000000E+00 0. -1.
         23    2    1    2    0    0  0.59021342814E+03  0.35907293620E+03 -0.19271241783E+03  0.72301849566E+03  0.91282007050E+02 0.  0.
         11    1    3    3    0    0  0.18764489826E+03  0.15306144751E+03 -0.38301692550E+02  0.24516409649E+03  0.00000000000E+00 0.  1.
        -11    1    3    3    0    0  0.40256852988E+03  0.20601148870E+03 -0.15441072528E+03  0.47785439917E+03  0.00000000000E+00 0. -1.
         22    1    1    2    0    0 -0.59021342814E+03 -0.35907293620E+03 -0.40027843330E+03  0.79844103629E+03  0.00000000000E+00 0. -1.
<mgrwt>
<rscale>  0 0.14011427E+04</rscale>
<asrwt>0</asrwt>
<pdfrwt beam="1">  1        1 0.16265003E+00 0.14011427E+04</pdfrwt>
<pdfrwt beam="2">  1       -1 0.71420668E-01 0.14011427E+04</pdfrwt>
<totfact> 0.26374079E+01</totfact>
</mgrwt>
</event>
<event>
 6    1  0.1831439E-005  0.2298296E+04  0.7818608E-02  0.8478593E-01
         -1   -1    0    0    0  501 -0.00000000000E+00  0.00000000000E+00  0.13791550443E+04  0.13791550443E+04  0.00000000000E+00 0.  1.
          1   -1    0    0  501    0  0.00000000000E+00 -0.00000000000E+00 -0.95749970931E+03  0.95749970931E+03  0.00000000000E+00 0. -1.
         23    2    1    2    0    0  0.63348228274E+03  0.75752095732E+03  0.80513377752E+03  0.12773183957E+04  0.90355304131E+02 0.  0.
         13    1    3    3    0    0  0.15126585673E+03  0.20269757044E+03  0.25507012188E+03  0.35920527773E+03  0.00000000000E+00 0. -1.
        -13    1    3    3    0    0  0.48221642601E+03  0.55482338688E+03  0.55006365564E+03  0.91811311798E+03  0.00000000000E+00 0.  1.
         22    1    1    2    0    0 -0.63348228274E+03 -0.75752095732E+03 -0.38347844252E+03  0.10593363579E+04  0.00000000000E+00 0. -1.
<mgrwt>
<rscale>  0 0.22982955E+04</rscale>
<asrwt>0</asrwt>
<pdfrwt beam="1">  1        1 0.14730765E+00 0.22982955E+04</pdfrwt>
<pdfrwt beam="2">  1       -1 0.21217770E+00 0.22982955E+04</pdfrwt>
<totfact> 0.18362453E+00</totfact>
</mgrwt>
</event>
<event>
 6    1  0.1831439E-005  0.9971156E+03  0.7818608E-02  0.9311714E-01
          1   -1    0    0  501    0  0.00000000000E+00  0.00000000000E+00  0.79607795895E+03  0.79607795895E+03  0.00000000000E+00 0. -1.
         -1   -1    0    0    0  501 -0.00000000000E+00 -0.00000000000E+00 -0.31223059043E+03  0.31223059043E+03  0.00000000000E+00 0.  1.
         23    2    1    2    0    0 -0.22786303053E+03  0.39026975757E+03  0.46458957242E+03  0.65597802083E+03  0.10115161222E+03 0.  0.
         13    1    3    3    0    0 -0.23842316760E+03  0.37230354330E+03  0.44709819763E+03  0.62877049352E+03  0.00000000000E+00 0.  1.
        -13    1    3    3    0    0  0.10560137070E+02  0.17966214271E+02  0.17491374795E+02  0.27207527311E+02  0.00000000000E+00 0. -1.
         22    1    1    2    0    0  0.22786303053E+03 -0.39026975757E+03  0.19257796094E+02  0.45233052856E+03  0.00000000000E+00 0. -1.
<mgrwt>
<rscale>  0 0.99711562E+03</rscale>
<asrwt>0</asrwt>
<pdfrwt beam="1">  1        1 0.12247353E+00 0.99711562E+03</pdfrwt>
<pdfrwt beam="2">  1       -1 0.48035476E-01 0.99711562E+03</pdfrwt>
<totfact> 0.96748874E+01</totfact>
</mgrwt>
</event>
<event>
 6    1  0.1831439E-005  0.2591564E+04  0.7818608E-02  0.8371072E-01
          2   -1    0    0  501    0  0.00000000000E+00  0.00000000000E+00  0.11791181111E+04  0.11791181111E+04  0.00000000000E+00 0. -1.
         -2   -1    0    0    0  501 -0.00000000000E+00 -0.00000000000E+00 -0.14239887645E+04  0.14239887645E+04  0.00000000000E+00 0.  1.
         23    2    1    2    0    0  0.14285432594E+03  0.92692685206E+03  0.77302213643E+03  0.12190163875E+04  0.94005224049E+02 0.  0.
         13    1    3    3    0    0  0.82234222022E+02  0.25775005257E+03  0.23007029662E+03  0.35514771330E+03  0.00000000000E+00 0.  1.
        -13    1    3    3    0    0  0.60620103921E+02  0.66917679948E+03  0.54295183981E+03  0.86386867423E+03  0.00000000000E+00 0. -1.
         22    1    1    2    0    0 -0.14285432594E+03 -0.92692685206E+03 -0.10178927899E+04  0.13840904881E+04  0.00000000000E+00 0.  1.
<mgrwt>
<rscale>  0 0.25915640E+04</rscale>
<asrwt>0</asrwt>
<pdfrwt beam="1">  1        2 0.18140279E+00 0.25915640E+04</pdfrwt>
<pdfrwt beam="2">  1       -2 0.21907519E+00 0.25915640E+04</pdfrwt>
<totfact> 0.17287205E+00</totfact>
</mgrwt>
</event>
<event>
 6    1  0.1831439E-005  0.2526505E+04  0.7818608E-02  0.8393604E-01
          1   -1    0    0  501    0  0.00000000000E+00  0.00000000000E+00  0.22950354108E+04  0.22950354108E+04  0.00000000000E+00 0. -1.
         -1   -1    0    0    0  501 -0.00000000000E+00 -0.00000000000E+00 -0.69532975017E+03  0.69532975017E+03  0.00000000000E+00 0.  1.
         23    2    1    2    0    0  0.40810073942E+03  0.89831759789E+03 -0.12945338002E+03  0.99950813244E+03  0.93475178536E+02 0.  0.
         11    1    3    3    0    0  0.13904824884E+03  0.22299714080E+03 -0.57486998026E+02  0.26901095750E+03  0.00000000000E+00 0. -1.
        -11    1    3    3    0    0  0.26905249058E+03  0.67532045709E+03 -0.71966381995E+02  0.73049717494E+03  0.00000000000E+00 0.  1.
         22    1    1    2    0    0 -0.40810073942E+03 -0.89831759789E+03  0.17291590406E+04  0.19908570285E+04  0.00000000000E+00 0. -1.
<mgrwt>
<rscale>  0 0.25265046E+04</rscale>
<asrwt>0</asrwt>
<pdfrwt beam="1">  1        1 0.35308237E+00 0.25265046E+04</pdfrwt>
<pdfrwt beam="2">  1       -1 0.10697381E+00 0.25265046E+04</pdfrwt>
<totfact> 0.13547313E+00</totfact>
</mgrwt>
</event>
<event>
 6    1  0.1831439E-005  0.1072822E+04  0.7818608E-02  0.9232094E-01
          2   -1    0    0  501    0  0.00000000000E+00  0.00000000000E+00  0.11808155991E+04  0.11808155991E+04  0.00000000000E+00 0. -1.
         -2   -1    0    0    0  501 -0.00000000000E+00 -0.00000000000E+00 -0.24367640652E+03  0.24367640652E+03  0.00000000000E+00 0.  1.
         23    2    1    2    0    0  0.51525065596E+03 -0.10622705043E+03  0.34117412928E+03  0.62954434610E+03  0.56203847797E+02 0.  0.
         13    1    3    3    0    0  0.23636151926E+03 -0.32894393034E+02  0.12690962152E+03  0.27028662733E+03  0.00000000000E+00 0.  1.
        -13    1    3    3    0    0  0.27888913670E+03 -0.73332657394E+02  0.21426450776E+03  0.35925771877E+03  0.00000000000E+00 0. -1.
         22    1    1    2    0    0 -0.51525065596E+03  0.10622705043E+03  0.59596506333E+03  0.79494765954E+03  0.00000000000E+00 0. -1.
<mgrwt>
<rscale>  0 0.10728223E+04</rscale>
<asrwt>0</asrwt>
<pdfrwt beam="1">  1        2 0.18166394E+00 0.10728223E+04</pdfrwt>
<pdfrwt beam="2">  1       -2 0.37488679E-01 0.10728223E+04</pdfrwt>
<totfact> 0.12967594E+02</totfact>
</mgrwt>
</event>
<event>
 6    1  0.1831439E-005  0.4613505E+03  0.7818608E-02  0.1024390E+00
          1   -1    0    0  501    0  0.00000000000E+00  0.00000000000E+00  0.27995908928E+03  0.27995908928E+03  0.00000000000E+00 0. -1.
         -1   -1    0    0    0  501 -0.00000000000E+00 -0.00000000000E+00 -0.19006726920E+03  0.19006726920E+03  0.00000000000E+00 0.  1.
         23    2    1    2    0    0  0.17515771793E+02  0.18678436569E+03  0.16655287433E+03  0.26736378481E+03  0.92457189825E+02 0.  0.
         13    1    3    3    0    0  0.36919524680E+02  0.13514713973E+03  0.15862283953E+03  0.21163413217E+03  0.00000000000E+00 0. -1.
        -13    1    3    3    0    0 -0.19403752887E+02  0.51637225961E+02  0.79300348041E+01  0.55729652637E+02  0.00000000000E+00 0.  1.
         22    1    1    2    0    0 -0.17515771793E+02 -0.18678436569E+03 -0.76661054245E+02  0.20266257367E+03  0.00000000000E+00 0.  1.
<mgrwt>
<rscale>  0 0.46135045E+03</rscale>
<asrwt>0</asrwt>
<pdfrwt beam="1">  1        1 0.43070629E-01 0.46135045E+03</pdfrwt>
<pdfrwt beam="2">  1       -1 0.29241118E-01 0.46135045E+03</pdfrwt>
<totfact> 0.10253660E+03</totfact>
</mgrwt>
</event>
<event>
 6    1  0.1831439E-005  0.1653315E+04  0.7818608E-02  0.8788447E-01
          2   -1    0    0  501    0  0.00000000000E+00  0.00000000000E+00  0.27886420268E+04  0.27886420268E+04  0.00000000000E+00 0. -1.
         -2   -1    0    0    0  501 -0.00000000000E+00 -0.00000000000E+00 -0.24505225867E+03  0.24505225867E+03  0.00000000000E+00 0.  1.
         23    2    1    2    0    0  0.45225819009E+03  0.42027114803E+03  0.27322961107E+03  0.68088733395E+03  0.88248698572E+02 0.  0.
         13    1    3    3    0    0  0.14321820127E+03  0.19162965414E+03  0.10540580715E+03  0.26142639825E+03  0.00000000000E+00 0. -1.
        -13    1    3    3    0    0  0.30903998882E+03  0.22864149389E+03  0.16782380392E+03  0.41946093570E+03  0.00000000000E+00 0.  1.
         22    1    1    2    0    0 -0.45225819009E+03 -0.42027114803E+03  0.22703601571E+04  0.23528069515E+04  0.00000000000E+00 0. -1.
<mgrwt>
<rscale>  0 0.16533155E+04</rscale>
<asrwt>0</asrwt>
<pdfrwt beam="1">  1        2 0.42902183E+00 0.16533155E+04</pdfrwt>
<pdfrwt beam="2">  1       -2 0.37700350E-01 0.16533155E+04</pdfrwt>
<totfact> 0.14947979E+01</totfact>
</mgrwt>
</event>
<event>
 6    1  0.1831439E-005  0.2870987E+04  0.7818608E-02  0.8281562E-01
          1   -1    0    0  501    0  0.00000000000E+00  0.00000000000E+00  0.81028448285E+03  0.81028448285E+03  0.00000000000E+00 0. -1.
         -1   -1    0    0    0  501 -0.00000000000E+00 -0.00000000000E+00 -0.25431094699E+04  0.25431094699E+04  0.00000000000E+00 0.  1.
         23    2    1    2    0    0 -0.21439798049E+03 -0.73057664262E+03 -0.22867647440E+04  0.24118218741E+04  0.88786447813E+02 0.  0.
         11    1    3    3    0    0 -0.10068683501E+03 -0.42505357832E+03 -0.11902827317E+04  0.12679043199E+04  0.00000000000E+00 0. -1.
        -11    1    3    3    0    0 -0.11371114547E+03 -0.30552306429E+03 -0.10964820123E+04  0.11439175542E+04  0.00000000000E+00 0.  1.
         22    1    1    2    0    0  0.21439798049E+03  0.73057664262E+03  0.55393975700E+03  0.94157207858E+03  0.00000000000E+00 0. -1.
<mgrwt>
<rscale>  0 0.28709874E+04</rscale>
<asrwt>0</asrwt>
<pdfrwt beam="1">  1        1 0.12465915E+00 0.28709874E+04</pdfrwt>
<pdfrwt beam="2">  1       -1 0.39124761E+00 0.28709874E+04</pdfrwt>
<totfact> 0.15289976E-01</totfact>
</mgrwt>
</event>
<event>
 6    1  0.1831439E-005  0.1844394E+04  0.7818608E-02  0.8683041E-01
         -1   -1    0    0    0  501 -0.00000000000E+00  0.00000000000E+00  0.71295906284E+03  0.71295906284E+03  0.00000000000E+00 0.  1.
          1   -1    0    0  501    0  0.00000000000E+00 -0.00000000000E+00 -0.11928416407E+04  0.11928416407E+04  0.00000000000E+00 0. -1.
         23    2    1    2    0    0 -0.60071647317E+03  0.11028425491E+02 -0.96036730707E+03  0.11364844601E+04  0.91157316074E+02 0.  0.
         11    1    3    3    0    0 -0.93903924381E+02 -0.29101919427E+02 -0.13280415854E+03  0.16523260348E+03  0.00000000000E+00 0.  1.
        -11    1    3    3    0    0 -0.50681254879E+03  0.40130344918E+02 -0.82756314853E+03  0.97125185662E+03  0.00000000000E+00 0. -1.
         22    1    1    2    0    0  0.60071647317E+03 -0.11028425491E+02  0.48048472925E+03  0.76931624339E+03  0.00000000000E+00 0.  1.
<mgrwt>
<rscale>  0 0.18443939E+04</rscale>
<asrwt>0</asrwt>
<pdfrwt beam="1">  1        1 0.18351410E+00 0.18443939E+04</pdfrwt>
<pdfrwt beam="2">  1       -1 0.10968601E+00 0.18443939E+04</pdfrwt>
<totfact> 0.78128133E+00</totfact>
</mgrwt>
</event>
<event>
 6    1  0.1831439E-005  0.1281547E+04  0.7818608E-02  0.9044328E-01
         -1   -1    0    0    0  501 -0.00000000000E+00  0.00000000000E+00  0.20523926782E+03  0.20523926782E+03  0.00000000000E+00 0.  1.
          1   -1    0    0  501    0  0.00000000000E+00 -0.00000000000E+00 -0.20005457682E+04  0.20005457682E+04  0.00000000000E+00 0. -1.
         23    2    1    2    0    0 -0.43168903483E+03 -0.20138803460E+03 -0.17284227599E+03  0.51483775043E+03  0.90944453496E+02 0.  0.
         11    1    3    3    0    0 -0.25374412270E+03 -0.87022685503E+02 -0.59162697260E+02  0.27469847532E+03  0.00000000000E+00 0.  1.
        -11    1    3    3    0    0 -0.17794491213E+03 -0.11436534910E+03 -0.11367957873E+03  0.24013927511E+03  0.00000000000E+00 0. -1.
         22    1    1    2    0    0  0.43168903483E+03  0.20138803460E+03 -0.16224642244E+04  0.16909472856E+04  0.00000000000E+00 0. -1.
<mgrwt>
<rscale>  0 0.12815468E+04</rscale>
<asrwt>0</asrwt>
<pdfrwt beam="1">  1        1 0.30777627E+00 0.12815468E+04</pdfrwt>
<pdfrwt beam="2">  1       -1 0.31575272E-01 0.12815468E+04</pdfrwt>
<totfact> 0.27349029E+01</totfact>
</mgrwt>
</event>
<event>
 6    1  0.1831439E-005  0.1167314E+04  0.7818608E-02  0.9141958E-01
         -1   -1    0    0    0  501 -0.00000000000E+00  0.00000000000E+00  0.22758078225E+03  0.22758078225E+03  0.00000000000E+00 0.  1.
          1   -1    0    0  501    0  0.00000000000E+00 -0.00000000000E+00 -0.14968544236E+04  0.14968544236E+04  0.00000000000E+00 0. -1.
         23    2    1    2    0    0  0.16818400937E+03  0.48975389187E+03 -0.10241614840E+04  0.11515262207E+04  0.94663382916E+02 0.  0.
         11    1    3    3    0    0  0.11907151405E+03  0.32359963730E+03 -0.77280965866E+03  0.84624436142E+03  0.00000000000E+00 0.  1.
        -11    1    3    3    0    0  0.49112495316E+02  0.16615425457E+03 -0.25135182531E+03  0.30528185926E+03  0.00000000000E+00 0. -1.
         22    1    1    2    0    0 -0.16818400937E+03 -0.48975389187E+03 -0.24511215743E+03  0.57290898521E+03  0.00000000000E+00 0.  1.
<mgrwt>
<rscale>  0 0.11673137E+04</rscale>
<asrwt>0</asrwt>
<pdfrwt beam="1">  1        1 0.23028530E+00 0.11673137E+04</pdfrwt>
<pdfrwt beam="2">  1       -1 0.35012427E-01 0.11673137E+04</pdfrwt>
<totfact> 0.50564337E+01</totfact>
</mgrwt>
</event>
<event>
 6    1  0.1831439E-005  0.1316393E+04  0.7818608E-02  0.9016666E-01
         -2   -1    0    0    0  501 -0.00000000000E+00  0.00000000000E+00  0.36848946072E+03  0.36848946072E+03  0.00000000000E+00 0.  1.
          2   -1    0    0  501    0  0.00000000000E+00 -0.00000000000E+00 -0.11756709856E+04  0.11756709856E+04  0.00000000000E+00 0. -1.
         23    2    1    2    0    0  0.39935175447E+02  0.94191862759E+02 -0.11650832209E+04  0.11719232246E+04  0.74284638423E+02 0.  0.
         11    1    3    3    0    0  0.14420321426E+02  0.64421464955E+02 -0.10028058090E+04  0.10049763985E+04  0.00000000000E+00 0. -1.
        -11    1    3    3    0    0  0.25514854021E+02  0.29770397804E+02 -0.16227741187E+03  0.16694682616E+03  0.00000000000E+00 0.  1.
         22    1    1    2    0    0 -0.39935175447E+02 -0.94191862759E+02  0.35790169599E+03  0.37223722173E+03  0.00000000000E+00 0.  1.
<mgrwt>
<rscale>  0 0.13163926E+04</rscale>
<asrwt>0</asrwt>
<pdfrwt beam="1">  1        2 0.18087246E+00 0.13163926E+04</pdfrwt>
<pdfrwt beam="2">  1       -2 0.56690686E-01 0.13163926E+04</pdfrwt>
<totfact> 0.55970780E+01</totfact>
</mgrwt>
</event>
<event>
 6    1  0.1831439E-005  0.1867250E+04  0.7818608E-02  0.8671332E-01
         -1   -1    0    0    0  501 -0.00000000000E+00  0.00000000000E+00  0.46877041272E+03  0.46877041272E+03  0.00000000000E+00 0.  1.
          1   -1    0    0  501    0  0.00000000000E+00 -0.00000000000E+00 -0.18594518298E+04  0.18594518298E+04  0.00000000000E+00 0. -1.
         23    2    1    2    0    0  0.90601295559E+03  0.21502711579E+03 -0.74059265367E+03  0.11925675694E+04  0.81509464361E+02 0.  0.
         11    1    3    3    0    0  0.75710641743E+03  0.20085226882E+03 -0.64851946426E+03  0.10169214604E+04  0.00000000000E+00 0.  1.
        -11    1    3    3    0    0  0.14890653816E+03  0.14174846969E+02 -0.92073189412E+02  0.17564610898E+03  0.00000000000E+00 0. -1.
         22    1    1    2    0    0 -0.90601295559E+03 -0.21502711579E+03 -0.65008876343E+03  0.11356546731E+04  0.00000000000E+00 0.  1.
<mgrwt>
<rscale>  0 0.18672504E+04</rscale>
<asrwt>0</asrwt>
<pdfrwt beam="1">  1        1 0.28606951E+00 0.18672504E+04</pdfrwt>
<pdfrwt beam="2">  1       -1 0.72118525E-01 0.18672504E+04</pdfrwt>
<totfact> 0.67562901E+00</totfact>
</mgrwt>
</event>
<event>
 6    1  0.1831439E-005  0.1810161E+04  0.7818608E-02  0.8700914E-01
         -2   -1    0    0    0  501 -0.00000000000E+00  0.00000000000E+00  0.40120779808E+03  0.40120779808E+03  0.00000000000E+00 0.  1.
          2   -1    0    0  501    0  0.00000000000E+00 -0.00000000000E+00 -0.20417624134E+04  0.20417624134E+04  0.00000000000E+00 0. -1.
         23    2    1    2    0    0  0.20295941846E+03 -0.56266477387E+03 -0.17349227892E+04  0.18374212659E+04  0.91518580765E+02 0.  0.
         11    1    3    3    0    0  0.18746854259E+03 -0.40382171747E+03 -0.12512189505E+04  0.13280682573E+04  0.00000000000E+00 0.  1.
        -11    1    3    3    0    0  0.15490875868E+02 -0.15884305641E+03 -0.48370383873E+03  0.50935300863E+03  0.00000000000E+00 0. -1.
         22    1    1    2    0    0 -0.20295941846E+03  0.56266477387E+03  0.94368173835E+02  0.60554894561E+03  0.00000000000E+00 0.  1.
<mgrwt>
<rscale>  0 0.18101613E+04</rscale>
<asrwt>0</asrwt>
<pdfrwt beam="1">  1        2 0.31411729E+00 0.18101613E+04</pdfrwt>
<pdfrwt beam="2">  1       -2 0.61724277E-01 0.18101613E+04</pdfrwt>
<totfact> 0.14568622E+01</totfact>
</mgrwt>
</event>
<event>
 6    1  0.1831439E-005  0.3208364E+04  0.7818608E-02  0.8186612E-01
         -2   -1    0    0    0  501 -0.00000000000E+00  0.00000000000E+00  0.74250654804E+03  0.74250654804E+03  0.00000000000E+00 0. -1.
          2   -1    0    0  501    0  0.00000000000E+00 -0.00000000000E+00 -0.34658286458E+04  0.34658286458E+04  0.00000000000E+00 0.  1.
         23    2    1    2    0    0 -0.89723720894E+01 -0.13274602901E+04 -0.25411684394E+04  0.28684056134E+04  0.89344279130E+02 0.  0.
         13    1    3    3    0    0  0.39904774963E+02 -0.66793842730E+03 -0.12677968313E+04  0.14335420953E+04  0.00000000000E+00 0. -1.
        -13    1    3    3    0    0 -0.48877147053E+02 -0.65952186282E+03 -0.12733716081E+04  0.14348635180E+04  0.00000000000E+00 0.  1.
         22    1    1    2    0    0  0.89723720894E+01  0.13274602901E+04 -0.18215365836E+03  0.13399295805E+04  0.00000000000E+00 0. -1.
<mgrwt>
<rscale>  0 0.32083644E+04</rscale>
<asrwt>0</asrwt>
<pdfrwt beam="1">  1        2 0.53320440E+00 0.32083644E+04</pdfrwt>
<pdfrwt beam="2">  1       -2 0.11423178E+00 0.32083644E+04</pdfrwt>
<totfact> 0.43263220E-01</totfact>
</mgrwt>
</event>
<event>
 6    1  0.1831439E-005  0.1894686E+04  0.7818608E-02  0.8657506E-01
         -2   -1    0    0    0  501 -0.00000000000E+00  0.00000000000E+00  0.66360792533E+03  0.66360792533E+03  0.00000000000E+00 0. -1.
          2   -1    0    0  501    0  0.00000000000E+00 -0.00000000000E+00 -0.13523929710E+04  0.13523929710E+04  0.00000000000E+00 0.  1.
         23    2    1    2    0    0  0.31529516571E+03  0.49176032711E+02  0.60153038519E+03  0.68681195762E+03  0.89680193524E+02 0.  0.
         13    1    3    3    0    0  0.12102860708E+03  0.44192295732E+02  0.31766845541E+03  0.34280334056E+03  0.00000000000E+00 0.  1.
        -13    1    3    3    0    0  0.19426655863E+03  0.49837369792E+01  0.28386192977E+03  0.34400861706E+03  0.00000000000E+00 0. -1.
         22    1    1    2    0    0 -0.31529516571E+03 -0.49176032711E+02 -0.12903154309E+04  0.13291889387E+04  0.00000000000E+00 0.  1.
<mgrwt>
<rscale>  0 0.18946859E+04</rscale>
<asrwt>0</asrwt>
<pdfrwt beam="1">  1        2 0.20806046E+00 0.18946859E+04</pdfrwt>
<pdfrwt beam="2">  1       -2 0.10209353E+00 0.18946859E+04</pdfrwt>
<totfact> 0.11355676E+01</totfact>
</mgrwt>
</event>
<event>
 6    1  0.1831439E-005  0.2532484E+04  0.7818608E-02  0.8391503E-01
          1   -1    0    0  501    0  0.00000000000E+00  0.00000000000E+00  0.88272631278E+03  0.88272631278E+03  0.00000000000E+00 0. -1.
         -1   -1    0    0    0  501 -0.00000000000E+00 -0.00000000000E+00 -0.18163830126E+04  0.18163830126E+04  0.00000000000E+00 0.  1.
         23    2    1    2    0    0  0.28378473832E+03 -0.79118999354E+03 -0.14742136983E+04  0.16997509052E+04  0.96600868882E+02 0.  0.
         13    1    3    3    0    0  0.26713468955E+03 -0.66095847090E+03 -0.12014942571E+04  0.13970739038E+04  0.00000000000E+00 0.  1.
        -13    1    3    3    0    0  0.16650048767E+02 -0.13023152264E+03 -0.27271944112E+03  0.30267700141E+03  0.00000000000E+00 0. -1.
         22    1    1    2    0    0 -0.28378473832E+03  0.79118999354E+03  0.54055699842E+03  0.99935842025E+03  0.00000000000E+00 0. -1.
<mgrwt>
<rscale>  0 0.25324842E+04</rscale>
<asrwt>0</asrwt>
<pdfrwt beam="1">  1        1 0.13580405E+00 0.25324842E+04</pdfrwt>
<pdfrwt beam="2">  1       -1 0.27944354E+00 0.25324842E+04</pdfrwt>
<totfact> 0.74759149E-01</totfact>
</mgrwt>
</event>
<event>
 6    1  0.1831439E-005  0.9417127E+03  0.7818608E-02  0.9374890E-01
         -2   -1    0    0    0  501 -0.00000000000E+00  0.00000000000E+00  0.16201564264E+03  0.16201564264E+03  0.00000000000E+00 0.  1.
          2   -1    0    0  501    0  0.00000000000E+00 -0.00000000000E+00 -0.13684214717E+04  0.13684214717E+04  0.00000000000E+00 0. -1.
         23    2    1    2    0    0  0.67324347121E+02  0.35834878565E+03 -0.10819657755E+04  0.11451687055E+04  0.88402515922E+02 0.  0.
         11    1    3    3    0    0  0.65598147665E+02  0.29029170253E+03 -0.96481205497E+03  0.10096705854E+04  0.00000000000E+00 0. -1.
        -11    1    3    3    0    0  0.17261994563E+01  0.68057083121E+02 -0.11715372053E+03  0.13549812014E+03  0.00000000000E+00 0.  1.
         22    1    1    2    0    0 -0.67324347121E+02 -0.35834878565E+03 -0.12444005351E+03  0.38526840879E+03  0.00000000000E+00 0.  1.
<mgrwt>
<rscale>  0 0.94171266E+03</rscale>
<asrwt>0</asrwt>
<pdfrwt beam="1">  1        2 0.21052638E+00 0.94171266E+03</pdfrwt>
<pdfrwt beam="2">  1       -2 0.24925483E-01 0.94171266E+03</pdfrwt>
<totfact> 0.21759561E+02</totfact>
</mgrwt>
</event>
<event>
 6    1  0.1831439E-005  0.2053371E+04  0.7818608E-02  0.8582067E-01
         -2   -1    0    0    0  501 -0.00000000000E+00  0.00000000000E+00  0.51738906636E+03  0.51738906636E+03  0.00000000000E+00 0. -1.
          2   -1    0    0  501    0  0.00000000000E+00 -0.00000000000E+00 -0.20373124349E+04  0.20373124349E+04  0.00000000000E+00 0.  1.
         23    2    1    2    0    0  0.64364064572E+03  0.58745085470E+03 -0.14320926404E+04  0.16788670281E+04  0.91287347946E+02 0.  0.
         13    1    3    3    0    0  0.28927209208E+03  0.20525632765E+03 -0.60131712209E+03  0.69813378704E+03  0.00000000000E+00 0.  1.
        -13    1    3    3    0    0  0.35436855364E+03  0.38219452705E+03 -0.83077551832E+03  0.98073324108E+03  0.00000000000E+00 0. -1.
         22    1    1    2    0    0 -0.64364064572E+03 -0.58745085470E+03 -0.87830728108E+02  0.87583447312E+03  0.00000000000E+00 0. -1.
<mgrwt>
<rscale>  0 0.20533711E+04</rscale>
<asrwt>0</asrwt>
<pdfrwt beam="1">  1        2 0.31343268E+00 0.20533711E+04</pdfrwt>
<pdfrwt beam="2">  1       -2 0.79598319E-01 0.20533711E+04</pdfrwt>
<totfact> 0.82360659E+00</totfact>
</mgrwt>
</event>
<event>
 6    1  0.1831439E-005  0.7786729E+03  0.7818608E-02  0.9591411E-01
         -1   -1    0    0    0  501 -0.00000000000E+00  0.00000000000E+00  0.54505581502E+02  0.54505581502E+02  0.00000000000E+00 0.  1.
          1   -1    0    0  501    0  0.00000000000E+00 -0.00000000000E+00 -0.27810521007E+04  0.27810521007E+04  0.00000000000E+00 0. -1.
         23    2    1    2    0    0  0.14837739499E+03 -0.51480199115E+02 -0.26579893365E+04  0.26641921386E+04  0.91358501556E+02 0.  0.
         13    1    3    3    0    0  0.99576359408E+02 -0.38919993922E+02 -0.23204921763E+04  0.23229537571E+04  0.00000000000E+00 0. -1.
        -13    1    3    3    0    0  0.48801035585E+02 -0.12560205193E+02 -0.33749716025E+03  0.34123838149E+03  0.00000000000E+00 0.  1.
         22    1    1    2    0    0 -0.14837739499E+03  0.51480199115E+02 -0.68557182634E+02  0.17136554361E+03  0.00000000000E+00 0.  1.
<mgrwt>
<rscale>  0 0.77867288E+03</rscale>
<asrwt>0</asrwt>
<pdfrwt beam="1">  1        1 0.42785438E+00 0.77867288E+03</pdfrwt>
<pdfrwt beam="2">  1       -1 0.83854700E-02 0.77867288E+03</pdfrwt>
<totfact> 0.74998739E+01</totfact>
</mgrwt>
</event>
<event>
 6    1  0.1831439E-005  0.4059703E+04  0.7818608E-02  0.7992610E-01
          1   -1    0    0  501    0  0.00000000000E+00  0.00000000000E+00  0.42909468580E+04  0.42909468580E+04  0.00000000000E+00 0. -1.
         -1   -1    0    0    0  501 -0.00000000000E+00 -0.00000000000E+00 -0.96023041217E+03  0.96023041217E+03  0.00000000000E+00 0.  1.
         23    2    1    2    0    0 -0.14027174727E+04  0.14645590239E+04  0.15881238288E+04  0.25773825002E+04  0.90630095653E+02 0.  0.
         11    1    3    3    0    0 -0.51588756510E+03  0.47762864685E+03  0.56132791447E+03  0.89964333582E+03  0.00000000000E+00 0. -1.
        -11    1    3    3    0    0 -0.88682990763E+03  0.98693037703E+03  0.10267959143E+04  0.16777391644E+04  0.00000000000E+00 0.  1.
         22    1    1    2    0    0  0.14027174727E+04 -0.14645590239E+04  0.17425926171E+04  0.26737947699E+04  0.00000000000E+00 0.  1.
<mgrwt>
<rscale>  0 0.40597033E+04</rscale>
<asrwt>0</asrwt>
<pdfrwt beam="1">  1        1 0.66014566E+00 0.40597033E+04</pdfrwt>
<pdfrwt beam="2">  1       -1 0.14772776E+00 0.40597033E+04</pdfrwt>
<totfact> 0.14625861E-02</totfact>
</mgrwt>
</event>
<event>
 6    1  0.1831439E-005  0.2976964E+04  0.7818608E-02  0.8250340E-01
         -2   -1    0    0    0  501 -0.00000000000E+00  0.00000000000E+00  0.16956465340E+04  0.16956465340E+04  0.00000000000E+00 0.  1.
          2   -1    0    0  501    0  0.00000000000E+00 -0.00000000000E+00 -0.13066276869E+04  0.13066276869E+04  0.00000000000E+00 0. -1.
         23    2    1    2    0    0 -0.11945751918E+04 -0.70162171667E+03 -0.35033018310E+03  0.14319494422E+04  0.92005683328E+02 0.  0.
         11    1    3    3    0    0 -0.38365836487E+03 -0.17644334119E+03 -0.10288567071E+03  0.43463945382E+03  0.00000000000E+00 0. -1.
        -11    1    3    3    0    0 -0.81091682691E+03 -0.52517837548E+03 -0.24744451239E+03  0.99730998839E+03  0.00000000000E+00 0.  1.
         22    1    1    2    0    0  0.11945751918E+04  0.70162171667E+03  0.73934903023E+03  0.15703247787E+04  0.00000000000E+00 0. -1.
<mgrwt>
<rscale>  0 0.29769640E+04</rscale>
<asrwt>0</asrwt>
<pdfrwt beam="1">  1        2 0.20101964E+00 0.29769640E+04</pdfrwt>
<pdfrwt beam="2">  1       -2 0.26086870E+00 0.29769640E+04</pdfrwt>
<totfact> 0.77447108E-01</totfact>
</mgrwt>
</event>
<event>
 6    1  0.1831439E-005  0.2362307E+04  0.7818608E-02  0.8453752E-01
          2   -1    0    0  501    0  0.00000000000E+00  0.00000000000E+00  0.10425391762E+04  0.10425391762E+04  0.00000000000E+00 0. -1.
         -2   -1    0    0    0  501 -0.00000000000E+00 -0.00000000000E+00 -0.13381977047E+04  0.13381977047E+04  0.00000000000E+00 0.  1.
         23    2    1    2    0    0  0.62452823950E+03  0.85507874662E+03  0.37530376865E+03  0.11271876840E+04  0.92216979783E+02 0.  0.
         11    1    3    3    0    0  0.43341755062E+03  0.52050904474E+03  0.25057945446E+03  0.72219838123E+03  0.00000000000E+00 0.  1.
        -11    1    3    3    0    0  0.19111068888E+03  0.33456970188E+03  0.12472431418E+03  0.40498930278E+03  0.00000000000E+00 0. -1.
         22    1    1    2    0    0 -0.62452823950E+03 -0.85507874662E+03 -0.67096229717E+03  0.12535491969E+04  0.00000000000E+00 0.  1.
<mgrwt>
<rscale>  0 0.23623070E+04</rscale>
<asrwt>0</asrwt>
<pdfrwt beam="1">  1        2 0.16039064E+00 0.23623070E+04</pdfrwt>
<pdfrwt beam="2">  1       -2 0.20587657E+00 0.23623070E+04</pdfrwt>
<totfact> 0.25983295E+00</totfact>
</mgrwt>
</event>
<event>
 6    1  0.1831439E-005  0.3048727E+04  0.7818608E-02  0.8229952E-01
         -2   -1    0    0    0  501 -0.00000000000E+00  0.00000000000E+00  0.12694113794E+04  0.12694113794E+04  0.00000000000E+00 0.  1.
          2   -1    0    0  501    0  0.00000000000E+00 -0.00000000000E+00 -0.18305203166E+04  0.18305203166E+04  0.00000000000E+00 0. -1.
         23    2    1    2    0    0  0.11026300316E+04  0.88306377637E+03 -0.85923088572E+03  0.16561618681E+04  0.94867269221E+02 0.  0.
         13    1    3    3    0    0  0.15504265452E+03  0.84769548110E+02 -0.11391049985E+03  0.21023725403E+03  0.00000000000E+00 0.  1.
        -13    1    3    3    0    0  0.94758737707E+03  0.79829422826E+03 -0.74532038587E+03  0.14459246141E+04  0.00000000000E+00 0. -1.
         22    1    1    2    0    0 -0.11026300316E+04 -0.88306377637E+03  0.29812194847E+03  0.14437698279E+04  0.00000000000E+00 0.  1.
<mgrwt>
<rscale>  0 0.30487265E+04</rscale>
<asrwt>0</asrwt>
<pdfrwt beam="1">  1        2 0.28161851E+00 0.30487265E+04</pdfrwt>
<pdfrwt beam="2">  1       -2 0.19529406E+00 0.30487265E+04</pdfrwt>
<totfact> 0.10110038E+00</totfact>
</mgrwt>
</event>
<event>
 6    1  0.1831439E-005  0.8662659E+03  0.7818608E-02  0.9468762E-01
         -2   -1    0    0    0  501 -0.00000000000E+00  0.00000000000E+00  0.11660856059E+03  0.11660856059E+03  0.00000000000E+00 0.  1.
          2   -1    0    0  501    0  0.00000000000E+00 -0.00000000000E+00 -0.16088370368E+04  0.16088370368E+04  0.00000000000E+00 0. -1.
         23    2    1    2    0    0 -0.25828982769E+03 -0.33878896345E+03 -0.67258587075E+03  0.80170017926E+03  0.94126654371E+02 0.  0.
         13    1    3    3    0    0 -0.17244652089E+03 -0.29027781108E+03 -0.52575283914E+03  0.62483202385E+03  0.00000000000E+00 0.  1.
        -13    1    3    3    0    0 -0.85843306800E+02 -0.48511152360E+02 -0.14683303161E+03  0.17686815541E+03  0.00000000000E+00 0. -1.
         22    1    1    2    0    0  0.25828982769E+03  0.33878896345E+03 -0.81964260550E+03  0.92374541817E+03  0.00000000000E+00 0. -1.
<mgrwt>
<rscale>  0 0.86626594E+03</rscale>
<asrwt>0</asrwt>
<pdfrwt beam="1">  1        2 0.24751338E+00 0.86626594E+03</pdfrwt>
<pdfrwt beam="2">  1       -2 0.17939779E-01 0.86626594E+03</pdfrwt>
<totfact> 0.28650687E+02</totfact>
</mgrwt>
</event>
<event>
 6    1  0.1831439E-005  0.1252669E+04  0.7818608E-02  0.9067964E-01
         -2   -1    0    0    0  501 -0.00000000000E+00  0.00000000000E+00  0.18299182365E+03  0.18299182365E+03  0.00000000000E+00 0.  1.
          2   -1    0    0  501    0  0.00000000000E+00 -0.00000000000E+00 -0.21437853555E+04  0.21437853555E+04  0.00000000000E+00 0. -1.
         23    2    1    2    0    0  0.51604947473E+03  0.60776590219E+02 -0.16241263750E+04  0.17076280624E+04  0.90588427266E+02 0.  0.
         13    1    3    3    0    0  0.36781527672E+03  0.42847742316E+01 -0.10858178475E+04  0.11464322200E+04  0.00000000000E+00 0.  1.
        -13    1    3    3    0    0  0.14823419801E+03  0.56491815987E+02 -0.53830852748E+03  0.56119584236E+03  0.00000000000E+00 0. -1.
         22    1    1    2    0    0 -0.51604947473E+03 -0.60776590219E+02 -0.33666715686E+03  0.61914911677E+03  0.00000000000E+00 0.  1.
<mgrwt>
<rscale>  0 0.12526695E+04</rscale>
<asrwt>0</asrwt>
<pdfrwt beam="1">  1        2 0.32981313E+00 0.12526695E+04</pdfrwt>
<pdfrwt beam="2">  1       -2 0.28152589E-01 0.12526695E+04</pdfrwt>
<totfact> 0.63147310E+01</totfact>
</mgrwt>
</event>
<event>
 6    1  0.1831439E-005  0.4708368E+04  0.7818608E-02  0.7875140E-01
          2   -1    0    0  501    0  0.00000000000E+00  0.00000000000E+00  0.25271005321E+04  0.25271005321E+04  0.00000000000E+00 0. -1.
         -2   -1    0    0    0  501 -0.00000000000E+00 -0.00000000000E+00 -0.21930997039E+04  0.21930997039E+04  0.00000000000E+00 0.  1.
         23    2    1    2    0    0  0.11292061795E+04 -0.46489521137E+03 -0.18496855884E+04  0.22182568875E+04  0.89959376000E+02 0.  0.
         11    1    3    3    0    0  0.39418068153E+03 -0.12423241291E+03 -0.58204795434E+03  0.71385707481E+03  0.00000000000E+00 0. -1.
        -11    1    3    3    0    0  0.73502549794E+03 -0.34066279847E+03 -0.12676376341E+04  0.15043998126E+04  0.00000000000E+00 0.  1.
         22    1    1    2    0    0 -0.11292061795E+04  0.46489521137E+03  0.21836864167E+04  0.25019433486E+04  0.00000000000E+00 0. -1.
<mgrwt>
<rscale>  0 0.47083685E+04</rscale>
<asrwt>0</asrwt>
<pdfrwt beam="1">  1        2 0.38878470E+00 0.47083685E+04</pdfrwt>
<pdfrwt beam="2">  1       -2 0.33739995E+00 0.47083685E+04</pdfrwt>
<totfact> 0.46692648E-02</totfact>
</mgrwt>
</event>
<event>
 6    1  0.1831439E-005  0.1872604E+04  0.7818608E-02  0.8668614E-01
          2   -1    0    0  501    0  0.00000000000E+00  0.00000000000E+00  0.22898360585E+04  0.22898360585E+04  0.00000000000E+00 0.  1.
         -2   -1    0    0    0  501 -0.00000000000E+00 -0.00000000000E+00 -0.38284913228E+03  0.38284913228E+03  0.00000000000E+00 0. -1.
         23    2    1    2    0    0  0.30151771948E+03  0.48633063482E+03  0.20094921000E+04  0.20913610711E+04  0.91116453881E+02 0.  0.
         13    1    3    3    0    0  0.10075234384E+03  0.19667113254E+03  0.63280409153E+03  0.67027724668E+03  0.00000000000E+00 0. -1.
        -13    1    3    3    0    0  0.20076537563E+03  0.28965950228E+03  0.13766880085E+04  0.14210838244E+04  0.00000000000E+00 0.  1.
         22    1    1    2    0    0 -0.30151771948E+03 -0.48633063482E+03 -0.10250517376E+03  0.58132411972E+03  0.00000000000E+00 0. -1.
<mgrwt>
<rscale>  0 0.18726043E+04</rscale>
<asrwt>0</asrwt>
<pdfrwt beam="1">  1        2 0.35228246E+00 0.18726043E+04</pdfrwt>
<pdfrwt beam="2">  1       -2 0.58899868E-01 0.18726043E+04</pdfrwt>
<totfact> 0.11617715E+01</totfact>
</mgrwt>
</event>
<event>
 6    1  0.1959789E-005  0.3924327E+04  0.7818608E-02  0.8019989E-01
          2   -1    0    0  501    0  0.00000000000E+00  0.00000000000E+00  0.26465016274E+04  0.26465016274E+04  0.00000000000E+00 0. -1.
         -2   -1    0    0    0  501 -0.00000000000E+00 -0.00000000000E+00 -0.14547831009E+04  0.14547831009E+04  0.00000000000E+00 0.  1.
         23    2    1    2    0    0  0.11598693292E+04  0.20355521015E+03 -0.10422314040E+04  0.15759602191E+04  0.10330889825E+03 0.  0.
         13    1    3    3    0    0  0.74475906389E+03  0.14733434606E+03 -0.73284262171E+03  0.10551927696E+04  0.00000000000E+00 0.  1.
        -13    1    3    3    0    0  0.41511026530E+03  0.56220864083E+02 -0.30938878227E+03  0.52076744955E+03  0.00000000000E+00 0. -1.
         22    1    1    2    0    0 -0.11598693292E+04 -0.20355521015E+03  0.22339499305E+04  0.25253245091E+04  0.00000000000E+00 0. -1.
<mgrwt>
<rscale>  0 0.39243271E+04</rscale>
<asrwt>0</asrwt>
<pdfrwt beam="1">  1        2 0.40715410E+00 0.39243271E+04</pdfrwt>
<pdfrwt beam="2">  1       -2 0.22381279E+00 0.39243271E+04</pdfrwt>
<totfact> 0.21200050E-01</totfact>
</mgrwt>
</event>
<event>
 6    1  0.1831439E-005  0.2692978E+04  0.7818608E-02  0.8337287E-01
          1   -1    0    0  501    0  0.00000000000E+00  0.00000000000E+00  0.16305690551E+04  0.16305690551E+04  0.00000000000E+00 0. -1.
         -1   -1    0    0    0  501 -0.00000000000E+00 -0.00000000000E+00 -0.11119017063E+04  0.11119017063E+04  0.00000000000E+00 0.  1.
         23    2    1    2    0    0  0.26960398348E+03  0.11578529962E+03 -0.10770432511E+04  0.11200081695E+04  0.91124044266E+02 0.  0.
         11    1    3    3    0    0  0.26751355437E+03  0.11788765673E+03 -0.97407159287E+03  0.10169938394E+04  0.00000000000E+00 0. -1.
        -11    1    3    3    0    0  0.20904291153E+01 -0.21023571034E+01 -0.10297165825E+03  0.10301433008E+03  0.00000000000E+00 0.  1.
         22    1    1    2    0    0 -0.26960398348E+03 -0.11578529962E+03  0.15957105999E+04  0.16224625919E+04  0.00000000000E+00 0. -1.
<mgrwt>
<rscale>  0 0.26929779E+04</rscale>
<asrwt>0</asrwt>
<pdfrwt beam="1">  1        1 0.25085678E+00 0.26929779E+04</pdfrwt>
<pdfrwt beam="2">  1       -1 0.17106180E+00 0.26929779E+04</pdfrwt>
<totfact> 0.11227185E+00</totfact>
</mgrwt>
</event>
<event>
 6    1  0.1831439E-005  0.4725670E+04  0.7818608E-02  0.7872277E-01
         -2   -1    0    0    0  501 -0.00000000000E+00  0.00000000000E+00  0.49071552283E+04  0.49071552283E+04  0.00000000000E+00 0.  1.
          2   -1    0    0  501    0  0.00000000000E+00 -0.00000000000E+00 -0.11377242586E+04  0.11377242586E+04  0.00000000000E+00 0. -1.
         23    2    1    2    0    0 -0.74499003205E+03  0.58797685021E+03  0.46521214890E+04  0.47487816985E+04  0.89254396733E+02 0.  0.
         11    1    3    3    0    0 -0.29476897137E+03  0.21415447725E+03  0.15854767549E+04  0.16268028236E+04  0.00000000000E+00 0. -1.
        -11    1    3    3    0    0 -0.45022106069E+03  0.37382237296E+03  0.30666447341E+04  0.31219788748E+04  0.00000000000E+00 0.  1.
         22    1    1    2    0    0  0.74499003205E+03 -0.58797685021E+03 -0.88269051933E+03  0.12960977884E+04  0.00000000000E+00 0. -1.
<mgrwt>
<rscale>  0 0.47256701E+04</rscale>
<asrwt>0</asrwt>
<pdfrwt beam="1">  1        2 0.17503450E+00 0.47256701E+04</pdfrwt>
<pdfrwt beam="2">  1       -2 0.75494695E+00 0.47256701E+04</pdfrwt>
<totfact> 0.20991556E-03</totfact>
</mgrwt>
</event>
<event>
 6    1  0.1831439E-005  0.2082373E+04  0.7818608E-02  0.8569048E-01
          2   -1    0    0  501    0  0.00000000000E+00  0.00000000000E+00  0.11590509176E+04  0.11590509176E+04  0.00000000000E+00 0. -1.
         -2   -1    0    0    0  501 -0.00000000000E+00 -0.00000000000E+00 -0.93530782739E+03  0.93530782739E+03  0.00000000000E+00 0.  1.
         23    2    1    2    0    0 -0.71609517431E+03  0.53952170727E+02 -0.64359391857E+03  0.96831406460E+03  0.87839969801E+02 0.  0.
         11    1    3    3    0    0 -0.20549478001E+03 -0.20579735028E+02 -0.16198281618E+03  0.26246916551E+03  0.00000000000E+00 0.  1.
        -11    1    3    3    0    0 -0.51060039430E+03  0.74531905755E+02 -0.48161110239E+03  0.70584489910E+03  0.00000000000E+00 0. -1.
         22    1    1    2    0    0  0.71609517431E+03 -0.53952170727E+02  0.86733700874E+03  0.11260446803E+04  0.00000000000E+00 0. -1.
<mgrwt>
<rscale>  0 0.20823731E+04</rscale>
<asrwt>0</asrwt>
<pdfrwt beam="1">  1        2 0.17831552E+00 0.20823731E+04</pdfrwt>
<pdfrwt beam="2">  1       -2 0.14389351E+00 0.20823731E+04</pdfrwt>
<totfact> 0.61859651E+00</totfact>
</mgrwt>
</event>
<event>
 6    1  0.1924753E-005  0.5211045E+04  0.7818608E-02  0.7796751E-01
         -2   -1    0    0    0  501 -0.00000000000E+00  0.00000000000E+00  0.29942806014E+04  0.29942806014E+04  0.00000000000E+00 0.  1.
          2   -1    0    0  501    0  0.00000000000E+00 -0.00000000000E+00 -0.22672381424E+04  0.22672381424E+04  0.00000000000E+00 0. -1.
         23    2    1    2    0    0 -0.19394797344E+04  0.17384026735E+04  0.38959757747E+03  0.26352105853E+04  0.94461955680E+02 0.  0.
         11    1    3    3    0    0 -0.69494455354E+03  0.58203598792E+03  0.16911195776E+03  0.92212400359E+03  0.00000000000E+00 0. -1.
        -11    1    3    3    0    0 -0.12445351808E+04  0.11563666856E+04  0.22048561971E+03  0.17130865817E+04  0.00000000000E+00 0.  1.
         22    1    1    2    0    0  0.19394797344E+04 -0.17384026735E+04  0.33744488158E+03  0.26263081585E+04  0.00000000000E+00 0.  1.
<mgrwt>
<rscale>  0 0.52110449E+04</rscale>
<asrwt>0</asrwt>
<pdfrwt beam="1">  1        2 0.34880587E+00 0.52110449E+04</pdfrwt>
<pdfrwt beam="2">  1       -2 0.46065855E+00 0.52110449E+04</pdfrwt>
<totfact> 0.10041864E-02</totfact>
</mgrwt>
</event>
<event>
 6    1  0.1831439E-005  0.1190785E+04  0.7818608E-02  0.9120961E-01
          2   -1    0    0  501    0  0.00000000000E+00  0.00000000000E+00  0.26618293566E+04  0.26618293566E+04  0.00000000000E+00 0. -1.
         -2   -1    0    0    0  501 -0.00000000000E+00 -0.00000000000E+00 -0.13317623852E+03  0.13317623852E+03  0.00000000000E+00 0.  1.
         23    2    1    2    0    0 -0.25660011034E+02 -0.46763452829E+03  0.42174623907E+03  0.63667358056E+03  0.90237851264E+02 0.  0.
         13    1    3    3    0    0 -0.57081471436E+02 -0.35052561173E+03  0.30074319250E+03  0.46537400732E+03  0.00000000000E+00 0.  1.
        -13    1    3    3    0    0  0.31421460402E+02 -0.11710891657E+03  0.12100304657E+03  0.17129957324E+03  0.00000000000E+00 0. -1.
         22    1    1    2    0    0  0.25660011034E+02  0.46763452829E+03  0.21069068790E+04  0.21583320145E+04  0.00000000000E+00 0. -1.
<mgrwt>
<rscale>  0 0.11907853E+04</rscale>
<asrwt>0</asrwt>
<pdfrwt beam="1">  1        2 0.40951217E+00 0.11907853E+04</pdfrwt>
<pdfrwt beam="2">  1       -2 0.20488654E-01 0.11907853E+04</pdfrwt>
<totfact> 0.57098118E+01</totfact>
</mgrwt>
</event>
<event>
 6    1  0.1831439E-005  0.4244522E+03  0.7818608E-02  0.1035627E+00
          1   -1    0    0  501    0  0.00000000000E+00  0.00000000000E+00  0.32295253937E+03  0.32295253937E+03  0.00000000000E+00 0. -1.
         -1   -1    0    0    0  501 -0.00000000000E+00 -0.00000000000E+00 -0.13946298027E+03  0.13946298027E+03  0.00000000000E+00 0.  1.
         23    2    1    2    0    0 -0.17321871707E+03 -0.10277885349E+03  0.84415363050E+02  0.23795190792E+03  0.94482486704E+02 0.  0.
         11    1    3    3    0    0 -0.23187715377E+02  0.10618495145E+02  0.35354942125E+02  0.43593514612E+02  0.00000000000E+00 0. -1.
        -11    1    3    3    0    0 -0.15003100170E+03 -0.11339734863E+03  0.49060420924E+02  0.19435839331E+03  0.00000000000E+00 0.  1.
         22    1    1    2    0    0  0.17321871707E+03  0.10277885349E+03  0.99074196050E+02  0.22446361173E+03  0.00000000000E+00 0.  1.
<mgrwt>
<rscale>  0 0.42445223E+03</rscale>
<asrwt>0</asrwt>
<pdfrwt beam="1">  1        1 0.49685006E-01 0.42445223E+03</pdfrwt>
<pdfrwt beam="2">  1       -1 0.21455843E-01 0.42445223E+03</pdfrwt>
<totfact> 0.14395735E+03</totfact>
</mgrwt>
</event>
<event>
 6    1  0.1831439E-005  0.2299194E+04  0.7818608E-02  0.8478239E-01
         -2   -1    0    0    0  501 -0.00000000000E+00  0.00000000000E+00  0.43054190503E+03  0.43054190503E+03  0.00000000000E+00 0.  1.
          2   -1    0    0  501    0  0.00000000000E+00 -0.00000000000E+00 -0.30695575018E+04  0.30695575018E+04  0.00000000000E+00 0. -1.
         23    2    1    2    0    0 -0.61801251509E+03  0.38285605355E+03  0.30551955711E+02  0.73331261638E+03  0.91080979327E+02 0.  0.
         13    1    3    3    0    0 -0.28019077490E+03  0.22648804897E+03  0.22119472616E+02  0.36096118591E+03  0.00000000000E+00 0.  1.
        -13    1    3    3    0    0 -0.33782174018E+03  0.15636800458E+03  0.84324830952E+01  0.37235143046E+03  0.00000000000E+00 0. -1.
         22    1    1    2    0    0  0.61801251509E+03 -0.38285605355E+03 -0.26695675525E+04  0.27667867904E+04  0.00000000000E+00 0. -1.
<mgrwt>
<rscale>  0 0.22991939E+04</rscale>
<asrwt>0</asrwt>
<pdfrwt beam="1">  1        2 0.47223958E+00 0.22991939E+04</pdfrwt>
<pdfrwt beam="2">  1       -2 0.66237221E-01 0.22991939E+04</pdfrwt>
<totfact> 0.29937788E+00</totfact>
</mgrwt>
</event>
<event>
 6    1  0.1831439E-005  0.2022774E+04  0.7818608E-02  0.8596046E-01
         -2   -1    0    0    0  501 -0.00000000000E+00  0.00000000000E+00  0.12530469312E+04  0.12530469312E+04  0.00000000000E+00 0.  1.
          2   -1    0    0  501    0  0.00000000000E+00 -0.00000000000E+00 -0.81633340218E+03  0.81633340218E+03  0.00000000000E+00 0. -1.
         23    2    1    2    0    0  0.89505372163E+03 -0.45429178274E+03  0.10901705194E+03  0.10134981574E+04  0.88270090516E+02 0.  0.
         11    1    3    3    0    0  0.48719497348E+03 -0.22710127175E+03  0.17902797203E+02  0.53782380010E+03  0.00000000000E+00 0.  1.
        -11    1    3    3    0    0  0.40785874816E+03 -0.22719051099E+03  0.91114254737E+02  0.47567435725E+03  0.00000000000E+00 0. -1.
         22    1    1    2    0    0 -0.89505372163E+03  0.45429178274E+03  0.32769647703E+03  0.10558821760E+04  0.00000000000E+00 0.  1.
<mgrwt>
<rscale>  0 0.20227744E+04</rscale>
<asrwt>0</asrwt>
<pdfrwt beam="1">  1        2 0.12558975E+00 0.20227744E+04</pdfrwt>
<pdfrwt beam="2">  1       -2 0.19277645E+00 0.20227744E+04</pdfrwt>
<totfact> 0.46148147E+00</totfact>
</mgrwt>
</event>
<event>
 6    1  0.1831439E-005  0.2635053E+04  0.7818608E-02  0.8356391E-01
         -2   -1    0    0    0  501 -0.00000000000E+00  0.00000000000E+00  0.14559270615E+04  0.14559270615E+04  0.00000000000E+00 0.  1.
          2   -1    0    0  501    0  0.00000000000E+00 -0.00000000000E+00 -0.11922823871E+04  0.11922823871E+04  0.00000000000E+00 0. -1.
         23    2    1    2    0    0  0.36153966679E+03  0.16446855556E+03  0.13928822482E+04  0.14511554252E+04  0.89276392773E+02 0.  0.
         13    1    3    3    0    0  0.30389939858E+03  0.11695205126E+03  0.10147733472E+04  0.10657380414E+04  0.00000000000E+00 0.  1.
        -13    1    3    3    0    0  0.57640268210E+02  0.47516504298E+02  0.37810890106E+03  0.38541738383E+03  0.00000000000E+00 0. -1.
         22    1    1    2    0    0 -0.36153966679E+03 -0.16446855556E+03 -0.11292375739E+04  0.11970540233E+04  0.00000000000E+00 0. -1.
<mgrwt>
<rscale>  0 0.26350531E+04</rscale>
<asrwt>0</asrwt>
<pdfrwt beam="1">  1        2 0.18342806E+00 0.26350531E+04</pdfrwt>
<pdfrwt beam="2">  1       -2 0.22398878E+00 0.26350531E+04</pdfrwt>
<totfact> 0.15746392E+00</totfact>
</mgrwt>
</event>
<event>
 6    1  0.1831439E-005  0.2423825E+04  0.7818608E-02  0.8430637E-01
         -1   -1    0    0    0  501 -0.00000000000E+00  0.00000000000E+00  0.11107519579E+04  0.11107519579E+04  0.00000000000E+00 0. -1.
          1   -1    0    0  501    0  0.00000000000E+00 -0.00000000000E+00 -0.13222863421E+04  0.13222863421E+04  0.00000000000E+00 0.  1.
         23    2    1    2    0    0 -0.32982522343E+03 -0.72255613272E+03  0.81059981006E+03  0.11385768853E+04  0.91723654272E+02 0.  0.
         11    1    3    3    0    0 -0.78922043710E+02 -0.21955002464E+03  0.29222075391E+03  0.37393030276E+03  0.00000000000E+00 0. -1.
        -11    1    3    3    0    0 -0.25090317972E+03 -0.50300610808E+03  0.51837905615E+03  0.76464658256E+03  0.00000000000E+00 0.  1.
         22    1    1    2    0    0  0.32982522343E+03  0.72255613272E+03 -0.10221341943E+04  0.12944614147E+04  0.00000000000E+00 0.  1.
<mgrwt>
<rscale>  0 0.24238252E+04</rscale>
<asrwt>0</asrwt>
<pdfrwt beam="1">  1        1 0.20342867E+00 0.24238252E+04</pdfrwt>
<pdfrwt beam="2">  1       -1 0.17088492E+00 0.24238252E+04</pdfrwt>
<totfact> 0.18904536E+00</totfact>
</mgrwt>
</event>
<event>
 6    1  0.1831439E-005  0.2136845E+04  0.7818608E-02  0.8545184E-01
          1   -1    0    0  501    0  0.00000000000E+00  0.00000000000E+00  0.11780845881E+04  0.11780845881E+04  0.00000000000E+00 0. -1.
         -1   -1    0    0    0  501 -0.00000000000E+00 -0.00000000000E+00 -0.96896842379E+03  0.96896842379E+03  0.00000000000E+00 0.  1.
         23    2    1    2    0    0  0.63428352889E+03  0.85644294040E+03  0.67923449749E+02  0.10719969725E+04  0.93561791989E+02 0.  0.
         13    1    3    3    0    0  0.69901579014E+02  0.11653436978E+03 -0.19624325624E+02  0.13730114437E+03  0.00000000000E+00 0. -1.
        -13    1    3    3    0    0  0.56438194988E+03  0.73990857062E+03  0.87547775373E+02  0.93469582817E+03  0.00000000000E+00 0.  1.
         22    1    1    2    0    0 -0.63428352889E+03 -0.85644294040E+03  0.14119271460E+03  0.10750560394E+04  0.00000000000E+00 0. -1.
<mgrwt>
<rscale>  0 0.21368451E+04</rscale>
<asrwt>0</asrwt>
<pdfrwt beam="1">  1        1 0.18124378E+00 0.21368451E+04</pdfrwt>
<pdfrwt beam="2">  1       -1 0.14907206E+00 0.21368451E+04</pdfrwt>
<totfact> 0.36070312E+00</totfact>
</mgrwt>
</event>
<event>
 6    1  0.1831439E-005  0.1949122E+04  0.7818608E-02  0.8630784E-01
         -2   -1    0    0    0  501 -0.00000000000E+00  0.00000000000E+00  0.18150063363E+04  0.18150063363E+04  0.00000000000E+00 0.  1.
          2   -1    0    0  501    0  0.00000000000E+00 -0.00000000000E+00 -0.52328704499E+03  0.52328704499E+03  0.00000000000E+00 0. -1.
         23    2    1    2    0    0 -0.46434706960E+03  0.20879730898E+03  0.16409285193E+04  0.17209105161E+04  0.98346741321E+02 0.  0.
         11    1    3    3    0    0 -0.12938452572E+03  0.34092219569E+02  0.56354994517E+03  0.57921600084E+03  0.00000000000E+00 0.  1.
        -11    1    3    3    0    0 -0.33496254388E+03  0.17470508942E+03  0.10773785742E+04  0.11416945153E+04  0.00000000000E+00 0. -1.
         22    1    1    2    0    0  0.46434706960E+03 -0.20879730898E+03 -0.34920922804E+03  0.61738286519E+03  0.00000000000E+00 0. -1.
<mgrwt>
<rscale>  0 0.19491222E+04</rscale>
<asrwt>0</asrwt>
<pdfrwt beam="1">  1        2 0.80505700E-01 0.19491222E+04</pdfrwt>
<pdfrwt beam="2">  1       -2 0.27923174E+00 0.19491222E+04</pdfrwt>
<totfact> 0.23199081E+00</totfact>
</mgrwt>
</event>
<event>
 6    1  0.1831439E-005  0.2020093E+04  0.7818608E-02  0.8597284E-01
          2   -1    0    0  501    0  0.00000000000E+00  0.00000000000E+00  0.96145996806E+03  0.96145996806E+03  0.00000000000E+00 0.  1.
         -2   -1    0    0    0  501 -0.00000000000E+00 -0.00000000000E+00 -0.10610883658E+04  0.10610883658E+04  0.00000000000E+00 0. -1.
         23    2    1    2    0    0  0.78303653541E+03  0.93102779189E+02  0.57867431347E+03  0.98239982940E+03  0.91821132902E+02 0.  0.
         11    1    3    3    0    0  0.33390893890E+03  0.82217990665E+02  0.27195922102E+03  0.43842535894E+03  0.00000000000E+00 0. -1.
        -11    1    3    3    0    0  0.44912759651E+03  0.10884788524E+02  0.30671509245E+03  0.54397447045E+03  0.00000000000E+00 0.  1.
         22    1    1    2    0    0 -0.78303653541E+03 -0.93102779189E+02 -0.67830271115E+03  0.10401485044E+04  0.00000000000E+00 0. -1.
<mgrwt>
<rscale>  0 0.20200931E+04</rscale>
<asrwt>0</asrwt>
<pdfrwt beam="1">  1        2 0.14791692E+00 0.20200931E+04</pdfrwt>
<pdfrwt beam="2">  1       -2 0.16324436E+00 0.20200931E+04</pdfrwt>
<totfact> 0.58998742E+00</totfact>
</mgrwt>
</event>
<event>
 6    1  0.1831439E-005  0.1588212E+04  0.7818608E-02  0.8827822E-01
          1   -1    0    0  501    0  0.00000000000E+00  0.00000000000E+00  0.26415631287E+04  0.26415631287E+04  0.00000000000E+00 0. -1.
         -1   -1    0    0    0  501 -0.00000000000E+00 -0.00000000000E+00 -0.23872404364E+03  0.23872404364E+03  0.00000000000E+00 0.  1.
         23    2    1    2    0    0  0.74309387298E+03  0.15073041565E+03  0.16172721894E+04  0.17884888806E+04  0.90636522138E+02 0.  0.
         11    1    3    3    0    0  0.40046296180E+03  0.37658285343E+02  0.88752904593E+03  0.97442112949E+03  0.00000000000E+00 0. -1.
        -11    1    3    3    0    0  0.34263091118E+03  0.11307213030E+03  0.72974314349E+03  0.81406775113E+03  0.00000000000E+00 0.  1.
         22    1    1    2    0    0 -0.74309387298E+03 -0.15073041565E+03  0.78556689559E+03  0.10917982917E+04  0.00000000000E+00 0.  1.
<mgrwt>
<rscale>  0 0.15882124E+04</rscale>
<asrwt>0</asrwt>
<pdfrwt beam="1">  1        1 0.40639431E+00 0.15882124E+04</pdfrwt>
<pdfrwt beam="2">  1       -1 0.36726778E-01 0.15882124E+04</pdfrwt>
<totfact> 0.73937390E+00</totfact>
</mgrwt>
</event>
<event>
 6    1  0.1831439E-005  0.1347940E+04  0.7818608E-02  0.8992389E-01
          1   -1    0    0  501    0  0.00000000000E+00  0.00000000000E+00  0.10905087558E+04  0.10905087558E+04  0.00000000000E+00 0. -1.
         -1   -1    0    0    0  501 -0.00000000000E+00 -0.00000000000E+00 -0.41653567674E+03  0.41653567674E+03  0.00000000000E+00 0.  1.
         23    2    1    2    0    0 -0.58213461044E+03  0.87993399764E+02  0.69809615933E+03  0.91780299983E+03  0.91654545814E+02 0.  0.
         11    1    3    3    0    0 -0.31080360917E+03  0.17046707960E+02  0.31320795998E+03  0.44157524831E+03  0.00000000000E+00 0.  1.
        -11    1    3    3    0    0 -0.27133100127E+03  0.70946691804E+02  0.38488819934E+03  0.47622775152E+03  0.00000000000E+00 0. -1.
         22    1    1    2    0    0  0.58213461044E+03 -0.87993399764E+02 -0.24123080226E+02  0.58924143275E+03  0.00000000000E+00 0.  1.
<mgrwt>
<rscale>  0 0.13479404E+04</rscale>
<asrwt>0</asrwt>
<pdfrwt beam="1">  1        1 0.16777058E+00 0.13479404E+04</pdfrwt>
<pdfrwt beam="2">  1       -1 0.64082412E-01 0.13479404E+04</pdfrwt>
<totfact> 0.31163437E+01</totfact>
</mgrwt>
</event>
<event>
 6    1  0.1831439E-005  0.2253264E+04  0.7818608E-02  0.8496580E-01
         -1   -1    0    0    0  501 -0.00000000000E+00  0.00000000000E+00  0.24533727461E+04  0.24533727461E+04  0.00000000000E+00 0.  1.
          1   -1    0    0  501    0  0.00000000000E+00 -0.00000000000E+00 -0.51736927745E+03  0.51736927745E+03  0.00000000000E+00 0. -1.
         23    2    1    2    0    0 -0.11139013201E+04  0.13094481536E+03  0.10802425072E+04  0.15599799888E+04  0.93225509521E+02 0.  0.
         11    1    3    3    0    0 -0.67446182466E+03  0.88117911052E+02  0.71624468569E+03  0.98776007661E+03  0.00000000000E+00 0.  1.
        -11    1    3    3    0    0 -0.43943949540E+03  0.42826904308E+02  0.36399782150E+03  0.57221991219E+03  0.00000000000E+00 0. -1.
         22    1    1    2    0    0  0.11139013201E+04 -0.13094481536E+03  0.85576096145E+03  0.14107620347E+04  0.00000000000E+00 0. -1.
<mgrwt>
<rscale>  0 0.22532640E+04</rscale>
<asrwt>0</asrwt>
<pdfrwt beam="1">  1        1 0.79595275E-01 0.22532640E+04</pdfrwt>
<pdfrwt beam="2">  1       -1 0.37744195E+00 0.22532640E+04</pdfrwt>
<totfact> 0.39089245E-01</totfact>
</mgrwt>
</event>
<event>
 6    1  0.1831439E-005  0.9845967E+03  0.7818608E-02  0.9325602E-01
         -1   -1    0    0    0  501 -0.00000000000E+00  0.00000000000E+00  0.16365122543E+03  0.16365122543E+03  0.00000000000E+00 0.  1.
          1   -1    0    0  501    0  0.00000000000E+00 -0.00000000000E+00 -0.14809402464E+04  0.14809402464E+04  0.00000000000E+00 0. -1.
         23    2    1    2    0    0 -0.79538673844E+02  0.75694913207E+02 -0.14586888401E+04  0.14655662519E+04  0.89750687920E+02 0.  0.
         13    1    3    3    0    0  0.81062629030E+01 -0.11072072162E+02 -0.30406175769E+03  0.30437124497E+03  0.00000000000E+00 0.  1.
        -13    1    3    3    0    0 -0.87644936747E+02  0.86766985369E+02 -0.11546270824E+04  0.11611950069E+04  0.00000000000E+00 0. -1.
         22    1    1    2    0    0  0.79538673844E+02 -0.75694913207E+02  0.14139981912E+03  0.17902521993E+03  0.00000000000E+00 0.  1.
<mgrwt>
<rscale>  0 0.98459674E+03</rscale>
<asrwt>0</asrwt>
<pdfrwt beam="1">  1        1 0.22783696E+00 0.98459674E+03</pdfrwt>
<pdfrwt beam="2">  1       -1 0.25177112E-01 0.98459674E+03</pdfrwt>
<totfact> 0.93649676E+01</totfact>
</mgrwt>
</event>
<event>
 6    1  0.1831439E-005  0.1400937E+04  0.7818608E-02  0.8953141E-01
         -2   -1    0    0    0  501 -0.00000000000E+00  0.00000000000E+00  0.15009099135E+03  0.15009099135E+03  0.00000000000E+00 0.  1.
          2   -1    0    0  501    0  0.00000000000E+00 -0.00000000000E+00 -0.32690565726E+04  0.32690565726E+04  0.00000000000E+00 0. -1.
         23    2    1    2    0    0 -0.66389246873E+03 -0.11772360429E+03 -0.11306422787E+04  0.13196138984E+04  0.91743237099E+02 0.  0.
         13    1    3    3    0    0 -0.41125196394E+03 -0.11702372993E+03 -0.72764467174E+03  0.84397245187E+03  0.00000000000E+00 0. -1.
        -13    1    3    3    0    0 -0.25264050479E+03 -0.69987436536E+00 -0.40299760692E+03  0.47564144654E+03  0.00000000000E+00 0.  1.
         22    1    1    2    0    0  0.66389246873E+03  0.11772360429E+03 -0.19883233026E+04  0.20995336655E+04  0.00000000000E+00 0. -1.
<mgrwt>
<rscale>  0 0.14009367E+04</rscale>
<asrwt>0</asrwt>
<pdfrwt beam="1">  1        2 0.50293174E+00 0.14009367E+04</pdfrwt>
<pdfrwt beam="2">  1       -2 0.23090924E-01 0.14009367E+04</pdfrwt>
<totfact> 0.19070267E+01</totfact>
</mgrwt>
</event>
<event>
 6    1  0.1831439E-005  0.1828718E+04  0.7818608E-02  0.8691175E-01
         -2   -1    0    0    0  501 -0.00000000000E+00  0.00000000000E+00  0.10963204804E+04  0.10963204804E+04  0.00000000000E+00 0. -1.
          2   -1    0    0  501    0  0.00000000000E+00 -0.00000000000E+00 -0.76259812942E+03  0.76259812942E+03  0.00000000000E+00 0.  1.
         23    2    1    2    0    0  0.63737496842E+03  0.59591370120E+03 -0.10260052851E+03  0.88334818960E+03  0.91745114147E+02 0.  0.
         11    1    3    3    0    0  0.13912935868E+03  0.10202794582E+03  0.99996719375E+01  0.17281977206E+03  0.00000000000E+00 0. -1.
        -11    1    3    3    0    0  0.49824560974E+03  0.49388575538E+03 -0.11260020045E+03  0.71052841754E+03  0.00000000000E+00 0.  1.
         22    1    1    2    0    0 -0.63737496842E+03 -0.59591370120E+03  0.43632287949E+03  0.97557042023E+03  0.00000000000E+00 0. -1.
<mgrwt>
<rscale>  0 0.18287175E+04</rscale>
<asrwt>0</asrwt>
<pdfrwt beam="1">  1        2 0.11732279E+00 0.18287175E+04</pdfrwt>
<pdfrwt beam="2">  1       -2 0.16866469E+00 0.18287175E+04</pdfrwt>
<totfact> 0.75256614E+00</totfact>
</mgrwt>
</event>
<event>
 6    1  0.1831439E-005  0.1098191E+04  0.7818608E-02  0.9206957E-01
         -2   -1    0    0    0  501 -0.00000000000E+00  0.00000000000E+00  0.19640217821E+04  0.19640217821E+04  0.00000000000E+00 0.  1.
          2   -1    0    0  501    0  0.00000000000E+00 -0.00000000000E+00 -0.15351452546E+03  0.15351452546E+03  0.00000000000E+00 0. -1.
         23    2    1    2    0    0 -0.14373255399E+03  0.28137066883E+03  0.53722547446E+02  0.33256543531E+03  0.88798402592E+02 0.  0.
         13    1    3    3    0    0 -0.51202028569E+02  0.19495731303E+03  0.31105051090E+02  0.20395471516E+03  0.00000000000E+00 0. -1.
        -13    1    3    3    0    0 -0.92530525418E+02  0.86413355801E+02  0.22617496356E+02  0.12861072015E+03  0.00000000000E+00 0.  1.
         22    1    1    2    0    0  0.14373255399E+03 -0.28137066883E+03  0.17567847092E+04  0.17849708723E+04  0.00000000000E+00 0.  1.
<mgrwt>
<rscale>  0 0.10981910E+04</rscale>
<asrwt>0</asrwt>
<pdfrwt beam="1">  1        2 0.23617621E-01 0.10981910E+04</pdfrwt>
<pdfrwt beam="2">  1       -2 0.30215718E+00 0.10981910E+04</pdfrwt>
<totfact> 0.72565824E+00</totfact>
</mgrwt>
</event>
<event>
 6    1  0.1831439E-005  0.2829900E+04  0.7818608E-02  0.8294045E-01
          2   -1    0    0  501    0  0.00000000000E+00  0.00000000000E+00  0.10040693231E+04  0.10040693231E+04  0.00000000000E+00 0. -1.
         -2   -1    0    0    0  501 -0.00000000000E+00 -0.00000000000E+00 -0.19939697778E+04  0.19939697778E+04  0.00000000000E+00 0.  1.
         23    2    1    2    0    0 -0.67338474956E+03 -0.10124562622E+04 -0.12589410248E+04  0.17526887356E+04  0.92035841424E+02 0.  0.
         13    1    3    3    0    0 -0.24791227139E+03 -0.45316882616E+03 -0.54657104411E+03  0.75203881919E+03  0.00000000000E+00 0. -1.
        -13    1    3    3    0    0 -0.42547247816E+03 -0.55928743609E+03 -0.71236998074E+03  0.10006499165E+04  0.00000000000E+00 0.  1.
         22    1    1    2    0    0  0.67338474956E+03  0.10124562622E+04  0.26904057019E+03  0.12453503653E+04  0.00000000000E+00 0. -1.
<mgrwt>
<rscale>  0 0.28299003E+04</rscale>
<asrwt>0</asrwt>
<pdfrwt beam="1">  1        2 0.15447220E+00 0.28299003E+04</pdfrwt>
<pdfrwt beam="2">  1       -2 0.30676458E+00 0.28299003E+04</pdfrwt>
<totfact> 0.62780870E-01</totfact>
</mgrwt>
</event>
<event>
 6    1  0.1831439E-005  0.2312379E+04  0.7818608E-02  0.8473056E-01
         -2   -1    0    0    0  501 -0.00000000000E+00  0.00000000000E+00  0.35770963651E+03  0.35770963651E+03  0.00000000000E+00 0.  1.
          2   -1    0    0  501    0  0.00000000000E+00 -0.00000000000E+00 -0.37370355856E+04  0.37370355856E+04  0.00000000000E+00 0. -1.
         23    2    1    2    0    0  0.11164043834E+03  0.11241889514E+04 -0.21160424822E+04  0.24000035003E+04  0.78208880228E+02 0.  0.
         11    1    3    3    0    0  0.95936215095E+02  0.57893459167E+03 -0.10797443979E+04  0.12289088589E+04  0.00000000000E+00 0.  1.
        -11    1    3    3    0    0  0.15704223249E+02  0.54525435974E+03 -0.10362980843E+04  0.11710946413E+04  0.00000000000E+00 0. -1.
         22    1    1    2    0    0 -0.11164043834E+03 -0.11241889514E+04 -0.12632834669E+04  0.16947417218E+04  0.00000000000E+00 0. -1.
<mgrwt>
<rscale>  0 0.23123786E+04</rscale>
<asrwt>0</asrwt>
<pdfrwt beam="1">  1        2 0.57492852E+00 0.23123786E+04</pdfrwt>
<pdfrwt beam="2">  1       -2 0.55032255E-01 0.23123786E+04</pdfrwt>
<totfact> 0.15467724E+00</totfact>
</mgrwt>
</event>
<event>
 6    1  0.1831439E-005  0.1109822E+04  0.7818608E-02  0.9195671E-01
         -1   -1    0    0    0  501 -0.00000000000E+00  0.00000000000E+00  0.25010411280E+03  0.25010411280E+03  0.00000000000E+00 0.  1.
          1   -1    0    0  501    0  0.00000000000E+00 -0.00000000000E+00 -0.12311919711E+04  0.12311919711E+04  0.00000000000E+00 0. -1.
         23    2    1    2    0    0  0.18634473199E+02  0.43474128181E+03 -0.41830868492E+02  0.44613864726E+03  0.89121519967E+02 0.  0.
         13    1    3    3    0    0  0.43680190504E+02  0.25036858757E+03  0.52648138946E+01  0.25420485233E+03  0.00000000000E+00 0. -1.
        -13    1    3    3    0    0 -0.25045717305E+02  0.18437269424E+03 -0.47095682387E+02  0.19193379493E+03  0.00000000000E+00 0.  1.
         22    1    1    2    0    0 -0.18634473199E+02 -0.43474128181E+03 -0.93925698979E+03  0.10351574366E+04  0.00000000000E+00 0. -1.
<mgrwt>
<rscale>  0 0.11098219E+04</rscale>
<asrwt>0</asrwt>
<pdfrwt beam="1">  1        1 0.18941415E+00 0.11098219E+04</pdfrwt>
<pdfrwt beam="2">  1       -1 0.38477556E-01 0.11098219E+04</pdfrwt>
<totfact> 0.65980334E+01</totfact>
</mgrwt>
</event>
<event>
 6    1  0.1831439E-005  0.8856852E+03  0.7818608E-02  0.9443655E-01
         -2   -1    0    0    0  501 -0.00000000000E+00  0.00000000000E+00  0.15690253306E+03  0.15690253306E+03  0.00000000000E+00 0. -1.
          2   -1    0    0  501    0  0.00000000000E+00 -0.00000000000E+00 -0.12498813506E+04  0.12498813506E+04  0.00000000000E+00 0.  1.
         23    2    1    2    0    0 -0.44681064233E+02 -0.28029681781E+03 -0.22091594124E+02  0.29892010645E+03  0.91117989067E+02 0.  0.
         13    1    3    3    0    0  0.21227074718E+02 -0.14298476396E+03 -0.24374844386E+02  0.14659251162E+03  0.00000000000E+00 0.  1.
        -13    1    3    3    0    0 -0.65908138951E+02 -0.13731205386E+03  0.22832502614E+01  0.15232759483E+03  0.00000000000E+00 0. -1.
         22    1    1    2    0    0  0.44681064233E+02  0.28029681781E+03 -0.10708872235E+04  0.11078637773E+04  0.00000000000E+00 0.  1.
<mgrwt>
<rscale>  0 0.88568516E+03</rscale>
<asrwt>0</asrwt>
<pdfrwt beam="1">  1        2 0.19228944E+00 0.88568516E+03</pdfrwt>
<pdfrwt beam="2">  1       -2 0.24138852E-01 0.88568516E+03</pdfrwt>
<totfact> 0.27089479E+02</totfact>
</mgrwt>
</event>
<event>
 6    1  0.1831439E-005  0.4814084E+04  0.7818608E-02  0.7857844E-01
         -1   -1    0    0    0  501 -0.00000000000E+00  0.00000000000E+00  0.18975422642E+04  0.18975422642E+04  0.00000000000E+00 0.  1.
          1   -1    0    0  501    0  0.00000000000E+00 -0.00000000000E+00 -0.30533450079E+04  0.30533450079E+04  0.00000000000E+00 0. -1.
         23    2    1    2    0    0  0.13761527480E+04 -0.48284163154E+03  0.13901104118E+04  0.20168446306E+04  0.91229819760E+02 0.  0.
         13    1    3    3    0    0  0.90319054995E+03 -0.33708093112E+03  0.86433391968E+03  0.12947779147E+04  0.00000000000E+00 0.  1.
        -13    1    3    3    0    0  0.47296219805E+03 -0.14576070042E+03  0.52577649209E+03  0.72206671590E+03  0.00000000000E+00 0. -1.
         22    1    1    2    0    0 -0.13761527480E+04  0.48284163154E+03 -0.25459131555E+04  0.29340426415E+04  0.00000000000E+00 0. -1.
<mgrwt>
<rscale>  0 0.48140840E+04</rscale>
<asrwt>0</asrwt>
<pdfrwt beam="1">  1        1 0.46974538E+00 0.48140840E+04</pdfrwt>
<pdfrwt beam="2">  1       -1 0.29192958E+00 0.48140840E+04</pdfrwt>
<totfact> 0.14906829E-02</totfact>
</mgrwt>
</event>
<event>
 6    1  0.1831439E-005  0.3496397E+04  0.7818608E-02  0.8114644E-01
          2   -1    0    0  501    0  0.00000000000E+00  0.00000000000E+00  0.22629558354E+04  0.22629558354E+04  0.00000000000E+00 0. -1.
         -2   -1    0    0    0  501 -0.00000000000E+00 -0.00000000000E+00 -0.13505340065E+04  0.13505340065E+04  0.00000000000E+00 0.  1.
         23    2    1    2    0    0  0.10999287991E+04  0.53396289548E+03  0.17460966897E+04  0.21336339332E+04  0.92630310660E+02 0.  0.
         11    1    3    3    0    0  0.63602505052E+03  0.34167967861E+03  0.96904964323E+03  0.12084411772E+04  0.00000000000E+00 0. -1.
        -11    1    3    3    0    0  0.46390374858E+03  0.19228321687E+03  0.77704704645E+03  0.92519275604E+03  0.00000000000E+00 0.  1.
         22    1    1    2    0    0 -0.10999287991E+04 -0.53396289548E+03 -0.83367486077E+03  0.14798559086E+04  0.00000000000E+00 0.  1.
<mgrwt>
<rscale>  0 0.34963975E+04</rscale>
<asrwt>0</asrwt>
<pdfrwt beam="1">  1        2 0.34814705E+00 0.34963975E+04</pdfrwt>
<pdfrwt beam="2">  1       -2 0.20777446E+00 0.34963975E+04</pdfrwt>
<totfact> 0.46289806E-01</totfact>
</mgrwt>
</event>
<event>
 6    1  0.1831439E-005  0.3082383E+04  0.7818608E-02  0.8220589E-01
         -2   -1    0    0    0  501 -0.00000000000E+00  0.00000000000E+00  0.19295724176E+04  0.19295724176E+04  0.00000000000E+00 0.  1.
          2   -1    0    0  501    0  0.00000000000E+00 -0.00000000000E+00 -0.12309830498E+04  0.12309830498E+04  0.00000000000E+00 0. -1.
         23    2    1    2    0    0  0.70443121759E+03  0.22209786067E+03  0.17348469370E+04  0.18880066275E+04  0.96562574714E+02 0.  0.
         13    1    3    3    0    0  0.38984577373E+03  0.17282770749E+03  0.10030334579E+04  0.10899198417E+04  0.00000000000E+00 0. -1.
        -13    1    3    3    0    0  0.31458544386E+03  0.49270153187E+02  0.73181347911E+03  0.79808678581E+03  0.00000000000E+00 0.  1.
         22    1    1    2    0    0 -0.70443121759E+03 -0.22209786067E+03 -0.10362575692E+04  0.12725488398E+04  0.00000000000E+00 0. -1.
<mgrwt>
<rscale>  0 0.30823828E+04</rscale>
<asrwt>0</asrwt>
<pdfrwt beam="1">  1        2 0.18938201E+00 0.30823828E+04</pdfrwt>
<pdfrwt beam="2">  1       -2 0.29685730E+00 0.30823828E+04</pdfrwt>
<totfact> 0.51271888E-01</totfact>
</mgrwt>
</event>
<event>
 6    1  0.1831439E-005  0.4163274E+04  0.7818608E-02  0.7972395E-01
         -2   -1    0    0    0  501 -0.00000000000E+00  0.00000000000E+00  0.27760918138E+04  0.27760918138E+04  0.00000000000E+00 0.  1.
          2   -1    0    0  501    0  0.00000000000E+00 -0.00000000000E+00 -0.15609037253E+04  0.15609037253E+04  0.00000000000E+00 0. -1.
         23    2    1    2    0    0 -0.13322216389E+04  0.14874338199E+04 -0.48897439303E+00  0.19992306696E+04  0.98230174748E+02 0.  0.
         11    1    3    3    0    0 -0.54069008786E+03  0.64000219352E+03 -0.42189021456E+02  0.83888526770E+03  0.00000000000E+00 0.  1.
        -11    1    3    3    0    0 -0.79153155108E+03  0.84743162637E+03  0.41700047063E+02  0.11603454019E+04  0.00000000000E+00 0. -1.
         22    1    1    2    0    0  0.13322216389E+04 -0.14874338199E+04  0.12156770629E+04  0.23377648695E+04  0.00000000000E+00 0.  1.
<mgrwt>
<rscale>  0 0.41632737E+04</rscale>
<asrwt>0</asrwt>
<pdfrwt beam="1">  1        2 0.24013903E+00 0.41632737E+04</pdfrwt>
<pdfrwt beam="2">  1       -2 0.42709105E+00 0.41632737E+04</pdfrwt>
<totfact> 0.44944872E-02</totfact>
</mgrwt>
</event>
<event>
 6    1  0.1831439E-005  0.3121799E+04  0.7818608E-02  0.8209781E-01
          2   -1    0    0  501    0  0.00000000000E+00  0.00000000000E+00  0.17218360109E+04  0.17218360109E+04  0.00000000000E+00 0. -1.
         -2   -1    0    0    0  501 -0.00000000000E+00 -0.00000000000E+00 -0.14150056530E+04  0.14150056530E+04  0.00000000000E+00 0.  1.
         23    2    1    2    0    0 -0.22383951860E+02 -0.63701279228E+03 -0.12767426148E+04  0.14298004522E+04  0.89282079014E+02 0.  0.
         11    1    3    3    0    0  0.78879219689E+01 -0.50941974921E+03 -0.10677628576E+04  0.11830841983E+04  0.00000000000E+00 0. -1.
        -11    1    3    3    0    0 -0.30271873829E+02 -0.12759304307E+03 -0.20897975725E+03  0.24671625387E+03  0.00000000000E+00 0.  1.
         22    1    1    2    0    0  0.22383951860E+02  0.63701279228E+03  0.15835729727E+04  0.17070412118E+04  0.00000000000E+00 0. -1.
<mgrwt>
<rscale>  0 0.31217993E+04</rscale>
<asrwt>0</asrwt>
<pdfrwt beam="1">  1        2 0.26489785E+00 0.31217993E+04</pdfrwt>
<pdfrwt beam="2">  1       -2 0.21769318E+00 0.31217993E+04</pdfrwt>
<totfact> 0.82626833E-01</totfact>
</mgrwt>
</event>
<event>
 6    1  0.1831439E-005  0.1471464E+04  0.7818608E-02  0.8903654E-01
          2   -1    0    0  501    0  0.00000000000E+00  0.00000000000E+00  0.28705010902E+03  0.28705010902E+03  0.00000000000E+00 0. -1.
         -2   -1    0    0    0  501 -0.00000000000E+00 -0.00000000000E+00 -0.18857399827E+04  0.18857399827E+04  0.00000000000E+00 0.  1.
         23    2    1    2    0    0 -0.19105367682E+03  0.47649644499E+03 -0.30189029676E+02  0.52241278117E+03  0.91942193306E+02 0.  0.
         13    1    3    3    0    0 -0.27482116912E+02  0.17129448965E+03 -0.30474131307E+02  0.17614125472E+03  0.00000000000E+00 0.  1.
        -13    1    3    3    0    0 -0.16357155990E+03  0.30520195534E+03  0.28510163124E+00  0.34627152645E+03  0.00000000000E+00 0. -1.
         22    1    1    2    0    0  0.19105367682E+03 -0.47649644499E+03 -0.15685008440E+04  0.16503773106E+04  0.00000000000E+00 0.  1.
<mgrwt>
<rscale>  0 0.14714644E+04</rscale>
<asrwt>0</asrwt>
<pdfrwt beam="1">  1        2 0.44161553E-01 0.14714644E+04</pdfrwt>
<pdfrwt beam="2">  1       -2 0.29011386E+00 0.14714644E+04</pdfrwt>
<totfact> 0.40929612E+00</totfact>
</mgrwt>
</event>
<event>
 6    1  0.1831439E-005  0.1513144E+04  0.7818608E-02  0.8875759E-01
         -1   -1    0    0    0  501 -0.00000000000E+00  0.00000000000E+00  0.20791960007E+04  0.20791960007E+04  0.00000000000E+00 0.  1.
          1   -1    0    0  501    0  0.00000000000E+00 -0.00000000000E+00 -0.27529936162E+03  0.27529936162E+03  0.00000000000E+00 0. -1.
         23    2    1    2    0    0  0.67806903757E+03 -0.26669308572E+03  0.12056435268E+04  0.14117283667E+04  0.92183762189E+02 0.  0.
         13    1    3    3    0    0  0.30950134601E+03 -0.83794203073E+02  0.58440908866E+03  0.66659323021E+03  0.00000000000E+00 0.  1.
        -13    1    3    3    0    0  0.36856769155E+03 -0.18289888265E+03  0.62123443809E+03  0.74513513647E+03  0.00000000000E+00 0. -1.
         22    1    1    2    0    0 -0.67806903757E+03  0.26669308572E+03  0.59825311237E+03  0.94276699568E+03  0.00000000000E+00 0. -1.
<mgrwt>
<rscale>  0 0.15131442E+04</rscale>
<asrwt>0</asrwt>
<pdfrwt beam="1">  1        1 0.42353749E-01 0.15131442E+04</pdfrwt>
<pdfrwt beam="2">  1       -1 0.31987630E+00 0.15131442E+04</pdfrwt>
<totfact> 0.23320697E+00</totfact>
</mgrwt>
</event>
<event>
 6    1  0.1831439E-005  0.1365419E+04  0.7818608E-02  0.8979238E-01
          1   -1    0    0  501    0  0.00000000000E+00  0.00000000000E+00  0.12709678351E+04  0.12709678351E+04  0.00000000000E+00 0. -1.
         -1   -1    0    0    0  501 -0.00000000000E+00 -0.00000000000E+00 -0.36672230694E+03  0.36672230694E+03  0.00000000000E+00 0.  1.
         23    2    1    2    0    0 -0.66426728128E+03 -0.10311939908E+03  0.57514514737E+03  0.88923059600E+03  0.89746759618E+02 0.  0.
         11    1    3    3    0    0 -0.12431089280E+03 -0.37608526369E+02  0.73111814608E+02  0.14904005086E+03  0.00000000000E+00 0. -1.
        -11    1    3    3    0    0 -0.53995638848E+03 -0.65510872714E+02  0.50203333277E+03  0.74019054514E+03  0.00000000000E+00 0.  1.
         22    1    1    2    0    0  0.66426728128E+03  0.10311939908E+03  0.32910038082E+03  0.74845954607E+03  0.00000000000E+00 0. -1.
<mgrwt>
<rscale>  0 0.13654190E+04</rscale>
<asrwt>0</asrwt>
<pdfrwt beam="1">  1        1 0.19553351E+00 0.13654190E+04</pdfrwt>
<pdfrwt beam="2">  1       -1 0.56418817E-01 0.13654190E+04</pdfrwt>
<totfact> 0.29495925E+01</totfact>
</mgrwt>
</event>
<event>
 6    1  0.1831439E-005  0.3956725E+04  0.7818608E-02  0.8013334E-01
          2   -1    0    0  501    0  0.00000000000E+00  0.00000000000E+00  0.35230833366E+04  0.35230833366E+04  0.00000000000E+00 0.  1.
         -2   -1    0    0    0  501 -0.00000000000E+00 -0.00000000000E+00 -0.11109355612E+04  0.11109355612E+04  0.00000000000E+00 0. -1.
         23    2    1    2    0    0 -0.15859743385E+04  0.10925150483E+04  0.17312818913E+04  0.25913534614E+04  0.94191516901E+02 0.  0.
         13    1    3    3    0    0 -0.89697789458E+03  0.67074452947E+03  0.98388449324E+03  0.14908038983E+04  0.00000000000E+00 0. -1.
        -13    1    3    3    0    0 -0.68899644391E+03  0.42177051882E+03  0.74739739805E+03  0.11005495631E+04  0.00000000000E+00 0.  1.
         22    1    1    2    0    0  0.15859743385E+04 -0.10925150483E+04  0.68086588412E+03  0.20426654364E+04  0.00000000000E+00 0. -1.
<mgrwt>
<rscale>  0 0.39567252E+04</rscale>
<asrwt>0</asrwt>
<pdfrwt beam="1">  1        2 0.54201282E+00 0.39567252E+04</pdfrwt>
<pdfrwt beam="2">  1       -2 0.17091316E+00 0.39567252E+04</pdfrwt>
<totfact> 0.12993429E-01</totfact>
</mgrwt>
</event>
<event>
 6    1  0.1831439E-005  0.4737840E+04  0.7818608E-02  0.7870272E-01
          2   -1    0    0  501    0  0.00000000000E+00  0.00000000000E+00  0.28973697628E+04  0.28973697628E+04  0.00000000000E+00 0.  1.
         -2   -1    0    0    0  501 -0.00000000000E+00 -0.00000000000E+00 -0.19368535826E+04  0.19368535826E+04  0.00000000000E+00 0. -1.
         23    2    1    2    0    0 -0.96423500991E+03 -0.12555964868E+04 -0.13164911653E+04  0.20609519661E+04  0.90012921286E+02 0.  0.
         13    1    3    3    0    0 -0.62124379027E+03 -0.80674154170E+03 -0.90215169683E+03  0.13603872412E+04  0.00000000000E+00 0. -1.
        -13    1    3    3    0    0 -0.34299121964E+03 -0.44885494511E+03 -0.41433946851E+03  0.70056472482E+03  0.00000000000E+00 0.  1.
         22    1    1    2    0    0  0.96423500991E+03  0.12555964868E+04  0.22770073455E+04  0.27732713794E+04  0.00000000000E+00 0.  1.
<mgrwt>
<rscale>  0 0.47378396E+04</rscale>
<asrwt>0</asrwt>
<pdfrwt beam="1">  1        2 0.44574920E+00 0.47378396E+04</pdfrwt>
<pdfrwt beam="2">  1       -2 0.29797747E+00 0.47378396E+04</pdfrwt>
<totfact> 0.49003794E-02</totfact>
</mgrwt>
</event>
<event>
 6    1  0.1831439E-005  0.2737254E+04  0.7818608E-02  0.8323018E-01
         -2   -1    0    0    0  501 -0.00000000000E+00  0.00000000000E+00  0.56571454257E+03  0.56571454257E+03  0.00000000000E+00 0.  1.
          2   -1    0    0  501    0  0.00000000000E+00 -0.00000000000E+00 -0.33111039919E+04  0.33111039919E+04  0.00000000000E+00 0. -1.
         23    2    1    2    0    0  0.25149088770E+03  0.51425485430E+03 -0.31325679752E+04  0.31857230761E+04  0.90242323203E+02 0.  0.
         11    1    3    3    0    0  0.99158081550E+02  0.18709065970E+03 -0.93130823203E+03  0.95507605097E+03  0.00000000000E+00 0. -1.
        -11    1    3    3    0    0  0.15233280615E+03  0.32716419460E+03 -0.22012597431E+04  0.22306470251E+04  0.00000000000E+00 0.  1.
         22    1    1    2    0    0 -0.25149088770E+03 -0.51425485430E+03  0.38717852579E+03  0.69109545839E+03  0.00000000000E+00 0.  1.
<mgrwt>
<rscale>  0 0.27372539E+04</rscale>
<asrwt>0</asrwt>
<pdfrwt beam="1">  1        2 0.50940060E+00 0.27372539E+04</pdfrwt>
<pdfrwt beam="2">  1       -2 0.87033009E-01 0.27372539E+04</pdfrwt>
<totfact> 0.10930791E+00</totfact>
</mgrwt>
</event>
<event>
 6    1  0.1831439E-005  0.4243595E+04  0.7818608E-02  0.7957131E-01
          2   -1    0    0  501    0  0.00000000000E+00  0.00000000000E+00  0.13996712976E+04  0.13996712976E+04  0.00000000000E+00 0. -1.
         -2   -1    0    0    0  501 -0.00000000000E+00 -0.00000000000E+00 -0.32164865475E+04  0.32164865475E+04  0.00000000000E+00 0.  1.
         23    2    1    2    0    0  0.18110454293E+03 -0.82694840111E+03  0.12064468551E+04  0.14766107012E+04  0.90678746188E+02 0.  0.
         13    1    3    3    0    0  0.57838158153E+02 -0.35043847840E+03  0.57729009634E+03  0.67780250443E+03  0.00000000000E+00 0. -1.
        -13    1    3    3    0    0  0.12326638478E+03 -0.47650992271E+03  0.62915675879E+03  0.79880819674E+03  0.00000000000E+00 0.  1.
         22    1    1    2    0    0 -0.18110454293E+03  0.82694840111E+03 -0.30232621050E+04  0.31395471439E+04  0.00000000000E+00 0.  1.
<mgrwt>
<rscale>  0 0.42435947E+04</rscale>
<asrwt>0</asrwt>
<pdfrwt beam="1">  1        2 0.21533405E+00 0.42435947E+04</pdfrwt>
<pdfrwt beam="2">  1       -2 0.49484407E+00 0.42435947E+04</pdfrwt>
<totfact> 0.19939060E-02</totfact>
</mgrwt>
</event>
<event>
 6    1  0.1831439E-005  0.4924168E+04  0.7818608E-02  0.7840313E-01
         -3   -1    0    0    0  501 -0.00000000000E+00  0.00000000000E+00  0.24609684704E+04  0.24609684704E+04  0.00000000000E+00 0.  1.
          3   -1    0    0  501    0  0.00000000000E+00 -0.00000000000E+00 -0.24632001998E+04  0.24632001998E+04  0.00000000000E+00 0. -1.
         23    2    1    2    0    0  0.15156927765E+04 -0.16074171213E+04  0.10835798410E+04  0.24624413983E+04  0.91421952724E+02 0.  0.
         13    1    3    3    0    0  0.10399376451E+04 -0.10940021216E+04  0.78683881417E+03  0.17021827949E+04  0.00000000000E+00 0.  1.
        -13    1    3    3    0    0  0.47575513146E+03 -0.51341499976E+03  0.29674102681E+03  0.76025860342E+03  0.00000000000E+00 0. -1.
         22    1    1    2    0    0 -0.15156927765E+04  0.16074171213E+04 -0.10858115704E+04  0.24617272719E+04  0.00000000000E+00 0. -1.
<mgrwt>
<rscale>  0 0.49241682E+04</rscale>
<asrwt>0</asrwt>
<pdfrwt beam="1">  1        3 0.37895387E+00 0.49241682E+04</pdfrwt>
<pdfrwt beam="2">  1       -3 0.37861054E+00 0.49241682E+04</pdfrwt>
<totfact> 0.37526076E-04</totfact>
</mgrwt>
</event>
<event>
 6    1  0.1831439E-005  0.7023273E+04  0.7818608E-02  0.7575040E-01
         -2   -1    0    0    0  501 -0.00000000000E+00  0.00000000000E+00  0.43877369984E+04  0.43877369984E+04  0.00000000000E+00 0.  1.
          2   -1    0    0  501    0  0.00000000000E+00 -0.00000000000E+00 -0.28104670813E+04  0.28104670813E+04  0.00000000000E+00 0. -1.
         23    2    1    2    0    0  0.21842329467E+04 -0.21798253980E+04 -0.92766891957E+03  0.32236310325E+04  0.93354583330E+02 0.  0.
         11    1    3    3    0    0  0.42648337913E+03 -0.40464186362E+03 -0.21194516314E+03  0.62493508675E+03  0.00000000000E+00 0. -1.
        -11    1    3    3    0    0  0.17577495676E+04 -0.17751835344E+04 -0.71572375642E+03  0.25986959458E+04  0.00000000000E+00 0.  1.
         22    1    1    2    0    0 -0.21842329467E+04  0.21798253980E+04  0.25049388367E+04  0.39745730471E+04  0.00000000000E+00 0. -1.
<mgrwt>
<rscale>  0 0.70232729E+04</rscale>
<asrwt>0</asrwt>
<pdfrwt beam="1">  1        2 0.43237955E+00 0.70232729E+04</pdfrwt>
<pdfrwt beam="2">  1       -2 0.67503646E+00 0.70232729E+04</pdfrwt>
<totfact> 0.40460225E-04</totfact>
</mgrwt>
</event>
<event>
 6    1  0.3084625E-005  0.2610973E+04  0.7818608E-02  0.8364483E-01
         -2   -1    0    0    0  501 -0.00000000000E+00  0.00000000000E+00  0.97407065245E+03  0.97407065245E+03  0.00000000000E+00 0.  1.
          2   -1    0    0  501    0  0.00000000000E+00 -0.00000000000E+00 -0.17496628338E+04  0.17496628338E+04  0.00000000000E+00 0. -1.
         23    2    1    2    0    0  0.35653308434E+03  0.10061966812E+04  0.39303788547E+03  0.11409372787E+04  0.87815107295E+02 0.  0.
         11    1    3    3    0    0  0.11419445470E+03  0.42282213701E+03  0.18993527571E+03  0.47738280446E+03  0.00000000000E+00 0. -1.
        -11    1    3    3    0    0  0.24233862964E+03  0.58337454419E+03  0.20310260976E+03  0.66355447426E+03  0.00000000000E+00 0.  1.
         22    1    1    2    0    0 -0.35653308434E+03 -0.10061966812E+04 -0.11686300668E+04  0.15827962075E+04  0.00000000000E+00 0. -1.
<mgrwt>
<rscale>  0 0.26109732E+04</rscale>
<asrwt>0</asrwt>
<pdfrwt beam="1">  1        2 0.26917890E+00 0.26109732E+04</pdfrwt>
<pdfrwt beam="2">  1       -2 0.14985702E+00 0.26109732E+04</pdfrwt>
<totfact> 0.24432983E+00</totfact>
</mgrwt>
</event>
<event>
 6    1  0.1831439E-005  0.4495675E+04  0.7818608E-02  0.7911394E-01
         -2   -1    0    0    0  501 -0.00000000000E+00  0.00000000000E+00  0.12341821224E+04  0.12341821224E+04  0.00000000000E+00 0. -1.
          2   -1    0    0  501    0  0.00000000000E+00 -0.00000000000E+00 -0.40940256709E+04  0.40940256709E+04  0.00000000000E+00 0.  1.
         23    2    1    2    0    0 -0.12541547533E+04  0.83075656765E+03 -0.34085680618E+04  0.37269085673E+04  0.91927235563E+02 0.  0.
         11    1    3    3    0    0 -0.80546407560E+03  0.48030544697E+03 -0.21110228241E+04  0.23099530435E+04  0.00000000000E+00 0.  1.
        -11    1    3    3    0    0 -0.44869067765E+03  0.35045112068E+03 -0.12975452377E+04  0.14169555237E+04  0.00000000000E+00 0. -1.
         22    1    1    2    0    0  0.12541547533E+04 -0.83075656765E+03  0.54872451336E+03  0.16012992261E+04  0.00000000000E+00 0. -1.
<mgrwt>
<rscale>  0 0.44956749E+04</rscale>
<asrwt>0</asrwt>
<pdfrwt beam="1">  1        2 0.62985009E+00 0.44956749E+04</pdfrwt>
<pdfrwt beam="2">  1       -2 0.18987418E+00 0.44956749E+04</pdfrwt>
<totfact> 0.33536067E-02</totfact>
</mgrwt>
</event>
<event>
 6    1  0.1978257E-005  0.2305620E+04  0.7818608E-02  0.8475709E-01
         -2   -1    0    0    0  501 -0.00000000000E+00  0.00000000000E+00  0.51776909042E+03  0.51776909042E+03  0.00000000000E+00 0.  1.
          2   -1    0    0  501    0  0.00000000000E+00 -0.00000000000E+00 -0.25667247856E+04  0.25667247856E+04  0.00000000000E+00 0. -1.
         23    2    1    2    0    0  0.89605960668E+03  0.72200573303E+03 -0.10571426655E+04  0.15653137737E+04  0.91877624726E+02 0.  0.
         11    1    3    3    0    0  0.55181059868E+03  0.43970911215E+03 -0.58695470361E+03  0.91779892363E+03  0.00000000000E+00 0.  1.
        -11    1    3    3    0    0  0.34424900800E+03  0.28229662088E+03 -0.47018796184E+03  0.64751485012E+03  0.00000000000E+00 0. -1.
         22    1    1    2    0    0 -0.89605960668E+03 -0.72200573303E+03 -0.99181302973E+03  0.15191801023E+04  0.00000000000E+00 0. -1.
<mgrwt>
<rscale>  0 0.23056199E+04</rscale>
<asrwt>0</asrwt>
<pdfrwt beam="1">  1        2 0.39488075E+00 0.23056199E+04</pdfrwt>
<pdfrwt beam="2">  1       -2 0.79656781E-01 0.23056199E+04</pdfrwt>
<totfact> 0.40261017E+00</totfact>
</mgrwt>
</event>
<event>
 6    1  0.1831439E-005  0.2283746E+04  0.7818608E-02  0.8484358E-01
          1   -1    0    0  501    0  0.00000000000E+00  0.00000000000E+00  0.27501087484E+04  0.27501087484E+04  0.00000000000E+00 0. -1.
         -1   -1    0    0    0  501 -0.00000000000E+00 -0.00000000000E+00 -0.47411702731E+03  0.47411702731E+03  0.00000000000E+00 0.  1.
         23    2    1    2    0    0 -0.90546039849E+03 -0.38940626764E+03  0.33085082123E+03  0.10436137298E+04  0.90396773071E+02 0.  0.
         11    1    3    3    0    0 -0.49473920739E+03 -0.21700526104E+03  0.13394449407E+03  0.55659616792E+03  0.00000000000E+00 0. -1.
        -11    1    3    3    0    0 -0.41072119110E+03 -0.17240100660E+03  0.19690632716E+03  0.48701756187E+03  0.00000000000E+00 0.  1.
         22    1    1    2    0    0  0.90546039849E+03  0.38940626764E+03  0.19451408998E+04  0.21806120459E+04  0.00000000000E+00 0. -1.
<mgrwt>
<rscale>  0 0.22837455E+04</rscale>
<asrwt>0</asrwt>
<pdfrwt beam="1">  1        1 0.42309364E+00 0.22837455E+04</pdfrwt>
<pdfrwt beam="2">  1       -1 0.72941083E-01 0.22837455E+04</pdfrwt>
<totfact> 0.15514176E+00</totfact>
</mgrwt>
</event>
<event>
 6    1  0.1831439E-005  0.3523897E+04  0.7818608E-02  0.8108150E-01
          1   -1    0    0  501    0  0.00000000000E+00  0.00000000000E+00  0.22272868346E+04  0.22272868346E+04  0.00000000000E+00 0. -1.
         -1   -1    0    0    0  501 -0.00000000000E+00 -0.00000000000E+00 -0.13938312031E+04  0.13938312031E+04  0.00000000000E+00 0.  1.
         23    2    1    2    0    0  0.91509284977E+03 -0.14099949996E+04 -0.12068997583E+03  0.16882769520E+04  0.10115420708E+03 0.  0.
         13    1    3    3    0    0  0.19699728228E+03 -0.23216721637E+03 -0.23303659663E+02  0.30537289686E+03  0.00000000000E+00 0.  1.
        -13    1    3    3    0    0  0.71809556749E+03 -0.11778277833E+04 -0.97386316165E+02  0.13829040551E+04  0.00000000000E+00 0. -1.
         22    1    1    2    0    0 -0.91509284977E+03  0.14099949996E+04  0.95414560734E+03  0.19328410857E+04  0.00000000000E+00 0. -1.
<mgrwt>
<rscale>  0 0.35238966E+04</rscale>
<asrwt>0</asrwt>
<pdfrwt beam="1">  1        1 0.34265951E+00 0.35238966E+04</pdfrwt>
<pdfrwt beam="2">  1       -1 0.21443557E+00 0.35238966E+04</pdfrwt>
<totfact> 0.20386016E-01</totfact>
</mgrwt>
</event>
<event>
 6    1  0.1831439E-005  0.2475897E+04  0.7818608E-02  0.8411623E-01
          2   -1    0    0  501    0  0.00000000000E+00  0.00000000000E+00  0.30265723126E+04  0.30265723126E+04  0.00000000000E+00 0. -1.
         -2   -1    0    0    0  501 -0.00000000000E+00 -0.00000000000E+00 -0.50635367530E+03  0.50635367530E+03  0.00000000000E+00 0.  1.
         23    2    1    2    0    0  0.11759138052E+04 -0.31355474416E+03  0.95145357882E+03  0.15474503110E+04  0.90822340542E+02 0.  0.
         13    1    3    3    0    0  0.59081384642E+03 -0.14545193638E+03  0.41995985600E+03  0.73931288881E+03  0.00000000000E+00 0.  1.
        -13    1    3    3    0    0  0.58509995878E+03 -0.16810280778E+03  0.53149372282E+03  0.80813742219E+03  0.00000000000E+00 0. -1.
         22    1    1    2    0    0 -0.11759138052E+04  0.31355474416E+03  0.15687650585E+04  0.19854756769E+04  0.00000000000E+00 0. -1.
<mgrwt>
<rscale>  0 0.24758966E+04</rscale>
<asrwt>0</asrwt>
<pdfrwt beam="1">  1        2 0.46562650E+00 0.24758966E+04</pdfrwt>
<pdfrwt beam="2">  1       -2 0.77900568E-01 0.24758966E+04</pdfrwt>
<totfact> 0.21975362E+00</totfact>
</mgrwt>
</event>
<event>
 6    1  0.1831439E-005  0.1303820E+04  0.7818608E-02  0.9026541E-01
          1   -1    0    0  501    0  0.00000000000E+00  0.00000000000E+00  0.12390061487E+04  0.12390061487E+04  0.00000000000E+00 0. -1.
         -1   -1    0    0    0  501 -0.00000000000E+00 -0.00000000000E+00 -0.34300628565E+03  0.34300628565E+03  0.00000000000E+00 0.  1.
         23    2    1    2    0    0  0.10349484333E+03  0.39119561309E+03 -0.16354320899E+03  0.44782695048E+03  0.10028661961E+03 0.  0.
         13    1    3    3    0    0  0.97635429983E+02  0.17351047365E+03 -0.75087954285E+02  0.21278336996E+03  0.00000000000E+00 0.  1.
        -13    1    3    3    0    0  0.58594133501E+01  0.21768513944E+03 -0.88455254708E+02  0.23504358052E+03  0.00000000000E+00 0. -1.
         22    1    1    2    0    0 -0.10349484333E+03 -0.39119561309E+03  0.10595430720E+04  0.11341854838E+04  0.00000000000E+00 0. -1.
<mgrwt>
<rscale>  0 0.13038204E+04</rscale>
<asrwt>0</asrwt>
<pdfrwt beam="1">  1        1 0.19061633E+00 0.13038204E+04</pdfrwt>
<pdfrwt beam="2">  1       -1 0.52770199E-01 0.13038204E+04</pdfrwt>
<totfact> 0.35579111E+01</totfact>
</mgrwt>
</event>
<event>
 6    1  0.1831439E-005  0.3292004E+04  0.7818608E-02  0.8164933E-01
         -2   -1    0    0    0  501 -0.00000000000E+00  0.00000000000E+00  0.47701337540E+04  0.47701337540E+04  0.00000000000E+00 0.  1.
          2   -1    0    0  501    0  0.00000000000E+00 -0.00000000000E+00 -0.56797636523E+03  0.56797636523E+03  0.00000000000E+00 0. -1.
         23    2    1    2    0    0  0.88249072180E+03 -0.70113522869E+03  0.40450292763E+04  0.42000988158E+04  0.90486096743E+02 0.  0.
         13    1    3    3    0    0  0.39087353194E+03 -0.36433164049E+03  0.18516618074E+04  0.19272184908E+04  0.00000000000E+00 0. -1.
        -13    1    3    3    0    0  0.49161718986E+03 -0.33680358820E+03  0.21933674689E+04  0.22728803251E+04  0.00000000000E+00 0.  1.
         22    1    1    2    0    0 -0.88249072180E+03  0.70113522869E+03  0.15712811251E+03  0.11380113034E+04  0.00000000000E+00 0. -1.
<mgrwt>
<rscale>  0 0.32920044E+04</rscale>
<asrwt>0</asrwt>
<pdfrwt beam="1">  1        2 0.87380982E-01 0.32920044E+04</pdfrwt>
<pdfrwt beam="2">  1       -2 0.73386671E+00 0.32920044E+04</pdfrwt>
<totfact> 0.74373551E-03</totfact>
</mgrwt>
</event>
<event>
 6    1  0.1831439E-005  0.5210674E+04  0.7818608E-02  0.7796806E-01
          2   -1    0    0  501    0  0.00000000000E+00  0.00000000000E+00  0.34972809940E+04  0.34972809940E+04  0.00000000000E+00 0. -1.
         -2   -1    0    0    0  501 -0.00000000000E+00 -0.00000000000E+00 -0.19408736779E+04  0.19408736779E+04  0.00000000000E+00 0.  1.
         23    2    1    2    0    0 -0.12008312468E+04 -0.65021552528E+03 -0.15362069535E+04  0.20574685088E+04  0.92026888672E+02 0.  0.
         11    1    3    3    0    0 -0.11623946999E+04 -0.62899288852E+03 -0.14587838322E+04  0.19684622835E+04  0.00000000000E+00 0.  1.
        -11    1    3    3    0    0 -0.38436546856E+02 -0.21222636762E+02 -0.77423121291E+02  0.89006225376E+02  0.00000000000E+00 0. -1.
         22    1    1    2    0    0  0.12008312468E+04  0.65021552528E+03  0.30926142696E+04  0.33806861631E+04  0.00000000000E+00 0. -1.
<mgrwt>
<rscale>  0 0.52106739E+04</rscale>
<asrwt>0</asrwt>
<pdfrwt beam="1">  1        2 0.53804323E+00 0.52106739E+04</pdfrwt>
<pdfrwt beam="2">  1       -2 0.29859595E+00 0.52106739E+04</pdfrwt>
<totfact> 0.18915176E-02</totfact>
</mgrwt>
</event>
<event>
 6    1  0.1831439E-005  0.3040055E+04  0.7818608E-02  0.8232384E-01
         -2   -1    0    0    0  501 -0.00000000000E+00  0.00000000000E+00  0.34792111302E+04  0.34792111302E+04  0.00000000000E+00 0.  1.
          2   -1    0    0  501    0  0.00000000000E+00 -0.00000000000E+00 -0.66408270365E+03  0.66408270365E+03  0.00000000000E+00 0. -1.
         23    2    1    2    0    0  0.12955150007E+04  0.24007768031E+03  0.24380934841E+04  0.27728370642E+04  0.91264109602E+02 0.  0.
         11    1    3    3    0    0  0.39662644094E+03  0.96575519091E+02  0.68172366336E+03  0.79459833736E+03  0.00000000000E+00 0.  1.
        -11    1    3    3    0    0  0.89888855977E+03  0.14350216122E+03  0.17563698207E+04  0.19782387268E+04  0.00000000000E+00 0. -1.
         22    1    1    2    0    0 -0.12955150007E+04 -0.24007768031E+03  0.37703494246E+03  0.13704567697E+04  0.00000000000E+00 0. -1.
<mgrwt>
<rscale>  0 0.30400552E+04</rscale>
<asrwt>0</asrwt>
<pdfrwt beam="1">  1        2 0.10216657E+00 0.30400552E+04</pdfrwt>
<pdfrwt beam="2">  1       -2 0.53526324E+00 0.30400552E+04</pdfrwt>
<totfact> 0.37989994E-02</totfact>
</mgrwt>
</event>
<event>
 6    1  0.1831439E-005  0.4669614E+04  0.7818608E-02  0.7881597E-01
          1   -1    0    0  501    0  0.00000000000E+00  0.00000000000E+00  0.45692383110E+04  0.45692383110E+04  0.00000000000E+00 0. -1.
         -1   -1    0    0    0  501 -0.00000000000E+00 -0.00000000000E+00 -0.11930487013E+04  0.11930487013E+04  0.00000000000E+00 0.  1.
         23    2    1    2    0    0 -0.22104446712E+04  0.73908833064E+03  0.15374597129E+04  0.27935760397E+04  0.89260943954E+02 0.  0.
         13    1    3    3    0    0 -0.12350766342E+04  0.38813389251E+03  0.80870898577E+03  0.15264574788E+04  0.00000000000E+00 0. -1.
        -13    1    3    3    0    0 -0.97536803700E+03  0.35095443814E+03  0.72875072713E+03  0.12671185610E+04  0.00000000000E+00 0.  1.
         22    1    1    2    0    0  0.22104446712E+04 -0.73908833064E+03  0.18387298968E+04  0.29687109725E+04  0.00000000000E+00 0. -1.
<mgrwt>
<rscale>  0 0.46696140E+04</rscale>
<asrwt>0</asrwt>
<pdfrwt beam="1">  1        1 0.70295973E+00 0.46696140E+04</pdfrwt>
<pdfrwt beam="2">  1       -1 0.18354596E+00 0.46696140E+04</pdfrwt>
<totfact> 0.39385950E-03</totfact>
</mgrwt>
</event>
<event>
 6    1  0.1831439E-005  0.1089689E+04  0.7818608E-02  0.9215301E-01
          1   -1    0    0  501    0  0.00000000000E+00  0.00000000000E+00  0.33213852552E+03  0.33213852552E+03  0.00000000000E+00 0. -1.
         -1   -1    0    0    0  501 -0.00000000000E+00 -0.00000000000E+00 -0.89376988680E+03  0.89376988680E+03  0.00000000000E+00 0.  1.
         23    2    1    2    0    0 -0.46238646993E+02  0.45656919381E+02 -0.88702379081E+03  0.89409099271E+03  0.91459996856E+02 0.  0.
         13    1    3    3    0    0  0.10673640754E+02  0.50084219479E+02 -0.30439770389E+03  0.30867510069E+03  0.00000000000E+00 0.  1.
        -13    1    3    3    0    0 -0.56912287746E+02 -0.44273000972E+01 -0.58262608691E+03  0.58541589202E+03  0.00000000000E+00 0. -1.
         22    1    1    2    0    0  0.46238646993E+02 -0.45656919381E+02  0.32539242953E+03  0.33181741961E+03  0.00000000000E+00 0. -1.
<mgrwt>
<rscale>  0 0.10896888E+04</rscale>
<asrwt>0</asrwt>
<pdfrwt beam="1">  1        1 0.51098235E-01 0.10896888E+04</pdfrwt>
<pdfrwt beam="2">  1       -1 0.13750306E+00 0.10896888E+04</pdfrwt>
<totfact> 0.33618752E+01</totfact>
</mgrwt>
</event>
<event>
 6    1  0.1831439E-005  0.2389274E+04  0.7818608E-02  0.8443530E-01
         -1   -1    0    0    0  501 -0.00000000000E+00  0.00000000000E+00  0.42580087249E+03  0.42580087249E+03  0.00000000000E+00 0.  1.
          1   -1    0    0  501    0  0.00000000000E+00 -0.00000000000E+00 -0.33517022400E+04  0.33517022400E+04  0.00000000000E+00 0. -1.
         23    2    1    2    0    0 -0.12117229294E+01 -0.61377757329E+03 -0.30821981757E+04  0.31441366545E+04  0.94473967219E+02 0.  0.
         13    1    3    3    0    0 -0.28720773445E+02 -0.11902798883E+03 -0.74421894913E+03  0.75422436264E+03  0.00000000000E+00 0.  1.
        -13    1    3    3    0    0  0.27509050516E+02 -0.49474958446E+03 -0.23379792265E+04  0.23899122919E+04  0.00000000000E+00 0. -1.
         22    1    1    2    0    0  0.12117229294E+01  0.61377757329E+03  0.15629680822E+03  0.63336645791E+03  0.00000000000E+00 0.  1.
<mgrwt>
<rscale>  0 0.23892741E+04</rscale>
<asrwt>0</asrwt>
<pdfrwt beam="1">  1        1 0.51564653E+00 0.23892741E+04</pdfrwt>
<pdfrwt beam="2">  1       -1 0.65507823E-01 0.23892741E+04</pdfrwt>
<totfact> 0.69150199E-01</totfact>
</mgrwt>
</event>
<event>
 6    1  0.1831439E-005  0.3417911E+04  0.7818608E-02  0.8133524E-01
          1   -1    0    0  501    0  0.00000000000E+00  0.00000000000E+00  0.22838985642E+04  0.22838985642E+04  0.00000000000E+00 0. -1.
         -1   -1    0    0    0  501 -0.00000000000E+00 -0.00000000000E+00 -0.12787473264E+04  0.12787473264E+04  0.00000000000E+00 0.  1.
         23    2    1    2    0    0  0.64612125227E+03  0.12165666006E+04  0.15550767010E+04  0.20794314821E+04  0.90910816676E+02 0.  0.
         11    1    3    3    0    0  0.44537689418E+03  0.91827513266E+03  0.11287949891E+04  0.15217647402E+04  0.00000000000E+00 0. -1.
        -11    1    3    3    0    0  0.20074435809E+03  0.29829146790E+03  0.42628171191E+03  0.55766674192E+03  0.00000000000E+00 0.  1.
         22    1    1    2    0    0 -0.64612125227E+03 -0.12165666006E+04 -0.54992546323E+03  0.14832144084E+04  0.00000000000E+00 0.  1.
<mgrwt>
<rscale>  0 0.34179112E+04</rscale>
<asrwt>0</asrwt>
<pdfrwt beam="1">  1        1 0.35136901E+00 0.34179112E+04</pdfrwt>
<pdfrwt beam="2">  1       -1 0.19673036E+00 0.34179112E+04</pdfrwt>
<totfact> 0.24864711E-01</totfact>
</mgrwt>
</event>
<event>
 6    1  0.1831439E-005  0.2735452E+04  0.7818608E-02  0.8323593E-01
          3   -1    0    0  501    0  0.00000000000E+00  0.00000000000E+00  0.10758942762E+04  0.10758942762E+04  0.00000000000E+00 0. -1.
         -3   -1    0    0    0  501 -0.00000000000E+00 -0.00000000000E+00 -0.17387157620E+04  0.17387157620E+04  0.00000000000E+00 0.  1.
         23    2    1    2    0    0  0.51842511653E+03 -0.13904896688E+03 -0.16244592712E+04  0.17133169588E+04  0.92129586845E+02 0.  0.
         11    1    3    3    0    0  0.48759412139E+03 -0.15224888561E+03 -0.15112388230E+04  0.15952336916E+04  0.00000000000E+00 0.  1.
        -11    1    3    3    0    0  0.30830995139E+02  0.13199918731E+02 -0.11322044815E+03  0.11808326721E+03  0.00000000000E+00 0. -1.
         22    1    1    2    0    0 -0.51842511653E+03  0.13904896688E+03  0.96163778539E+03  0.11012930795E+04  0.00000000000E+00 0. -1.
<mgrwt>
<rscale>  0 0.27354519E+04</rscale>
<asrwt>0</asrwt>
<pdfrwt beam="1">  1        3 0.16552220E+00 0.27354519E+04</pdfrwt>
<pdfrwt beam="2">  1       -3 0.26749473E+00 0.27354519E+04</pdfrwt>
<totfact> 0.32910809E-02</totfact>
</mgrwt>
</event>
<event>
 6    1  0.1831439E-005  0.1410722E+04  0.7818608E-02  0.8946094E-01
          1   -1    0    0  501    0  0.00000000000E+00  0.00000000000E+00  0.68243224752E+03  0.68243224752E+03  0.00000000000E+00 0. -1.
         -1   -1    0    0    0  501 -0.00000000000E+00 -0.00000000000E+00 -0.72905980788E+03  0.72905980788E+03  0.00000000000E+00 0.  1.
         23    2    1    2    0    0 -0.22292194567E+02 -0.30129655078E+03  0.61108816026E+03  0.68770581444E+03  0.90741358619E+02 0.  0.
         11    1    3    3    0    0 -0.52181765310E+02 -0.25081947708E+03  0.47997399431E+03  0.54406652344E+03  0.00000000000E+00 0.  1.
        -11    1    3    3    0    0  0.29889570743E+02 -0.50477073701E+02  0.13111416595E+03  0.14363929101E+03  0.00000000000E+00 0. -1.
         22    1    1    2    0    0  0.22292194567E+02  0.30129655078E+03 -0.65771572062E+03  0.72378624096E+03  0.00000000000E+00 0.  1.
<mgrwt>
<rscale>  0 0.14107217E+04</rscale>
<asrwt>0</asrwt>
<pdfrwt beam="1">  1        1 0.10498958E+00 0.14107217E+04</pdfrwt>
<pdfrwt beam="2">  1       -1 0.11216305E+00 0.14107217E+04</pdfrwt>
<totfact> 0.20109226E+01</totfact>
</mgrwt>
</event>
<event>
 6    1  0.1831439E-005  0.3808081E+04  0.7818608E-02  0.8044423E-01
          2   -1    0    0  501    0  0.00000000000E+00  0.00000000000E+00  0.21603223468E+04  0.21603223468E+04  0.00000000000E+00 0. -1.
         -2   -1    0    0    0  501 -0.00000000000E+00 -0.00000000000E+00 -0.16781615002E+04  0.16781615002E+04  0.00000000000E+00 0.  1.
         23    2    1    2    0    0 -0.95328923230E+03  0.16467910407E+04  0.26747115171E+03  0.19236019297E+04  0.89568269008E+02 0.  0.
         11    1    3    3    0    0 -0.19828880356E+03  0.29315166288E+03  0.25039795297E+02  0.35480042054E+03  0.00000000000E+00 0.  1.
        -11    1    3    3    0    0 -0.75500042874E+03  0.13536393778E+04  0.24243135641E+03  0.15688015091E+04  0.00000000000E+00 0. -1.
         22    1    1    2    0    0  0.95328923230E+03 -0.16467910407E+04  0.21468969492E+03  0.19148819173E+04  0.00000000000E+00 0. -1.
<mgrwt>
<rscale>  0 0.38080808E+04</rscale>
<asrwt>0</asrwt>
<pdfrwt beam="1">  1        2 0.33235728E+00 0.38080808E+04</pdfrwt>
<pdfrwt beam="2">  1       -2 0.25817869E+00 0.38080808E+04</pdfrwt>
<totfact> 0.24935894E-01</totfact>
</mgrwt>
</event>
<event>
 6    1  0.1831439E-005  0.3810344E+04  0.7818608E-02  0.8043939E-01
         -2   -1    0    0    0  501 -0.00000000000E+00  0.00000000000E+00  0.12179518503E+04  0.12179518503E+04  0.00000000000E+00 0.  1.
          2   -1    0    0  501    0  0.00000000000E+00 -0.00000000000E+00 -0.29801503451E+04  0.29801503451E+04  0.00000000000E+00 0. -1.
         23    2    1    2    0    0 -0.12718754791E+04  0.61692225617E+03  0.52380268237E+03  0.15103407316E+04  0.92193117606E+02 0.  0.
         13    1    3    3    0    0 -0.25177985633E+03  0.14754997516E+03  0.13988715433E+03  0.32362402131E+03  0.00000000000E+00 0.  1.
        -13    1    3    3    0    0 -0.10200956227E+04  0.46937228101E+03  0.38391552804E+03  0.11867167102E+04  0.00000000000E+00 0. -1.
         22    1    1    2    0    0  0.12718754791E+04 -0.61692225617E+03 -0.22860011772E+04  0.26877614638E+04  0.00000000000E+00 0. -1.
<mgrwt>
<rscale>  0 0.38103436E+04</rscale>
<asrwt>0</asrwt>
<pdfrwt beam="1">  1        2 0.45848467E+00 0.38103436E+04</pdfrwt>
<pdfrwt beam="2">  1       -2 0.18737721E+00 0.38103436E+04</pdfrwt>
<totfact> 0.23158998E-01</totfact>
</mgrwt>
</event>
<event>
 6    1  0.1831439E-005  0.2310195E+04  0.7818608E-02  0.8473912E-01
         -1   -1    0    0    0  501 -0.00000000000E+00  0.00000000000E+00  0.41083115809E+03  0.41083115809E+03  0.00000000000E+00 0.  1.
          1   -1    0    0  501    0  0.00000000000E+00 -0.00000000000E+00 -0.32476843288E+04  0.32476843288E+04  0.00000000000E+00 0. -1.
         23    2    1    2    0    0  0.35131992424E+03 -0.36622484002E+03  0.21949618377E+03  0.56031960876E+03  0.90736798805E+02 0.  0.
         13    1    3    3    0    0  0.99548589622E+02 -0.11617289853E+03  0.11181626571E+03  0.18949654701E+03  0.00000000000E+00 0. -1.
        -13    1    3    3    0    0  0.25177133462E+03 -0.25005194149E+03  0.10767991806E+03  0.37082306176E+03  0.00000000000E+00 0.  1.
         22    1    1    2    0    0 -0.35131992424E+03  0.36622484002E+03 -0.30563493544E+04  0.30981958781E+04  0.00000000000E+00 0. -1.
<mgrwt>
<rscale>  0 0.23101947E+04</rscale>
<asrwt>0</asrwt>
<pdfrwt beam="1">  1        1 0.49964373E+00 0.23101947E+04</pdfrwt>
<pdfrwt beam="2">  1       -1 0.63204795E-01 0.23101947E+04</pdfrwt>
<totfact> 0.89827608E-01</totfact>
</mgrwt>
</event>
<event>
 6    1  0.1831439E-005  0.3066145E+04  0.7818608E-02  0.8225091E-01
          2   -1    0    0  501    0  0.00000000000E+00  0.00000000000E+00  0.14595112259E+04  0.14595112259E+04  0.00000000000E+00 0. -1.
         -2   -1    0    0    0  501 -0.00000000000E+00 -0.00000000000E+00 -0.16103411536E+04  0.16103411536E+04  0.00000000000E+00 0.  1.
         23    2    1    2    0    0  0.11724254808E+04 -0.13949524978E+03 -0.10523742494E+04  0.15843145656E+04  0.92307361721E+02 0.  0.
         13    1    3    3    0    0  0.24085150211E+03 -0.57718888943E+02 -0.18898265923E+03  0.31153709523E+03  0.00000000000E+00 0. -1.
        -13    1    3    3    0    0  0.93157397873E+03 -0.81776360836E+02 -0.86339159017E+03  0.12727774703E+04  0.00000000000E+00 0.  1.
         22    1    1    2    0    0 -0.11724254808E+04  0.13949524978E+03  0.90154432167E+03  0.14855378140E+04  0.00000000000E+00 0. -1.
<mgrwt>
<rscale>  0 0.30661448E+04</rscale>
<asrwt>0</asrwt>
<pdfrwt beam="1">  1        2 0.22454019E+00 0.30661448E+04</pdfrwt>
<pdfrwt beam="2">  1       -2 0.24774479E+00 0.30661448E+04</pdfrwt>
<totfact> 0.75599066E-01</totfact>
</mgrwt>
</event>
<event>
 6    1  0.1831439E-005  0.1578499E+04  0.7818608E-02  0.8833867E-01
          1   -1    0    0  501    0  0.00000000000E+00  0.00000000000E+00  0.11214151787E+04  0.11214151787E+04  0.00000000000E+00 0. -1.
         -1   -1    0    0    0  501 -0.00000000000E+00 -0.00000000000E+00 -0.55547200878E+03  0.55547200878E+03  0.00000000000E+00 0.  1.
         23    2    1    2    0    0  0.15410866896E+03  0.20705715644E+03 -0.50548954073E+03  0.57480270735E+03  0.90864342329E+02 0.  0.
         11    1    3    3    0    0  0.26682487281E+02 -0.33253525507E+01 -0.64027231603E+02  0.69444218505E+02  0.00000000000E+00 0. -1.
        -11    1    3    3    0    0  0.12742618168E+03  0.21038250899E+03 -0.44146230913E+03  0.50535848885E+03  0.00000000000E+00 0.  1.
         22    1    1    2    0    0 -0.15410866896E+03 -0.20705715644E+03  0.10714327107E+04  0.11020844801E+04  0.00000000000E+00 0. -1.
<mgrwt>
<rscale>  0 0.15784990E+04</rscale>
<asrwt>0</asrwt>
<pdfrwt beam="1">  1        1 0.17252541E+00 0.15784990E+04</pdfrwt>
<pdfrwt beam="2">  1       -1 0.85457232E-01 0.15784990E+04</pdfrwt>
<totfact> 0.15894198E+01</totfact>
</mgrwt>
</event>
<event>
 6    1  0.1831439E-005  0.8405582E+03  0.7818608E-02  0.9503098E-01
          1   -1    0    0  501    0  0.00000000000E+00  0.00000000000E+00  0.55830935567E+03  0.55830935567E+03  0.00000000000E+00 0. -1.
         -1   -1    0    0    0  501 -0.00000000000E+00 -0.00000000000E+00 -0.31637391605E+03  0.31637391605E+03  0.00000000000E+00 0.  1.
         23    2    1    2    0    0 -0.38035201004E+03 -0.37367113608E+01 -0.51079384607E+02  0.39453818763E+03  0.91485864562E+02 0.  0.
         11    1    3    3    0    0 -0.17825167522E+03 -0.45390369706E+02 -0.10512654146E+02  0.18424022709E+03  0.00000000000E+00 0.  1.
        -11    1    3    3    0    0 -0.20210033482E+03  0.41653658345E+02 -0.40566730461E+02  0.21029796054E+03  0.00000000000E+00 0. -1.
         22    1    1    2    0    0  0.38035201004E+03  0.37367113608E+01  0.29301482423E+03  0.48014508408E+03  0.00000000000E+00 0. -1.
<mgrwt>
<rscale>  0 0.84055819E+03</rscale>
<asrwt>0</asrwt>
<pdfrwt beam="1">  1        1 0.85893747E-01 0.84055819E+03</pdfrwt>
<pdfrwt beam="2">  1       -1 0.48672910E-01 0.84055819E+03</pdfrwt>
<totfact> 0.16203076E+02</totfact>
</mgrwt>
</event>
<event>
 6    1  0.1831439E-005  0.1460776E+04  0.7818608E-02  0.8910964E-01
         -1   -1    0    0    0  501 -0.00000000000E+00  0.00000000000E+00  0.99862871242E+03  0.99862871242E+03  0.00000000000E+00 0.  1.
          1   -1    0    0  501    0  0.00000000000E+00 -0.00000000000E+00 -0.53419917577E+03  0.53419917577E+03  0.00000000000E+00 0. -1.
         23    2    1    2    0    0 -0.58128173661E+03  0.32564972668E+03 -0.72918958442E+02  0.67686082868E+03  0.94271974085E+02 0.  0.
         11    1    3    3    0    0 -0.25748354640E+03  0.12493447104E+03  0.12402315093E+02  0.28646154391E+03  0.00000000000E+00 0.  1.
        -11    1    3    3    0    0 -0.32379819021E+03  0.20071525563E+03 -0.85321273535E+02  0.39039928476E+03  0.00000000000E+00 0. -1.
         22    1    1    2    0    0  0.58128173661E+03 -0.32564972668E+03  0.53734849509E+03  0.85596705952E+03  0.00000000000E+00 0.  1.
<mgrwt>
<rscale>  0 0.14607760E+04</rscale>
<asrwt>0</asrwt>
<pdfrwt beam="1">  1        1 0.82184489E-01 0.14607760E+04</pdfrwt>
<pdfrwt beam="2">  1       -1 0.15363519E+00 0.14607760E+04</pdfrwt>
<totfact> 0.12823724E+01</totfact>
</mgrwt>
</event>
<event>
 6    1  0.1831439E-005  0.3018271E+04  0.7818608E-02  0.8238533E-01
         -2   -1    0    0    0  501 -0.00000000000E+00  0.00000000000E+00  0.69624706955E+03  0.69624706955E+03  0.00000000000E+00 0.  1.
          2   -1    0    0  501    0  0.00000000000E+00 -0.00000000000E+00 -0.32710945314E+04  0.32710945314E+04  0.00000000000E+00 0. -1.
         23    2    1    2    0    0  0.16702711267E+03 -0.91180113805E+03  0.27448623537E+03  0.97101353316E+03  0.90803174208E+02 0.  0.
         13    1    3    3    0    0  0.74170123486E+02 -0.31896861735E+03  0.54964116774E+02  0.33205909144E+03  0.00000000000E+00 0. -1.
        -13    1    3    3    0    0  0.92856989181E+02 -0.59283252070E+03  0.21952211860E+03  0.63895444172E+03  0.00000000000E+00 0.  1.
         22    1    1    2    0    0 -0.16702711267E+03  0.91180113805E+03 -0.28493336973E+04  0.29963280678E+04  0.00000000000E+00 0. -1.
<mgrwt>
<rscale>  0 0.30182710E+04</rscale>
<asrwt>0</asrwt>
<pdfrwt beam="1">  1        2 0.50324532E+00 0.30182710E+04</pdfrwt>
<pdfrwt beam="2">  1       -2 0.10711493E+00 0.30182710E+04</pdfrwt>
<totfact> 0.69669688E-01</totfact>
</mgrwt>
</event>
<event>
 6    1  0.1831439E-005  0.8080723E+04  0.7818608E-02  0.7475209E-01
         -2   -1    0    0    0  501 -0.00000000000E+00  0.00000000000E+00  0.55689052767E+04  0.55689052767E+04  0.00000000000E+00 0.  1.
          2   -1    0    0  501    0  0.00000000000E+00 -0.00000000000E+00 -0.29313700319E+04  0.29313700319E+04  0.00000000000E+00 0. -1.
         23    2    1    2    0    0 -0.29187148023E+04  0.17621363498E+04 -0.96070396515E+03  0.35433260426E+04  0.90480510414E+02 0.  0.
         11    1    3    3    0    0 -0.25923044455E+04  0.15886246172E+04 -0.87680614578E+03  0.31642628731E+04  0.00000000000E+00 0.  1.
        -11    1    3    3    0    0 -0.32641035681E+03  0.17351173259E+03 -0.83897819364E+02  0.37906316950E+03  0.00000000000E+00 0. -1.
         22    1    1    2    0    0  0.29187148023E+04 -0.17621363498E+04  0.35982392099E+04  0.49569492659E+04  0.00000000000E+00 0.  1.
<mgrwt>
<rscale>  0 0.80807232E+04</rscale>
<asrwt>0</asrwt>
<pdfrwt beam="1">  1        2 0.45098001E+00 0.80807232E+04</pdfrwt>
<pdfrwt beam="2">  1       -2 0.85675465E+00 0.80807232E+04</pdfrwt>
<totfact> 0.31146536E-05</totfact>
</mgrwt>
</event>
<event>
 6    1  0.1831439E-005  0.2438389E+04  0.7818608E-02  0.8425269E-01
          2   -1    0    0  501    0  0.00000000000E+00  0.00000000000E+00  0.38131853698E+04  0.38131853698E+04  0.00000000000E+00 0.  1.
         -2   -1    0    0    0  501 -0.00000000000E+00 -0.00000000000E+00 -0.38981466092E+03  0.38981466092E+03  0.00000000000E+00 0. -1.
         23    2    1    2    0    0 -0.70399268651E+03  0.39994895565E+03  0.14707778321E+03  0.82814296640E+03  0.92865648680E+02 0.  0.
         13    1    3    3    0    0 -0.40198918519E+03  0.28027687476E+03  0.93996039716E+02  0.49898465609E+03  0.00000000000E+00 0.  1.
        -13    1    3    3    0    0 -0.30200350132E+03  0.11967208089E+03  0.53081743496E+02  0.32915831031E+03  0.00000000000E+00 0. -1.
         22    1    1    2    0    0  0.70399268651E+03 -0.39994895565E+03  0.32762929256E+04  0.33748570643E+04  0.00000000000E+00 0.  1.
<mgrwt>
<rscale>  0 0.24383893E+04</rscale>
<asrwt>0</asrwt>
<pdfrwt beam="1">  1        2 0.58664388E+00 0.24383893E+04</pdfrwt>
<pdfrwt beam="2">  1       -2 0.59971489E-01 0.24383893E+04</pdfrwt>
<totfact> 0.11187028E+00</totfact>
</mgrwt>
</event>
<event>
 6    1  0.2878861E-005  0.3095155E+04  0.7818608E-02  0.8217069E-01
         -1   -1    0    0    0  501 -0.00000000000E+00  0.00000000000E+00  0.19410743729E+04  0.19410743729E+04  0.00000000000E+00 0.  1.
          1   -1    0    0  501    0  0.00000000000E+00 -0.00000000000E+00 -0.12338505797E+04  0.12338505797E+04  0.00000000000E+00 0. -1.
         23    2    1    2    0    0 -0.13926796630E+04  0.22185489043E+03 -0.29761921485E+03  0.14433113389E+04  0.76119563359E+02 0.  0.
         11    1    3    3    0    0 -0.36231693764E+03  0.57591379705E+02 -0.43488568145E+02  0.36943414281E+03  0.00000000000E+00 0.  1.
        -11    1    3    3    0    0 -0.10303627253E+04  0.16426351073E+03 -0.25413064671E+03  0.10738771961E+04  0.00000000000E+00 0. -1.
         22    1    1    2    0    0  0.13926796630E+04 -0.22185489043E+03  0.10048430080E+04  0.17316136136E+04  0.00000000000E+00 0.  1.
<mgrwt>
<rscale>  0 0.30951548E+04</rscale>
<asrwt>0</asrwt>
<pdfrwt beam="1">  1        1 0.18982317E+00 0.30951548E+04</pdfrwt>
<pdfrwt beam="2">  1       -1 0.29862683E+00 0.30951548E+04</pdfrwt>
<totfact> 0.28723598E-01</totfact>
</mgrwt>
</event>
<event>
 6    1  0.1831439E-005  0.1777172E+04  0.7818608E-02  0.8718534E-01
          1   -1    0    0  501    0  0.00000000000E+00  0.00000000000E+00  0.11438908203E+04  0.11438908203E+04  0.00000000000E+00 0. -1.
         -1   -1    0    0    0  501 -0.00000000000E+00 -0.00000000000E+00 -0.69026241846E+03  0.69026241846E+03  0.00000000000E+00 0.  1.
         23    2    1    2    0    0  0.38024617772E+03  0.73087297158E+03  0.56353173311E+03  0.10029846647E+04  0.98223048013E+02 0.  0.
         13    1    3    3    0    0  0.33071900621E+02  0.97694541609E+02  0.10724593704E+03  0.14879403578E+03  0.00000000000E+00 0. -1.
        -13    1    3    3    0    0  0.34717427710E+03  0.63317842997E+03  0.45628579607E+03  0.85419062893E+03  0.00000000000E+00 0.  1.
         22    1    1    2    0    0 -0.38024617772E+03 -0.73087297158E+03 -0.10990333128E+03  0.83116857405E+03  0.00000000000E+00 0.  1.
<mgrwt>
<rscale>  0 0.17771717E+04</rscale>
<asrwt>0</asrwt>
<pdfrwt beam="1">  1        1 0.17598320E+00 0.17771717E+04</pdfrwt>
<pdfrwt beam="2">  1       -1 0.10619422E+00 0.17771717E+04</pdfrwt>
<totfact> 0.92158487E+00</totfact>
</mgrwt>
</event>
<event>
 6    1  0.1831439E-005  0.8496117E+03  0.7818608E-02  0.9490858E-01
         -2   -1    0    0    0  501 -0.00000000000E+00  0.00000000000E+00  0.21307544291E+03  0.21307544291E+03  0.00000000000E+00 0. -1.
          2   -1    0    0  501    0  0.00000000000E+00 -0.00000000000E+00 -0.84693011773E+03  0.84693011773E+03  0.00000000000E+00 0.  1.
         23    2    1    2    0    0 -0.82276018116E+02  0.17507065858E+03 -0.78538385893E+03  0.81428178830E+03  0.93850659211E+02 0.  0.
         11    1    3    3    0    0 -0.16666030038E+02  0.68896213129E+01 -0.16346142256E+02  0.24339675546E+02  0.00000000000E+00 0.  1.
        -11    1    3    3    0    0 -0.65609988078E+02  0.16818103727E+03 -0.76903771668E+03  0.78994211275E+03  0.00000000000E+00 0. -1.
         22    1    1    2    0    0  0.82276018116E+02 -0.17507065858E+03  0.15152918412E+03  0.24572377234E+03  0.00000000000E+00 0. -1.
<mgrwt>
<rscale>  0 0.84961170E+03</rscale>
<asrwt>0</asrwt>
<pdfrwt beam="1">  1        2 0.13029694E+00 0.84961170E+03</pdfrwt>
<pdfrwt beam="2">  1       -2 0.32780837E-01 0.84961170E+03</pdfrwt>
<totfact> 0.27772453E+02</totfact>
</mgrwt>
</event>
<event>
 6    1  0.1831439E-005  0.6941384E+04  0.7818608E-02  0.7583511E-01
          1   -1    0    0  501    0  0.00000000000E+00  0.00000000000E+00  0.28144657985E+04  0.28144657985E+04  0.00000000000E+00 0. -1.
         -1   -1    0    0    0  501 -0.00000000000E+00 -0.00000000000E+00 -0.42799248035E+04  0.42799248035E+04  0.00000000000E+00 0.  1.
         23    2    1    2    0    0 -0.22657263685E+04  0.24840968863E+04  0.14435697323E+03  0.33666887897E+04  0.97473858863E+02 0.  0.
         13    1    3    3    0    0 -0.15960950081E+04  0.17671358696E+04  0.59405166841E+02  0.23819776302E+04  0.00000000000E+00 0. -1.
        -13    1    3    3    0    0 -0.66963136039E+03  0.71696101665E+03  0.84951806393E+02  0.98471115950E+03  0.00000000000E+00 0.  1.
         22    1    1    2    0    0  0.22657263685E+04 -0.24840968863E+04 -0.16098159782E+04  0.37277018123E+04  0.00000000000E+00 0.  1.
<mgrwt>
<rscale>  0 0.69413837E+04</rscale>
<asrwt>0</asrwt>
<pdfrwt beam="1">  1        1 0.43299474E+00 0.69413837E+04</pdfrwt>
<pdfrwt beam="2">  1       -1 0.65844997E+00 0.69413837E+04</pdfrwt>
<totfact> 0.14327959E-04</totfact>
</mgrwt>
</event>
<event>
 6    1  0.1831439E-005  0.1262745E+04  0.7818608E-02  0.9059642E-01
         -1   -1    0    0    0  501 -0.00000000000E+00  0.00000000000E+00  0.31185228474E+03  0.31185228474E+03  0.00000000000E+00 0.  1.
          1   -1    0    0  501    0  0.00000000000E+00 -0.00000000000E+00 -0.12782697553E+04  0.12782697553E+04  0.00000000000E+00 0. -1.
         23    2    1    2    0    0 -0.10546278061E+03 -0.72338497231E+02 -0.12600355323E+04  0.12698614861E+04  0.92213855648E+02 0.  0.
         13    1    3    3    0    0 -0.11732267862E+03 -0.81108390878E+02 -0.11177002246E+04  0.11267639390E+04  0.00000000000E+00 0.  1.
        -13    1    3    3    0    0  0.11859898009E+02  0.87698936474E+01 -0.14233530761E+03  0.14309754717E+03  0.00000000000E+00 0. -1.
         22    1    1    2    0    0  0.10546278061E+03  0.72338497231E+02  0.29361806166E+03  0.32026055394E+03  0.00000000000E+00 0.  1.
<mgrwt>
<rscale>  0 0.12627452E+04</rscale>
<asrwt>0</asrwt>
<pdfrwt beam="1">  1        1 0.19665689E+00 0.12627452E+04</pdfrwt>
<pdfrwt beam="2">  1       -1 0.47977273E-01 0.12627452E+04</pdfrwt>
<totfact> 0.40093672E+01</totfact>
</mgrwt>
</event>
<event>
 6    1  0.1831439E-005  0.2174519E+04  0.7818608E-02  0.8529109E-01
         -2   -1    0    0    0  501 -0.00000000000E+00  0.00000000000E+00  0.39045708889E+03  0.39045708889E+03  0.00000000000E+00 0.  1.
          2   -1    0    0  501    0  0.00000000000E+00 -0.00000000000E+00 -0.30275635996E+04  0.30275635996E+04  0.00000000000E+00 0. -1.
         23    2    1    2    0    0 -0.66612853178E+03 -0.82665794989E+03 -0.16753690507E+04  0.19855300152E+04  0.91528128611E+02 0.  0.
         11    1    3    3    0    0 -0.16479627229E+03 -0.25724396582E+03 -0.52827785283E+03  0.61025384808E+03  0.00000000000E+00 0. -1.
        -11    1    3    3    0    0 -0.50133225949E+03 -0.56941398407E+03 -0.11470911979E+04  0.13752761671E+04  0.00000000000E+00 0.  1.
         22    1    1    2    0    0  0.66612853178E+03  0.82665794989E+03 -0.96173745998E+03  0.14324906732E+04  0.00000000000E+00 0.  1.
<mgrwt>
<rscale>  0 0.21745194E+04</rscale>
<asrwt>0</asrwt>
<pdfrwt beam="1">  1        2 0.46577900E+00 0.21745194E+04</pdfrwt>
<pdfrwt beam="2">  1       -2 0.60070323E-01 0.21745194E+04</pdfrwt>
<totfact> 0.39648228E+00</totfact>
</mgrwt>
</event>
<event>
 6    1  0.1831439E-005  0.1128283E+04  0.7818608E-02  0.9178056E-01
         -1   -1    0    0    0  501 -0.00000000000E+00  0.00000000000E+00  0.47278328990E+03  0.47278328990E+03  0.00000000000E+00 0.  1.
          1   -1    0    0  501    0  0.00000000000E+00 -0.00000000000E+00 -0.67315273972E+03  0.67315273972E+03  0.00000000000E+00 0. -1.
         23    2    1    2    0    0 -0.49730314824E+03  0.49911814045E+01  0.16150249449E+03  0.53088592011E+03  0.91768574665E+02 0.  0.
         11    1    3    3    0    0 -0.34062140080E+03 -0.39032638377E+02  0.10400008575E+03  0.35827713209E+03  0.00000000000E+00 0. -1.
        -11    1    3    3    0    0 -0.15668174744E+03  0.44023819781E+02  0.57502408738E+02  0.17260878801E+03  0.00000000000E+00 0.  1.
         22    1    1    2    0    0  0.49730314824E+03 -0.49911814045E+01 -0.36187194431E+03  0.61505010952E+03  0.00000000000E+00 0.  1.
<mgrwt>
<rscale>  0 0.11282825E+04</rscale>
<asrwt>0</asrwt>
<pdfrwt beam="1">  1        1 0.10356196E+00 0.11282825E+04</pdfrwt>
<pdfrwt beam="2">  1       -1 0.72735891E-01 0.11282825E+04</pdfrwt>
<totfact> 0.54819864E+01</totfact>
</mgrwt>
</event>
<event>
 6    1  0.1831439E-005  0.1706259E+04  0.7818608E-02  0.8757803E-01
         -2   -1    0    0    0  501 -0.00000000000E+00  0.00000000000E+00  0.90769397696E+03  0.90769397696E+03  0.00000000000E+00 0. -1.
          2   -1    0    0  501    0  0.00000000000E+00 -0.00000000000E+00 -0.80184502297E+03  0.80184502297E+03  0.00000000000E+00 0.  1.
         23    2    1    2    0    0  0.77558907444E+03 -0.25158145482E+03  0.29592491880E+03  0.87230515375E+03  0.92266369224E+02 0.  0.
         11    1    3    3    0    0  0.51427288839E+03 -0.13518989202E+03  0.15797478582E+03  0.55471519142E+03  0.00000000000E+00 0.  1.
        -11    1    3    3    0    0  0.26131618605E+03 -0.11639156280E+03  0.13795013298E+03  0.31758996233E+03  0.00000000000E+00 0. -1.
         22    1    1    2    0    0 -0.77558907444E+03  0.25158145482E+03 -0.19007596481E+03  0.83723384618E+03  0.00000000000E+00 0.  1.
<mgrwt>
<rscale>  0 0.17062589E+04</rscale>
<asrwt>0</asrwt>
<pdfrwt beam="1">  1        2 0.12336077E+00 0.17062589E+04</pdfrwt>
<pdfrwt beam="2">  1       -2 0.13964523E+00 0.17062589E+04</pdfrwt>
<totfact> 0.11804582E+01</totfact>
</mgrwt>
</event>
<event>
 6    1  0.1956725E-005  0.1589851E+04  0.7818608E-02  0.8826807E-01
         -1   -1    0    0    0  501 -0.00000000000E+00  0.00000000000E+00  0.29525719754E+03  0.29525719754E+03  0.00000000000E+00 0.  1.
          1   -1    0    0  501    0  0.00000000000E+00 -0.00000000000E+00 -0.21401897404E+04  0.21401897404E+04  0.00000000000E+00 0. -1.
         23    2    1    2    0    0  0.23326580613E+03 -0.45217913757E+03  0.48005911639E+01  0.51701226981E+03  0.91650055620E+02 0.  0.
         11    1    3    3    0    0  0.12818703267E+03 -0.31368596704E+03  0.34612845599E+02  0.34063007844E+03  0.00000000000E+00 0. -1.
        -11    1    3    3    0    0  0.10507877346E+03 -0.13849317053E+03 -0.29812254435E+02  0.17638219136E+03  0.00000000000E+00 0.  1.
         22    1    1    2    0    0 -0.23326580613E+03  0.45217913757E+03 -0.18497331340E+04  0.19184346681E+04  0.00000000000E+00 0. -1.
<mgrwt>
<rscale>  0 0.15898508E+04</rscale>
<asrwt>0</asrwt>
<pdfrwt beam="1">  1        1 0.32925997E+00 0.15898508E+04</pdfrwt>
<pdfrwt beam="2">  1       -1 0.45424184E-01 0.15898508E+04</pdfrwt>
<totfact> 0.11066997E+01</totfact>
</mgrwt>
</event>
<event>
 6    1  0.1831439E-005  0.9510147E+03  0.7818608E-02  0.9363965E-01
         -2   -1    0    0    0  501 -0.00000000000E+00  0.00000000000E+00  0.14623636258E+03  0.14623636258E+03  0.00000000000E+00 0.  1.
          2   -1    0    0  501    0  0.00000000000E+00 -0.00000000000E+00 -0.15461766641E+04  0.15461766641E+04  0.00000000000E+00 0. -1.
         23    2    1    2    0    0 -0.37640584199E+03 -0.25218834845E+03 -0.93599691996E+03  0.10439349759E+04  0.91813282396E+02 0.  0.
         11    1    3    3    0    0 -0.24843642783E+03 -0.18034358403E+03 -0.53355624782E+03  0.61557025315E+03  0.00000000000E+00 0. -1.
        -11    1    3    3    0    0 -0.12796941417E+03 -0.71844764423E+02 -0.40244067214E+03  0.42836472279E+03  0.00000000000E+00 0.  1.
         22    1    1    2    0    0  0.37640584199E+03  0.25218834845E+03 -0.46394338152E+03  0.64847805070E+03  0.00000000000E+00 0.  1.
<mgrwt>
<rscale>  0 0.95101472E+03</rscale>
<asrwt>0</asrwt>
<pdfrwt beam="1">  1        2 0.23787334E+00 0.95101472E+03</pdfrwt>
<pdfrwt beam="2">  1       -2 0.22497902E-01 0.95101472E+03</pdfrwt>
<totfact> 0.20748084E+02</totfact>
</mgrwt>
</event>
<event>
 6    1  0.1831439E-005  0.9819834E+03  0.7818608E-02  0.9328529E-01
          3   -1    0    0  501    0  0.00000000000E+00  0.00000000000E+00  0.71145499660E+03  0.71145499660E+03  0.00000000000E+00 0. -1.
         -3   -1    0    0    0  501 -0.00000000000E+00 -0.00000000000E+00 -0.33884482050E+03  0.33884482050E+03  0.00000000000E+00 0.  1.
         23    2    1    2    0    0 -0.32914760913E+03  0.25968872703E+03  0.45267109882E+03  0.62346713923E+03  0.89575479077E+02 0.  0.
         13    1    3    3    0    0 -0.24215997008E+03  0.17514977946E+03  0.37461140162E+03  0.47922082445E+03  0.00000000000E+00 0. -1.
        -13    1    3    3    0    0 -0.86987639049E+02  0.84538947565E+02  0.78059697195E+02  0.14424631478E+03  0.00000000000E+00 0.  1.
         22    1    1    2    0    0  0.32914760913E+03 -0.25968872703E+03 -0.80060922725E+02  0.42683267786E+03  0.00000000000E+00 0.  1.
<mgrwt>
<rscale>  0 0.98198338E+03</rscale>
<asrwt>0</asrwt>
<pdfrwt beam="1">  1        3 0.10945461E+00 0.98198338E+03</pdfrwt>
<pdfrwt beam="2">  1       -3 0.52129973E-01 0.98198338E+03</pdfrwt>
<totfact> 0.67395101E+00</totfact>
</mgrwt>
</event>
<event>
 6    1  0.1831439E-005  0.1256566E+04  0.7818608E-02  0.9064736E-01
          1   -1    0    0  501    0  0.00000000000E+00  0.00000000000E+00  0.53896240149E+03  0.53896240149E+03  0.00000000000E+00 0. -1.
         -1   -1    0    0    0  501 -0.00000000000E+00 -0.00000000000E+00 -0.73240671468E+03  0.73240671468E+03  0.00000000000E+00 0.  1.
         23    2    1    2    0    0 -0.35931519853E+03  0.30893087025E+03 -0.50949916065E+03  0.70177596216E+03  0.91402471976E+02 0.  0.
         13    1    3    3    0    0 -0.11765115473E+03  0.10344509500E+03 -0.23414893492E+03  0.28172398835E+03  0.00000000000E+00 0.  1.
        -13    1    3    3    0    0 -0.24166404380E+03  0.20548577525E+03 -0.27535022573E+03  0.42005197381E+03  0.00000000000E+00 0. -1.
         22    1    1    2    0    0  0.35931519853E+03 -0.30893087025E+03  0.31605484746E+03  0.56959315400E+03  0.00000000000E+00 0. -1.
<mgrwt>
<rscale>  0 0.12565662E+04</rscale>
<asrwt>0</asrwt>
<pdfrwt beam="1">  1        1 0.82917293E-01 0.12565662E+04</pdfrwt>
<pdfrwt beam="2">  1       -1 0.11267796E+00 0.12565662E+04</pdfrwt>
<totfact> 0.28372113E+01</totfact>
</mgrwt>
</event>
<event>
 6    1  0.1831439E-005  0.3422987E+04  0.7818608E-02  0.8132288E-01
          2   -1    0    0  501    0  0.00000000000E+00  0.00000000000E+00  0.12068347804E+04  0.12068347804E+04  0.00000000000E+00 0. -1.
         -2   -1    0    0    0  501 -0.00000000000E+00 -0.00000000000E+00 -0.24271833832E+04  0.24271833832E+04  0.00000000000E+00 0.  1.
         23    2    1    2    0    0  0.65640501296E+03  0.83145301486E+02  0.10637071440E+04  0.12560586734E+04  0.91814055356E+02 0.  0.
         13    1    3    3    0    0  0.46567586827E+03  0.17435529224E+02  0.75817675811E+03  0.88993820488E+03  0.00000000000E+00 0.  1.
        -13    1    3    3    0    0  0.19072914469E+03  0.65709772261E+02  0.30553038585E+03  0.36612046854E+03  0.00000000000E+00 0. -1.
         22    1    1    2    0    0 -0.65640501296E+03 -0.83145301486E+02 -0.22840557468E+04  0.23779594902E+04  0.00000000000E+00 0.  1.
<mgrwt>
<rscale>  0 0.34229866E+04</rscale>
<asrwt>0</asrwt>
<pdfrwt beam="1">  1        2 0.18566689E+00 0.34229866E+04</pdfrwt>
<pdfrwt beam="2">  1       -2 0.37341283E+00 0.34229866E+04</pdfrwt>
<totfact> 0.17116805E-01</totfact>
</mgrwt>
</event>
<event>
 6    1  0.1831439E-005  0.1219861E+04  0.7818608E-02  0.9095648E-01
         -2   -1    0    0    0  501 -0.00000000000E+00  0.00000000000E+00  0.11592911610E+04  0.11592911610E+04  0.00000000000E+00 0.  1.
          2   -1    0    0  501    0  0.00000000000E+00 -0.00000000000E+00 -0.32089867065E+03  0.32089867065E+03  0.00000000000E+00 0. -1.
         23    2    1    2    0    0  0.59071890179E+03  0.84773672216E+02  0.29798692913E+03  0.67509755930E+03  0.10404378022E+03 0.  0.
         13    1    3    3    0    0  0.17755603034E+03  0.61803877463E+02  0.12960809260E+03  0.22835087223E+03  0.00000000000E+00 0. -1.
        -13    1    3    3    0    0  0.41316287145E+03  0.22969794752E+02  0.16837883653E+03  0.44674668707E+03  0.00000000000E+00 0.  1.
         22    1    1    2    0    0 -0.59071890179E+03 -0.84773672216E+02  0.54040556126E+03  0.80509227240E+03  0.00000000000E+00 0.  1.
<mgrwt>
<rscale>  0 0.12198606E+04</rscale>
<asrwt>0</asrwt>
<pdfrwt beam="1">  1        2 0.49369027E-01 0.12198606E+04</pdfrwt>
<pdfrwt beam="2">  1       -2 0.17835248E+00 0.12198606E+04</pdfrwt>
<totfact> 0.18661179E+01</totfact>
</mgrwt>
</event>
<event>
 6    1  0.1831439E-005  0.2511743E+04  0.7818608E-02  0.8398814E-01
         -2   -1    0    0    0  501 -0.00000000000E+00  0.00000000000E+00  0.66153359153E+03  0.66153359153E+03  0.00000000000E+00 0. -1.
          2   -1    0    0  501    0  0.00000000000E+00 -0.00000000000E+00 -0.23841765343E+04  0.23841765343E+04  0.00000000000E+00 0.  1.
         23    2    1    2    0    0 -0.41223438658E+03 -0.82839144045E+03  0.16414792218E+03  0.94424650821E+03  0.92126868059E+02 0.  0.
         13    1    3    3    0    0 -0.20314290805E+03 -0.47672195362E+03  0.57072613420E+02  0.52133304648E+03  0.00000000000E+00 0. -1.
        -13    1    3    3    0    0 -0.20909147854E+03 -0.35166948683E+03  0.10707530876E+03  0.42291346173E+03  0.00000000000E+00 0.  1.
         22    1    1    2    0    0  0.41223438658E+03  0.82839144045E+03 -0.18867908649E+04  0.21014636176E+04  0.00000000000E+00 0.  1.
<mgrwt>
<rscale>  0 0.25117427E+04</rscale>
<asrwt>0</asrwt>
<pdfrwt beam="1">  1        2 0.36679639E+00 0.25117427E+04</pdfrwt>
<pdfrwt beam="2">  1       -2 0.10177440E+00 0.25117427E+04</pdfrwt>
<totfact> 0.28645747E+00</totfact>
</mgrwt>
</event>
<event>
 6    1  0.1831439E-005  0.1563124E+04  0.7818608E-02  0.8843528E-01
          2   -1    0    0  501    0  0.00000000000E+00  0.00000000000E+00  0.40153111483E+03  0.40153111483E+03  0.00000000000E+00 0. -1.
         -2   -1    0    0    0  501 -0.00000000000E+00 -0.00000000000E+00 -0.15212755144E+04  0.15212755144E+04  0.00000000000E+00 0.  1.
         23    2    1    2    0    0 -0.29632318785E+03  0.52463619850E+03  0.45463412843E+02  0.61102927825E+03  0.90770504815E+02 0.  0.
         13    1    3    3    0    0 -0.20805274023E+03  0.27787149802E+03  0.19670280123E+02  0.34768582377E+03  0.00000000000E+00 0.  1.
        -13    1    3    3    0    0 -0.88270447618E+02  0.24676470047E+03  0.25793132720E+02  0.26334345448E+03  0.00000000000E+00 0. -1.
         22    1    1    2    0    0  0.29632318785E+03 -0.52463619850E+03 -0.11652078125E+04  0.13117773510E+04  0.00000000000E+00 0.  1.
<mgrwt>
<rscale>  0 0.15631244E+04</rscale>
<asrwt>0</asrwt>
<pdfrwt beam="1">  1        2 0.61774019E-01 0.15631244E+04</pdfrwt>
<pdfrwt beam="2">  1       -2 0.23404238E+00 0.15631244E+04</pdfrwt>
<totfact> 0.61403947E+00</totfact>
</mgrwt>
</event>
<event>
 6    1  0.1831439E-005  0.7879409E+03  0.7818608E-02  0.9577638E-01
          2   -1    0    0  501    0  0.00000000000E+00  0.00000000000E+00  0.45354868130E+03  0.45354868130E+03  0.00000000000E+00 0.  1.
         -2   -1    0    0    0  501 -0.00000000000E+00 -0.00000000000E+00 -0.34221839859E+03  0.34221839859E+03  0.00000000000E+00 0. -1.
         23    2    1    2    0    0 -0.15587478664E+03 -0.10278378929E+03  0.40069690267E+03  0.45139156217E+03  0.91295553782E+02 0.  0.
         11    1    3    3    0    0 -0.13944697911E+03 -0.43152271460E+02  0.28375174104E+03  0.31909658265E+03  0.00000000000E+00 0. -1.
        -11    1    3    3    0    0 -0.16427807536E+02 -0.59631517828E+02  0.11694516163E+03  0.13229497953E+03  0.00000000000E+00 0.  1.
         22    1    1    2    0    0  0.15587478664E+03  0.10278378929E+03 -0.28936661996E+03  0.34437551772E+03  0.00000000000E+00 0. -1.
<mgrwt>
<rscale>  0 0.78794087E+03</rscale>
<asrwt>0</asrwt>
<pdfrwt beam="1">  1        2 0.69776720E-01 0.78794087E+03</pdfrwt>
<pdfrwt beam="2">  1       -2 0.52648985E-01 0.78794087E+03</pdfrwt>
<totfact> 0.23638510E+02</totfact>
</mgrwt>
</event>
<event>
 6    1  0.1831439E-005  0.2555002E+04  0.7818608E-02  0.8383649E-01
         -1   -1    0    0    0  501 -0.00000000000E+00  0.00000000000E+00  0.79355890158E+03  0.79355890158E+03  0.00000000000E+00 0.  1.
          1   -1    0    0  501    0  0.00000000000E+00 -0.00000000000E+00 -0.20565698543E+04  0.20565698543E+04  0.00000000000E+00 0. -1.
         23    2    1    2    0    0 -0.70586464945E+03  0.57618263872E+02  0.55161848481E+03  0.90219529622E+03  0.90047943083E+02 0.  0.
         13    1    3    3    0    0 -0.75264200603E+02 -0.18873644461E+02  0.76317541492E+02  0.10883603028E+03  0.00000000000E+00 0.  1.
        -13    1    3    3    0    0 -0.63060044885E+03  0.76491908333E+02  0.47530094332E+03  0.79335926594E+03  0.00000000000E+00 0. -1.
         22    1    1    2    0    0  0.70586464945E+03 -0.57618263872E+02 -0.18146294375E+04  0.19479334597E+04  0.00000000000E+00 0. -1.
<mgrwt>
<rscale>  0 0.25550024E+04</rscale>
<asrwt>0</asrwt>
<pdfrwt beam="1">  1        1 0.31639535E+00 0.25550024E+04</pdfrwt>
<pdfrwt beam="2">  1       -1 0.12208599E+00 0.25550024E+04</pdfrwt>
<totfact> 0.14307839E+00</totfact>
</mgrwt>
</event>
<event>
 6    1  0.1831439E-005  0.4713714E+04  0.7818608E-02  0.7874254E-01
          2   -1    0    0  501    0  0.00000000000E+00  0.00000000000E+00  0.30985966191E+04  0.30985966191E+04  0.00000000000E+00 0. -1.
         -2   -1    0    0    0  501 -0.00000000000E+00 -0.00000000000E+00 -0.17926744910E+04  0.17926744910E+04  0.00000000000E+00 0.  1.
         23    2    1    2    0    0  0.94726059890E+03 -0.20563459827E+04 -0.23194380380E+02  0.22659307253E+04  0.89680710416E+02 0.  0.
         11    1    3    3    0    0  0.46155684254E+03 -0.94074274261E+03  0.25920838651E+02  0.10481905917E+04  0.00000000000E+00 0.  1.
        -11    1    3    3    0    0  0.48570375636E+03 -0.11156032401E+04 -0.49115219030E+02  0.12177401336E+04  0.00000000000E+00 0. -1.
         22    1    1    2    0    0 -0.94726059890E+03  0.20563459827E+04  0.13291165085E+04  0.26253403848E+04  0.00000000000E+00 0. -1.
<mgrwt>
<rscale>  0 0.47137141E+04</rscale>
<asrwt>0</asrwt>
<pdfrwt beam="1">  1        2 0.47670717E+00 0.47137141E+04</pdfrwt>
<pdfrwt beam="2">  1       -2 0.27579607E+00 0.47137141E+04</pdfrwt>
<totfact> 0.50135648E-02</totfact>
</mgrwt>
</event>
<event>
 6    1  0.1831439E-005  0.2116424E+04  0.7818608E-02  0.8554043E-01
          2   -1    0    0  501    0  0.00000000000E+00  0.00000000000E+00  0.15299514366E+04  0.15299514366E+04  0.00000000000E+00 0. -1.
         -2   -1    0    0    0  501 -0.00000000000E+00 -0.00000000000E+00 -0.73192723868E+03  0.73192723868E+03  0.00000000000E+00 0.  1.
         23    2    1    2    0    0  0.10267448349E+03 -0.58888137746E+03  0.13303470766E+04  0.14614469333E+04  0.93169030591E+02 0.  0.
         11    1    3    3    0    0  0.41695044185E+02 -0.15676969919E+03  0.27262276097E+03  0.31723553568E+03  0.00000000000E+00 0.  1.
        -11    1    3    3    0    0  0.60979439305E+02 -0.43211167827E+03  0.10577243156E+04  0.11442113976E+04  0.00000000000E+00 0. -1.
         22    1    1    2    0    0 -0.10267448349E+03  0.58888137746E+03 -0.53232287875E+03  0.80043174195E+03  0.00000000000E+00 0.  1.
<mgrwt>
<rscale>  0 0.21164245E+04</rscale>
<asrwt>0</asrwt>
<pdfrwt beam="1">  1        2 0.23537714E+00 0.21164245E+04</pdfrwt>
<pdfrwt beam="2">  1       -2 0.11260419E+00 0.21164245E+04</pdfrwt>
<totfact> 0.69756168E+00</totfact>
</mgrwt>
</event>
<event>
 6    1  0.1831439E-005  0.7903550E+03  0.7818608E-02  0.9574084E-01
          1   -1    0    0  501    0  0.00000000000E+00  0.00000000000E+00  0.61775690999E+03  0.61775690999E+03  0.00000000000E+00 0. -1.
         -1   -1    0    0    0  501 -0.00000000000E+00 -0.00000000000E+00 -0.25279404384E+03  0.25279404384E+03  0.00000000000E+00 0.  1.
         23    2    1    2    0    0 -0.31557256719E+03  0.78398092199E+02 -0.52452418402E+02  0.34143109426E+03  0.89953487493E+02 0.  0.
         11    1    3    3    0    0 -0.34138356853E+02 -0.12357554828E+02  0.13008989525E+02  0.38566441091E+02  0.00000000000E+00 0. -1.
        -11    1    3    3    0    0 -0.28143421033E+03  0.90755647026E+02 -0.65461407927E+02  0.30286465317E+03  0.00000000000E+00 0.  1.
         22    1    1    2    0    0  0.31557256719E+03 -0.78398092199E+02  0.41741528455E+03  0.52911985957E+03  0.00000000000E+00 0. -1.
<mgrwt>
<rscale>  0 0.79035503E+03</rscale>
<asrwt>0</asrwt>
<pdfrwt beam="1">  1        1 0.95039524E-01 0.79035503E+03</pdfrwt>
<pdfrwt beam="2">  1       -1 0.38891391E-01 0.79035503E+03</pdfrwt>
<totfact> 0.21275525E+02</totfact>
</mgrwt>
</event>
<event>
 6    1  0.1831439E-005  0.4091230E+04  0.7818608E-02  0.7986391E-01
          1   -1    0    0  501    0  0.00000000000E+00  0.00000000000E+00  0.30972697061E+04  0.30972697061E+04  0.00000000000E+00 0. -1.
         -1   -1    0    0    0  501 -0.00000000000E+00 -0.00000000000E+00 -0.13510420082E+04  0.13510420082E+04  0.00000000000E+00 0.  1.
         23    2    1    2    0    0 -0.85572723432E+03  0.16518759459E+04  0.17959287894E+04  0.25872815053E+04  0.87761785926E+02 0.  0.
         11    1    3    3    0    0 -0.58811241726E+03  0.10444550284E+04  0.11622305873E+04  0.16695935014E+04  0.00000000000E+00 0.  1.
        -11    1    3    3    0    0 -0.26761481706E+03  0.60742091743E+03  0.63369820202E+03  0.91768800389E+03  0.00000000000E+00 0. -1.
         22    1    1    2    0    0  0.85572723432E+03 -0.16518759459E+04 -0.49701091478E+02  0.18610302089E+04  0.00000000000E+00 0.  1.
<mgrwt>
<rscale>  0 0.40912304E+04</rscale>
<asrwt>0</asrwt>
<pdfrwt beam="1">  1        1 0.47650303E+00 0.40912304E+04</pdfrwt>
<pdfrwt beam="2">  1       -1 0.20785262E+00 0.40912304E+04</pdfrwt>
<totfact> 0.52334134E-02</totfact>
</mgrwt>
</event>
<event>
 6    1  0.1831439E-005  0.1208178E+04  0.7818608E-02  0.9105728E-01
         -1   -1    0    0    0  501 -0.00000000000E+00  0.00000000000E+00  0.48702995029E+03  0.48702995029E+03  0.00000000000E+00 0.  1.
          1   -1    0    0  501    0  0.00000000000E+00 -0.00000000000E+00 -0.74928335820E+03  0.74928335820E+03  0.00000000000E+00 0. -1.
         23    2    1    2    0    0  0.36344248672E+03  0.15117346953E+02  0.35657287537E+03  0.51849373213E+03  0.96811980019E+02 0.  0.
         13    1    3    3    0    0  0.19191718180E+03  0.23136550148E+02  0.25141866691E+03  0.31714168868E+03  0.00000000000E+00 0. -1.
        -13    1    3    3    0    0  0.17152530491E+03 -0.80192031949E+01  0.10515420846E+03  0.20135204345E+03  0.00000000000E+00 0.  1.
         22    1    1    2    0    0 -0.36344248672E+03 -0.15117346953E+02 -0.61882628328E+03  0.71781957636E+03  0.00000000000E+00 0. -1.
<mgrwt>
<rscale>  0 0.12081779E+04</rscale>
<asrwt>0</asrwt>
<pdfrwt beam="1">  1        1 0.11527436E+00 0.12081779E+04</pdfrwt>
<pdfrwt beam="2">  1       -1 0.74927685E-01 0.12081779E+04</pdfrwt>
<totfact> 0.43485222E+01</totfact>
</mgrwt>
</event>
<event>
 6    1  0.1831439E-005  0.4235876E+04  0.7818608E-02  0.7958583E-01
         -1   -1    0    0    0  501 -0.00000000000E+00  0.00000000000E+00  0.29272884868E+04  0.29272884868E+04  0.00000000000E+00 0.  1.
          1   -1    0    0  501    0  0.00000000000E+00 -0.00000000000E+00 -0.15323602457E+04  0.15323602457E+04  0.00000000000E+00 0. -1.
         23    2    1    2    0    0  0.93873876286E+03 -0.18653278368E+04  0.33184807346E+03  0.21163993120E+04  0.91348236273E+02 0.  0.
         13    1    3    3    0    0  0.36469911322E+03 -0.70874856150E+03  0.82389954041E+02  0.80132270100E+03  0.00000000000E+00 0.  1.
        -13    1    3    3    0    0  0.57403964964E+03 -0.11565792753E+04  0.24945811942E+03  0.13150766110E+04  0.00000000000E+00 0. -1.
         22    1    1    2    0    0 -0.93873876286E+03  0.18653278368E+04  0.10630801677E+04  0.23432494205E+04  0.00000000000E+00 0.  1.
<mgrwt>
<rscale>  0 0.42358756E+04</rscale>
<asrwt>0</asrwt>
<pdfrwt beam="1">  1        1 0.23574773E+00 0.42358756E+04</pdfrwt>
<pdfrwt beam="2">  1       -1 0.45035207E+00 0.42358756E+04</pdfrwt>
<totfact> 0.15353574E-02</totfact>
</mgrwt>
</event>
<event>
 6    1  0.1831439E-005  0.3508175E+04  0.7818608E-02  0.8111855E-01
          2   -1    0    0  501    0  0.00000000000E+00  0.00000000000E+00  0.27283338048E+04  0.27283338048E+04  0.00000000000E+00 0.  1.
         -2   -1    0    0    0  501 -0.00000000000E+00 -0.00000000000E+00 -0.11277298581E+04  0.11277298581E+04  0.00000000000E+00 0. -1.
         23    2    1    2    0    0  0.27311684789E+03  0.92538046649E+03 -0.80768411884E+03  0.12616902844E+04  0.92665622541E+02 0.  0.
         13    1    3    3    0    0  0.18852953789E+03  0.76585222210E+03 -0.65720694798E+03  0.10266420921E+04  0.00000000000E+00 0. -1.
        -13    1    3    3    0    0  0.84587310004E+02  0.15952824439E+03 -0.15047717087E+03  0.23504819234E+03  0.00000000000E+00 0.  1.
         22    1    1    2    0    0 -0.27311684789E+03 -0.92538046649E+03  0.24082880655E+04  0.25943733785E+04  0.00000000000E+00 0.  1.
<mgrwt>
<rscale>  0 0.35081753E+04</rscale>
<asrwt>0</asrwt>
<pdfrwt beam="1">  1        2 0.41974366E+00 0.35081753E+04</pdfrwt>
<pdfrwt beam="2">  1       -2 0.17349690E+00 0.35081753E+04</pdfrwt>
<totfact> 0.42209209E-01</totfact>
</mgrwt>
</event>
