<event>
 6    1  0.1072514E-005  0.2068415E+04  0.7818608E-02  0.8575286E-01
          1   -1    0    0  501    0  0.00000000000E+00  0.00000000000E+00  0.56028352773E+03  0.56028352773E+03  0.00000000000E+00 0. -1.
         -1   -1    0    0    0  501 -0.00000000000E+00 -0.00000000000E+00 -0.19090071426E+04  0.19090071426E+04  0.00000000000E+00 0.  1.
         23    2    1    2    0    0 -0.71565856000E+02 -0.98705407047E+03 -0.32625774926E+03  0.10463241015E+04  0.94618161974E+02 0.  0.
         11    1    3    3    0    0 -0.44104782791E+02 -0.44396184324E+03 -0.99229651312E+02  0.45704909344E+03  0.00000000000E+00 0.  1.
        -11    1    3    3    0    0 -0.27461073209E+02 -0.54309222723E+03 -0.22702809795E+03  0.58927500802E+03  0.00000000000E+00 0. -1.
         22    1    1    2    0    0  0.71565856000E+02  0.98705407047E+03 -0.10224658656E+04  0.14229665689E+04  0.00000000000E+00 0.  1.
<mgrwt>
<rscale>  0 0.20684151E+04</rscale>
<asrwt>0</asrwt>
<pdfrwt beam="1">  1        1 0.86197469E-01 0.20684151E+04</pdfrwt>
<pdfrwt beam="2">  1       -1 0.29369340E+00 0.20684151E+04</pdfrwt>
<totfact> 0.12649394E+00</totfact>
</mgrwt>
</event>
<event>
 6    1  0.1072514E-005  0.5860927E+04  0.7818608E-02  0.7707888E-01
          2   -1    0    0  501    0  0.00000000000E+00  0.00000000000E+00  0.36950232583E+04  0.36950232583E+04  0.00000000000E+00 0. -1.
         -2   -1    0    0    0  501 -0.00000000000E+00 -0.00000000000E+00 -0.23241035296E+04  0.23241035296E+04  0.00000000000E+00 0.  1.
         23    2    1    2    0    0 -0.10991131296E+04 -0.25739324865E+04  0.15751869495E+04  0.32129009926E+04  0.91327684998E+02 0.  0.
         13    1    3    3    0    0 -0.62088446758E+03 -0.15646496369E+04  0.95904311746E+03  0.19373666947E+04  0.00000000000E+00 0. -1.
        -13    1    3    3    0    0 -0.47822866205E+03 -0.10092828495E+04  0.61614383204E+03  0.12755342980E+04  0.00000000000E+00 0.  1.
         22    1    1    2    0    0  0.10991131296E+04  0.25739324865E+04 -0.20426722079E+03  0.28062257953E+04  0.00000000000E+00 0.  1.
<mgrwt>
<rscale>  0 0.58609271E+04</rscale>
<asrwt>0</asrwt>
<pdfrwt beam="1">  1        2 0.56846512E+00 0.58609271E+04</pdfrwt>
<pdfrwt beam="2">  1       -2 0.35755439E+00 0.58609271E+04</pdfrwt>
<totfact> 0.55655137E-03</totfact>
</mgrwt>
</event>
<event>
 6    1  0.1072514E-005  0.7994691E+03  0.7818608E-02  0.9560786E-01
          2   -1    0    0  501    0  0.00000000000E+00  0.00000000000E+00  0.24546628840E+03  0.24546628840E+03  0.00000000000E+00 0. -1.
         -2   -1    0    0    0  501 -0.00000000000E+00 -0.00000000000E+00 -0.65095584445E+03  0.65095584445E+03  0.00000000000E+00 0.  1.
         23    2    1    2    0    0  0.37281625698E+03 -0.51997917566E+01 -0.58905916869E+02  0.38736494722E+03  0.86963762524E+02 0.  0.
         11    1    3    3    0    0  0.18953836710E+03 -0.36713589380E+02 -0.26668652555E+01  0.19307975662E+03  0.00000000000E+00 0. -1.
        -11    1    3    3    0    0  0.18327788988E+03  0.31513797623E+02 -0.56239051614E+02  0.19428519060E+03  0.00000000000E+00 0.  1.
         22    1    1    2    0    0 -0.37281625698E+03  0.51997917566E+01 -0.34658363918E+03  0.50905718564E+03  0.00000000000E+00 0.  1.
<mgrwt>
<rscale>  0 0.79946911E+03</rscale>
<asrwt>0</asrwt>
<pdfrwt beam="1">  1        2 0.37764045E-01 0.79946911E+03</pdfrwt>
<pdfrwt beam="2">  1       -2 0.10014705E+00 0.79946911E+03</pdfrwt>
<totfact> 0.11388501E+02</totfact>
</mgrwt>
</event>
<event>
 6    1  0.1072514E-005  0.1025877E+04  0.7818608E-02  0.9280610E-01
          2   -1    0    0  501    0  0.00000000000E+00  0.00000000000E+00  0.22924093886E+03  0.22924093886E+03  0.00000000000E+00 0. -1.
         -2   -1    0    0    0  501 -0.00000000000E+00 -0.00000000000E+00 -0.11477257701E+04  0.11477257701E+04  0.00000000000E+00 0.  1.
         23    2    1    2    0    0 -0.36733370541E+03  0.13203039830E+03 -0.90084628912E+03  0.98622741558E+03  0.93564958377E+02 0.  0.
         13    1    3    3    0    0 -0.30751862461E+03  0.73977851147E+02 -0.67318768170E+03  0.74378900351E+03  0.00000000000E+00 0.  1.
        -13    1    3    3    0    0 -0.59815080793E+02  0.58052547149E+02 -0.22765860742E+03  0.24243841208E+03  0.00000000000E+00 0. -1.
         22    1    1    2    0    0  0.36733370541E+03 -0.13203039830E+03 -0.17638542094E+02  0.39073929335E+03  0.00000000000E+00 0. -1.
<mgrwt>
<rscale>  0 0.10258767E+04</rscale>
<asrwt>0</asrwt>
<pdfrwt beam="1">  1        2 0.35267836E-01 0.10258767E+04</pdfrwt>
<pdfrwt beam="2">  1       -2 0.17657320E+00 0.10258767E+04</pdfrwt>
<totfact> 0.28314803E+01</totfact>
</mgrwt>
</event>
<event>
 6    1  0.1072514E-005  0.3221412E+04  0.7818608E-02  0.8183185E-01
         -2   -1    0    0    0  501 -0.00000000000E+00  0.00000000000E+00  0.12408466654E+04  0.12408466654E+04  0.00000000000E+00 0.  1.
          2   -1    0    0  501    0  0.00000000000E+00 -0.00000000000E+00 -0.20908091564E+04  0.20908091564E+04  0.00000000000E+00 0. -1.
         23    2    1    2    0    0  0.55134161693E+03  0.67373117146E+03  0.97461720605E+03  0.13100271860E+04  0.91658386084E+02 0.  0.
         11    1    3    3    0    0  0.51399339710E+02  0.52994651796E+02  0.12427472215E+03  0.14454940957E+03  0.00000000000E+00 0.  1.
        -11    1    3    3    0    0  0.49994227722E+03  0.62073651966E+03  0.85034248390E+03  0.11654777764E+04  0.00000000000E+00 0. -1.
         22    1    1    2    0    0 -0.55134161693E+03 -0.67373117146E+03 -0.18245796971E+04  0.20216286358E+04  0.00000000000E+00 0. -1.
<mgrwt>
<rscale>  0 0.32214118E+04</rscale>
<asrwt>0</asrwt>
<pdfrwt beam="1">  1        2 0.32166295E+00 0.32214118E+04</pdfrwt>
<pdfrwt beam="2">  1       -2 0.19089949E+00 0.32214118E+04</pdfrwt>
<totfact> 0.76402968E-01</totfact>
</mgrwt>
</event>
<event>
 6    1  0.1072514E-005  0.2910842E+04  0.7818608E-02  0.8269659E-01
         -2   -1    0    0    0  501 -0.00000000000E+00  0.00000000000E+00  0.20199409588E+04  0.20199409588E+04  0.00000000000E+00 0.  1.
          2   -1    0    0  501    0  0.00000000000E+00 -0.00000000000E+00 -0.10486697074E+04  0.10486697074E+04  0.00000000000E+00 0. -1.
         23    2    1    2    0    0 -0.67232830010E+03  0.22419046378E+03 -0.85213638312E+03  0.11123126039E+04  0.93894654526E+02 0.  0.
         11    1    3    3    0    0 -0.44060127131E+03  0.17822089934E+03 -0.51686368656E+03  0.70216824175E+03  0.00000000000E+00 0. -1.
        -11    1    3    3    0    0 -0.23172702879E+03  0.45969564443E+02 -0.33527269656E+03  0.41014436213E+03  0.00000000000E+00 0.  1.
         22    1    1    2    0    0  0.67232830010E+03 -0.22419046378E+03  0.18234076345E+04  0.19562980623E+04  0.00000000000E+00 0.  1.
<mgrwt>
<rscale>  0 0.29108424E+04</rscale>
<asrwt>0</asrwt>
<pdfrwt beam="1">  1        2 0.16133380E+00 0.29108424E+04</pdfrwt>
<pdfrwt beam="2">  1       -2 0.31076015E+00 0.29108424E+04</pdfrwt>
<totfact> 0.55207421E-01</totfact>
</mgrwt>
</event>
<event>
 6    1  0.1072514E-005  0.1864137E+04  0.7818608E-02  0.8672917E-01
         -1   -1    0    0    0  501 -0.00000000000E+00  0.00000000000E+00  0.57169623361E+03  0.57169623361E+03  0.00000000000E+00 0.  1.
          1   -1    0    0  501    0  0.00000000000E+00 -0.00000000000E+00 -0.15196035417E+04  0.15196035417E+04  0.00000000000E+00 0. -1.
         23    2    1    2    0    0  0.27148356109E+03 -0.16818914042E+03  0.50467712628E+03  0.60402291814E+03  0.90298244396E+02 0.  0.
         13    1    3    3    0    0  0.74943990247E+02 -0.52907511603E+02  0.78419060094E+02  0.12068701440E+03  0.00000000000E+00 0. -1.
        -13    1    3    3    0    0  0.19653957084E+03 -0.11528162882E+03  0.42625806619E+03  0.48333590374E+03  0.00000000000E+00 0.  1.
         22    1    1    2    0    0 -0.27148356109E+03  0.16818914042E+03 -0.14525844344E+04  0.14872768572E+04  0.00000000000E+00 0. -1.
<mgrwt>
<rscale>  0 0.18641369E+04</rscale>
<asrwt>0</asrwt>
<pdfrwt beam="1">  1        1 0.23378516E+00 0.18641369E+04</pdfrwt>
<pdfrwt beam="2">  1       -1 0.87953267E-01 0.18641369E+04</pdfrwt>
<totfact> 0.75604330E+00</totfact>
</mgrwt>
</event>
<event>
 6    1  0.1072514E-005  0.3686802E+04  0.7818608E-02  0.8070893E-01
         -2   -1    0    0    0  501 -0.00000000000E+00  0.00000000000E+00  0.85535082807E+03  0.85535082807E+03  0.00000000000E+00 0.  1.
          2   -1    0    0  501    0  0.00000000000E+00 -0.00000000000E+00 -0.39727882604E+04  0.39727882604E+04  0.00000000000E+00 0. -1.
         23    2    1    2    0    0  0.26872975935E+03 -0.17428329842E+04 -0.22579725941E+04  0.28664147698E+04  0.90614028335E+02 0.  0.
         11    1    3    3    0    0  0.23577311147E+03 -0.13484098757E+04 -0.17087332091E+04  0.21894216891E+04  0.00000000000E+00 0.  1.
        -11    1    3    3    0    0  0.32956647884E+02 -0.39442310856E+03 -0.54923938505E+03  0.67699308069E+03  0.00000000000E+00 0. -1.
         22    1    1    2    0    0 -0.26872975935E+03  0.17428329842E+04 -0.85946483826E+03  0.19617243187E+04  0.00000000000E+00 0.  1.
<mgrwt>
<rscale>  0 0.36868023E+04</rscale>
<asrwt>0</asrwt>
<pdfrwt beam="1">  1        2 0.61119819E+00 0.36868023E+04</pdfrwt>
<pdfrwt beam="2">  1       -2 0.13159244E+00 0.36868023E+04</pdfrwt>
<totfact> 0.12225837E-01</totfact>
</mgrwt>
</event>
<event>
 6    1  0.1072514E-005  0.1065412E+04  0.7818608E-02  0.9239575E-01
          2   -1    0    0  501    0  0.00000000000E+00  0.00000000000E+00  0.61842840032E+03  0.61842840032E+03  0.00000000000E+00 0. -1.
         -2   -1    0    0    0  501 -0.00000000000E+00 -0.00000000000E+00 -0.45886568699E+03  0.45886568699E+03  0.00000000000E+00 0.  1.
         23    2    1    2    0    0  0.45733053685E+03 -0.25803753664E+03  0.14320744274E+03  0.55193508136E+03  0.91593515763E+02 0.  0.
         11    1    3    3    0    0  0.75292282342E+02 -0.85039927096E+02  0.34174971644E+02  0.11861132184E+03  0.00000000000E+00 0. -1.
        -11    1    3    3    0    0  0.38203825451E+03 -0.17299760955E+03  0.10903247109E+03  0.43332375953E+03  0.00000000000E+00 0.  1.
         22    1    1    2    0    0 -0.45733053685E+03  0.25803753664E+03  0.16355270595E+02  0.52535900595E+03  0.00000000000E+00 0.  1.
<mgrwt>
<rscale>  0 0.10654118E+04</rscale>
<asrwt>0</asrwt>
<pdfrwt beam="1">  1        2 0.95142832E-01 0.10654118E+04</pdfrwt>
<pdfrwt beam="2">  1       -2 0.70594720E-01 0.10654118E+04</pdfrwt>
<totfact> 0.86842750E+01</totfact>
</mgrwt>
</event>
<event>
 6    1  0.1072514E-005  0.2711911E+04  0.7818608E-02  0.8331150E-01
         -2   -1    0    0    0  501 -0.00000000000E+00  0.00000000000E+00  0.77661258846E+03  0.77661258846E+03  0.00000000000E+00 0.  1.
          2   -1    0    0  501    0  0.00000000000E+00 -0.00000000000E+00 -0.23674813839E+04  0.23674813839E+04  0.00000000000E+00 0. -1.
         23    2    1    2    0    0  0.32734223425E+03 -0.51082197708E+03 -0.22002455004E+04  0.22841916528E+04  0.91428736994E+02 0.  0.
         13    1    3    3    0    0  0.35024642877E+02 -0.11297016296E+03 -0.36382667688E+03  0.38256873126E+03  0.00000000000E+00 0. -1.
        -13    1    3    3    0    0  0.29231759137E+03 -0.39785181412E+03 -0.18364188235E+04  0.19016229215E+04  0.00000000000E+00 0.  1.
         22    1    1    2    0    0 -0.32734223425E+03  0.51082197708E+03  0.60937670499E+03  0.85990231956E+03  0.00000000000E+00 0.  1.
<mgrwt>
<rscale>  0 0.27119114E+04</rscale>
<asrwt>0</asrwt>
<pdfrwt beam="1">  1        2 0.36422789E+00 0.27119114E+04</pdfrwt>
<pdfrwt beam="2">  1       -2 0.11947886E+00 0.27119114E+04</pdfrwt>
<totfact> 0.19518912E+00</totfact>
</mgrwt>
</event>
<event>
 6    1  0.1072514E-005  0.2146536E+04  0.7818608E-02  0.8541017E-01
          1   -1    0    0  501    0  0.00000000000E+00  0.00000000000E+00  0.14476185486E+04  0.14476185486E+04  0.00000000000E+00 0. -1.
         -1   -1    0    0    0  501 -0.00000000000E+00 -0.00000000000E+00 -0.79572349209E+03  0.79572349209E+03  0.00000000000E+00 0.  1.
         23    2    1    2    0    0 -0.56825891446E+03 -0.71751217478E+03 -0.25528886903E+03  0.95465100341E+03  0.91892419923E+02 0.  0.
         11    1    3    3    0    0 -0.23537318385E+03 -0.32214231128E+03 -0.66886679861E+02  0.40453681209E+03  0.00000000000E+00 0. -1.
        -11    1    3    3    0    0 -0.33288573061E+03 -0.39536986350E+03 -0.18840218917E+03  0.55011419132E+03  0.00000000000E+00 0.  1.
         22    1    1    2    0    0  0.56825891446E+03  0.71751217478E+03  0.90718392558E+03  0.12886910373E+04  0.00000000000E+00 0. -1.
<mgrwt>
<rscale>  0 0.21465359E+04</rscale>
<asrwt>0</asrwt>
<pdfrwt beam="1">  1        1 0.22271055E+00 0.21465359E+04</pdfrwt>
<pdfrwt beam="2">  1       -1 0.12241900E+00 0.21465359E+04</pdfrwt>
<totfact> 0.38409504E+00</totfact>
</mgrwt>
</event>
<event>
 6    1  0.1072514E-005  0.2407585E+04  0.7818608E-02  0.8436669E-01
          2   -1    0    0  501    0  0.00000000000E+00  0.00000000000E+00  0.23056820108E+04  0.23056820108E+04  0.00000000000E+00 0. -1.
         -2   -1    0    0    0  501 -0.00000000000E+00 -0.00000000000E+00 -0.62849812123E+03  0.62849812123E+03  0.00000000000E+00 0.  1.
         23    2    1    2    0    0  0.34390943260E+03  0.94931326448E+03  0.16347194018E+04  0.19235998014E+04  0.91974459848E+02 0.  0.
         11    1    3    3    0    0  0.22494976880E+03  0.50336368677E+03  0.84750215688E+03  0.10110575184E+04  0.00000000000E+00 0. -1.
        -11    1    3    3    0    0  0.11895966380E+03  0.44594957772E+03  0.78721724490E+03  0.91254228293E+03  0.00000000000E+00 0.  1.
         22    1    1    2    0    0 -0.34390943260E+03 -0.94931326448E+03  0.42464487749E+02  0.10105803306E+04  0.00000000000E+00 0.  1.
<mgrwt>
<rscale>  0 0.24075854E+04</rscale>
<asrwt>0</asrwt>
<pdfrwt beam="1">  1        2 0.35472030E+00 0.24075854E+04</pdfrwt>
<pdfrwt beam="2">  1       -2 0.96692020E-01 0.24075854E+04</pdfrwt>
<totfact> 0.36157783E+00</totfact>
</mgrwt>
</event>
<event>
 6    1  0.1072514E-005  0.7683627E+03  0.7818608E-02  0.9606975E-01
          2   -1    0    0  501    0  0.00000000000E+00  0.00000000000E+00  0.11473197364E+04  0.11473197364E+04  0.00000000000E+00 0. -1.
         -2   -1    0    0    0  501 -0.00000000000E+00 -0.00000000000E+00 -0.12864358738E+03  0.12864358738E+03  0.00000000000E+00 0.  1.
         23    2    1    2    0    0 -0.18745515240E+02 -0.28607157843E+03  0.92781880236E+03  0.97522523212E+03  0.89600117311E+02 0.  0.
         11    1    3    3    0    0 -0.51026193850E+02 -0.17307459360E+03  0.62051208139E+03  0.64621492598E+03  0.00000000000E+00 0. -1.
        -11    1    3    3    0    0  0.32280678610E+02 -0.11299698483E+03  0.30730672097E+03  0.32901030614E+03  0.00000000000E+00 0.  1.
         22    1    1    2    0    0  0.18745515240E+02  0.28607157843E+03  0.90857346629E+02  0.30073809164E+03  0.00000000000E+00 0.  1.
<mgrwt>
<rscale>  0 0.76836274E+03</rscale>
<asrwt>0</asrwt>
<pdfrwt beam="1">  1        2 0.17651072E+00 0.76836274E+03</pdfrwt>
<pdfrwt beam="2">  1       -2 0.19791322E-01 0.76836274E+03</pdfrwt>
<totfact> 0.44589194E+02</totfact>
</mgrwt>
</event>
<event>
 6    1  0.1072514E-005  0.2963539E+04  0.7818608E-02  0.8254220E-01
          1   -1    0    0  501    0  0.00000000000E+00  0.00000000000E+00  0.11753292839E+04  0.11753292839E+04  0.00000000000E+00 0. -1.
         -1   -1    0    0    0  501 -0.00000000000E+00 -0.00000000000E+00 -0.18681075055E+04  0.18681075055E+04  0.00000000000E+00 0.  1.
         23    2    1    2    0    0  0.84175635641E+03  0.12024179300E+04 -0.54467933316E+03  0.15682093756E+04  0.90787817439E+02 0.  0.
         11    1    3    3    0    0  0.22523318300E+03  0.29471213232E+03 -0.17674626588E+03  0.41088255033E+03  0.00000000000E+00 0.  1.
        -11    1    3    3    0    0  0.61652317341E+03  0.90770579764E+03 -0.36793306728E+03  0.11573268252E+04  0.00000000000E+00 0. -1.
         22    1    1    2    0    0 -0.84175635641E+03 -0.12024179300E+04 -0.14809888841E+03  0.14752274139E+04  0.00000000000E+00 0.  1.
<mgrwt>
<rscale>  0 0.29635394E+04</rscale>
<asrwt>0</asrwt>
<pdfrwt beam="1">  1        1 0.18081989E+00 0.29635394E+04</pdfrwt>
<pdfrwt beam="2">  1       -1 0.28740115E+00 0.29635394E+04</pdfrwt>
<totfact> 0.37904923E-01</totfact>
</mgrwt>
</event>
<event>
 6    1  0.1072514E-005  0.4901104E+04  0.7818608E-02  0.7843947E-01
          1   -1    0    0  501    0  0.00000000000E+00  0.00000000000E+00  0.28548317973E+04  0.28548317973E+04  0.00000000000E+00 0. -1.
         -1   -1    0    0    0  501 -0.00000000000E+00 -0.00000000000E+00 -0.21035233582E+04  0.21035233582E+04  0.00000000000E+00 0.  1.
         23    2    1    2    0    0  0.20171452620E+04  0.21971706055E+03 -0.10129278218E+04  0.22695486955E+04  0.87623708379E+02 0.  0.
         11    1    3    3    0    0  0.11830594361E+04  0.11713139618E+03 -0.54685009062E+03  0.13085848903E+04  0.00000000000E+00 0. -1.
        -11    1    3    3    0    0  0.83408582587E+03  0.10258566437E+03 -0.46607773121E+03  0.96096380524E+03  0.00000000000E+00 0.  1.
         22    1    1    2    0    0 -0.20171452620E+04 -0.21971706055E+03  0.17642362610E+04  0.26888064600E+04  0.00000000000E+00 0. -1.
<mgrwt>
<rscale>  0 0.49011041E+04</rscale>
<asrwt>0</asrwt>
<pdfrwt beam="1">  1        1 0.43920489E+00 0.49011041E+04</pdfrwt>
<pdfrwt beam="2">  1       -1 0.32361898E+00 0.49011041E+04</pdfrwt>
<totfact> 0.12841063E-02</totfact>
</mgrwt>
</event>
<event>
 6    1  0.1072514E-005  0.2669531E+04  0.7818608E-02  0.8344959E-01
         -1   -1    0    0    0  501 -0.00000000000E+00  0.00000000000E+00  0.90957220997E+03  0.90957220997E+03  0.00000000000E+00 0.  1.
          1   -1    0    0  501    0  0.00000000000E+00 -0.00000000000E+00 -0.19587212036E+04  0.19587212036E+04  0.00000000000E+00 0. -1.
         23    2    1    2    0    0  0.40147257729E+03  0.12091298329E+02 -0.18910948067E+04  0.19354487417E+04  0.91628783665E+02 0.  0.
         11    1    3    3    0    0  0.19075566326E+03  0.35498705914E+02 -0.10683154151E+04  0.10857926631E+04  0.00000000000E+00 0. -1.
        -11    1    3    3    0    0  0.21071691403E+03 -0.23407407585E+02 -0.82277939163E+03  0.84965607858E+03  0.00000000000E+00 0.  1.
         22    1    1    2    0    0 -0.40147257729E+03 -0.12091298329E+02  0.84194581304E+03  0.93284467191E+03  0.00000000000E+00 0.  1.
<mgrwt>
<rscale>  0 0.26695306E+04</rscale>
<asrwt>0</asrwt>
<pdfrwt beam="1">  1        1 0.30134172E+00 0.26695306E+04</pdfrwt>
<pdfrwt beam="2">  1       -1 0.13993419E+00 0.26695306E+04</pdfrwt>
<totfact> 0.11676948E+00</totfact>
</mgrwt>
</event>
<event>
 6    1  0.1072514E-005  0.1513349E+04  0.7818608E-02  0.8875624E-01
         -2   -1    0    0    0  501 -0.00000000000E+00  0.00000000000E+00  0.64386636782E+03  0.64386636782E+03  0.00000000000E+00 0.  1.
          2   -1    0    0  501    0  0.00000000000E+00 -0.00000000000E+00 -0.88924683561E+03  0.88924683561E+03  0.00000000000E+00 0. -1.
         23    2    1    2    0    0  0.12119706868E+03 -0.35903661383E+03 -0.78331018392E+03  0.87511290022E+03  0.93014645967E+02 0.  0.
         13    1    3    3    0    0  0.46945622344E+02 -0.27064912568E+03 -0.55861670029E+03  0.62250097071E+03  0.00000000000E+00 0. -1.
        -13    1    3    3    0    0  0.74251446334E+02 -0.88387488151E+02 -0.22469348363E+03  0.25261192951E+03  0.00000000000E+00 0.  1.
         22    1    1    2    0    0 -0.12119706868E+03  0.35903661383E+03  0.53792971614E+03  0.65800030321E+03  0.00000000000E+00 0.  1.
<mgrwt>
<rscale>  0 0.15133488E+04</rscale>
<asrwt>0</asrwt>
<pdfrwt beam="1">  1        2 0.13680721E+00 0.15133488E+04</pdfrwt>
<pdfrwt beam="2">  1       -2 0.99056364E-01 0.15133488E+04</pdfrwt>
<totfact> 0.24319353E+01</totfact>
</mgrwt>
</event>
<event>
 6    1  0.1072514E-005  0.1979341E+04  0.7818608E-02  0.8616341E-01
         -2   -1    0    0    0  501 -0.00000000000E+00  0.00000000000E+00  0.43175173457E+03  0.43175173457E+03  0.00000000000E+00 0.  1.
          2   -1    0    0  501    0  0.00000000000E+00 -0.00000000000E+00 -0.22685437157E+04  0.22685437157E+04  0.00000000000E+00 0. -1.
         23    2    1    2    0    0  0.95569767903E+03  0.24833258834E+03 -0.94317858241E+03  0.13685402046E+04  0.91045730315E+02 0.  0.
         13    1    3    3    0    0  0.19482652290E+03  0.61471929118E+02 -0.14832823606E+03  0.25246274519E+03  0.00000000000E+00 0.  1.
        -13    1    3    3    0    0  0.76087115613E+03  0.18686065922E+03 -0.79485034636E+03  0.11160774594E+04  0.00000000000E+00 0. -1.
         22    1    1    2    0    0 -0.95569767903E+03 -0.24833258834E+03 -0.89361339869E+03  0.13317552457E+04  0.00000000000E+00 0.  1.
<mgrwt>
<rscale>  0 0.19793410E+04</rscale>
<asrwt>0</asrwt>
<pdfrwt beam="1">  1        2 0.34900672E+00 0.19793410E+04</pdfrwt>
<pdfrwt beam="2">  1       -2 0.66423344E-01 0.19793410E+04</pdfrwt>
<totfact> 0.91599497E+00</totfact>
</mgrwt>
</event>
<event>
 6    1  0.1072514E-005  0.1955160E+04  0.7818608E-02  0.8627877E-01
         -1   -1    0    0    0  501 -0.00000000000E+00  0.00000000000E+00  0.11242583080E+04  0.11242583080E+04  0.00000000000E+00 0.  1.
          1   -1    0    0  501    0  0.00000000000E+00 -0.00000000000E+00 -0.85003829009E+03  0.85003829009E+03  0.00000000000E+00 0. -1.
         23    2    1    2    0    0 -0.81472977142E+03  0.53600289568E+03  0.11857471437E+03  0.98671917571E+03  0.92038384468E+02 0.  0.
         11    1    3    3    0    0 -0.61056869463E+03  0.44156579568E+03  0.11106233175E+03  0.76164908213E+03  0.00000000000E+00 0. -1.
        -11    1    3    3    0    0 -0.20416107679E+03  0.94437100000E+02  0.75123826250E+01  0.22507009358E+03  0.00000000000E+00 0.  1.
         22    1    1    2    0    0  0.81472977142E+03 -0.53600289568E+03  0.15564530349E+03  0.98757742234E+03  0.00000000000E+00 0. -1.
<mgrwt>
<rscale>  0 0.19551600E+04</rscale>
<asrwt>0</asrwt>
<pdfrwt beam="1">  1        1 0.13077512E+00 0.19551600E+04</pdfrwt>
<pdfrwt beam="2">  1       -1 0.17296282E+00 0.19551600E+04</pdfrwt>
<totfact> 0.43649295E+00</totfact>
</mgrwt>
</event>
<event>
 6    1  0.1072514E-005  0.4257031E+04  0.7818608E-02  0.7954612E-01
          1   -1    0    0  501    0  0.00000000000E+00  0.00000000000E+00  0.18096275290E+04  0.18096275290E+04  0.00000000000E+00 0. -1.
         -1   -1    0    0    0  501 -0.00000000000E+00 -0.00000000000E+00 -0.25035966537E+04  0.25035966537E+04  0.00000000000E+00 0.  1.
         23    2    1    2    0    0  0.13978677907E+04  0.15722462821E+04 -0.26658655633E+02  0.21061229177E+04  0.95133214040E+02 0.  0.
         11    1    3    3    0    0  0.20426959169E+03  0.23602743091E+03 -0.37568376089E+02  0.31439846869E+03  0.00000000000E+00 0. -1.
        -11    1    3    3    0    0  0.11935981990E+04  0.13362188512E+04  0.10909720455E+02  0.17917244490E+04  0.00000000000E+00 0.  1.
         22    1    1    2    0    0 -0.13978677907E+04 -0.15722462821E+04 -0.66731046901E+03  0.22071012650E+04  0.00000000000E+00 0.  1.
<mgrwt>
<rscale>  0 0.42570306E+04</rscale>
<asrwt>0</asrwt>
<pdfrwt beam="1">  1        1 0.27840423E+00 0.42570306E+04</pdfrwt>
<pdfrwt beam="2">  1       -1 0.38516872E+00 0.42570306E+04</pdfrwt>
<totfact> 0.27751188E-02</totfact>
</mgrwt>
</event>
<event>
 6    1  0.1072514E-005  0.4136609E+04  0.7818608E-02  0.7977541E-01
          2   -1    0    0  501    0  0.00000000000E+00  0.00000000000E+00  0.20925092847E+04  0.20925092847E+04  0.00000000000E+00 0. -1.
         -2   -1    0    0    0  501 -0.00000000000E+00 -0.00000000000E+00 -0.20443795561E+04  0.20443795561E+04  0.00000000000E+00 0.  1.
         23    2    1    2    0    0  0.79368447702E+03 -0.17960513200E+03  0.19246173768E+04  0.20915529401E+04  0.90821812606E+02 0.  0.
         11    1    3    3    0    0  0.83601250239E+02 -0.11798529224E+00  0.14978598774E+03  0.17153724110E+03  0.00000000000E+00 0.  1.
        -11    1    3    3    0    0  0.71008322678E+03 -0.17948714670E+03  0.17748313891E+04  0.19200156990E+04  0.00000000000E+00 0. -1.
         22    1    1    2    0    0 -0.79368447702E+03  0.17960513200E+03 -0.18764876482E+04  0.20453359007E+04  0.00000000000E+00 0.  1.
<mgrwt>
<rscale>  0 0.41366089E+04</rscale>
<asrwt>0</asrwt>
<pdfrwt beam="1">  1        2 0.32192451E+00 0.41366089E+04</pdfrwt>
<pdfrwt beam="2">  1       -2 0.31451993E+00 0.41366089E+04</pdfrwt>
<totfact> 0.11981105E-01</totfact>
</mgrwt>
</event>
<event>
 6    1  0.1072514E-005  0.4302676E+04  0.7818608E-02  0.7946123E-01
          2   -1    0    0  501    0  0.00000000000E+00  0.00000000000E+00  0.32849939264E+04  0.32849939264E+04  0.00000000000E+00 0. -1.
         -2   -1    0    0    0  501 -0.00000000000E+00 -0.00000000000E+00 -0.14089082219E+04  0.14089082219E+04  0.00000000000E+00 0.  1.
         23    2    1    2    0    0  0.29752129149E+03 -0.43344761542E+03  0.32131007537E+04  0.32572376099E+04  0.95836526747E+02 0.  0.
         13    1    3    3    0    0  0.21305514995E+03 -0.27105272333E+03  0.18437869873E+04  0.18757431941E+04  0.00000000000E+00 0. -1.
        -13    1    3    3    0    0  0.84466141542E+02 -0.16239489209E+03  0.13693137664E+04  0.13814944158E+04  0.00000000000E+00 0.  1.
         22    1    1    2    0    0 -0.29752129149E+03  0.43344761542E+03 -0.13370150492E+04  0.14366645384E+04  0.00000000000E+00 0.  1.
<mgrwt>
<rscale>  0 0.43026759E+04</rscale>
<asrwt>0</asrwt>
<pdfrwt beam="1">  1        2 0.50538368E+00 0.43026759E+04</pdfrwt>
<pdfrwt beam="2">  1       -2 0.21675511E+00 0.43026759E+04</pdfrwt>
<totfact> 0.90836065E-02</totfact>
</mgrwt>
</event>
<event>
 6    1  0.1072514E-005  0.3208642E+04  0.7818608E-02  0.8186539E-01
          1   -1    0    0  501    0  0.00000000000E+00  0.00000000000E+00  0.34964864053E+04  0.34964864053E+04  0.00000000000E+00 0.  1.
         -1   -1    0    0    0  501 -0.00000000000E+00 -0.00000000000E+00 -0.73612363633E+03  0.73612363633E+03  0.00000000000E+00 0. -1.
         23    2    1    2    0    0 -0.62592170162E+03 -0.44102736324E+02 -0.56462381233E+03  0.84893470353E+03  0.90371751636E+02 0.  0.
         11    1    3    3    0    0 -0.29453238963E+03 -0.23269501496E+02 -0.20586697651E+03  0.36010000036E+03  0.00000000000E+00 0. -1.
        -11    1    3    3    0    0 -0.33138931199E+03 -0.20833234828E+02 -0.35875683582E+03  0.48883470316E+03  0.00000000000E+00 0.  1.
         22    1    1    2    0    0  0.62592170162E+03  0.44102736324E+02  0.33249865813E+04  0.33836753381E+04  0.00000000000E+00 0.  1.
<mgrwt>
<rscale>  0 0.32086423E+04</rscale>
<asrwt>0</asrwt>
<pdfrwt beam="1">  1        1 0.53792097E+00 0.32086423E+04</pdfrwt>
<pdfrwt beam="2">  1       -1 0.11324979E+00 0.32086423E+04</pdfrwt>
<totfact> 0.14953271E-01</totfact>
</mgrwt>
</event>
<event>
 6    1  0.1072514E-005  0.1246157E+04  0.7818608E-02  0.9073388E-01
         -1   -1    0    0    0  501 -0.00000000000E+00  0.00000000000E+00  0.49574946492E+03  0.49574946492E+03  0.00000000000E+00 0.  1.
          1   -1    0    0  501    0  0.00000000000E+00 -0.00000000000E+00 -0.78311114716E+03  0.78311114716E+03  0.00000000000E+00 0. -1.
         23    2    1    2    0    0  0.27592586984E+03 -0.13687368339E+03 -0.69646318107E+03  0.76677319063E+03  0.89502359940E+02 0.  0.
         11    1    3    3    0    0  0.10988873114E+03 -0.13739711237E+02 -0.19283240742E+03  0.22237052468E+03  0.00000000000E+00 0. -1.
        -11    1    3    3    0    0  0.16603713870E+03 -0.12313397215E+03 -0.50363077365E+03  0.54440266595E+03  0.00000000000E+00 0.  1.
         22    1    1    2    0    0 -0.27592586984E+03  0.13687368339E+03  0.40910149883E+03  0.51208742144E+03  0.00000000000E+00 0.  1.
<mgrwt>
<rscale>  0 0.12461572E+04</rscale>
<asrwt>0</asrwt>
<pdfrwt beam="1">  1        1 0.12047864E+00 0.12461572E+04</pdfrwt>
<pdfrwt beam="2">  1       -1 0.76269148E-01 0.12461572E+04</pdfrwt>
<totfact> 0.38967185E+01</totfact>
</mgrwt>
</event>
<event>
 6    1  0.1072514E-005  0.3526708E+04  0.7818608E-02  0.8107490E-01
         -1   -1    0    0    0  501 -0.00000000000E+00  0.00000000000E+00  0.19744828212E+04  0.19744828212E+04  0.00000000000E+00 0.  1.
          1   -1    0    0  501    0  0.00000000000E+00 -0.00000000000E+00 -0.15748005902E+04  0.15748005902E+04  0.00000000000E+00 0. -1.
         23    2    1    2    0    0  0.83958681752E+03 -0.72946458098E+03  0.15755062044E+04  0.19307697056E+04  0.92883027980E+02 0.  0.
         11    1    3    3    0    0  0.28603690876E+03 -0.19172371524E+03  0.48541224690E+03  0.59514716297E+03  0.00000000000E+00 0. -1.
        -11    1    3    3    0    0  0.55354990876E+03 -0.53774086574E+03  0.10900939575E+04  0.13356225426E+04  0.00000000000E+00 0.  1.
         22    1    1    2    0    0 -0.83958681752E+03  0.72946458098E+03 -0.11758239735E+04  0.16185137057E+04  0.00000000000E+00 0. -1.
<mgrwt>
<rscale>  0 0.35267076E+04</rscale>
<asrwt>0</asrwt>
<pdfrwt beam="1">  1        1 0.24227701E+00 0.35267076E+04</pdfrwt>
<pdfrwt beam="2">  1       -1 0.30376659E+00 0.35267076E+04</pdfrwt>
<totfact> 0.14755504E-01</totfact>
</mgrwt>
</event>
<event>
 6    1  0.1072514E-005  0.2426253E+04  0.7818608E-02  0.8429740E-01
          2   -1    0    0  501    0  0.00000000000E+00  0.00000000000E+00  0.75390774718E+03  0.75390774718E+03  0.00000000000E+00 0. -1.
         -2   -1    0    0    0  501 -0.00000000000E+00 -0.00000000000E+00 -0.19520641328E+04  0.19520641328E+04  0.00000000000E+00 0.  1.
         23    2    1    2    0    0  0.20028475231E+03 -0.10958271418E+04 -0.11308484808E+04  0.15899604729E+04  0.90580969956E+02 0.  0.
         11    1    3    3    0    0  0.13932112346E+03 -0.91137634523E+03 -0.96359297592E+03  0.13336148774E+04  0.00000000000E+00 0. -1.
        -11    1    3    3    0    0  0.60963628842E+02 -0.18445079652E+03 -0.16725550493E+03  0.25634559545E+03  0.00000000000E+00 0.  1.
         22    1    1    2    0    0 -0.20028475231E+03  0.10958271418E+04 -0.67307904728E+02  0.11160114070E+04  0.00000000000E+00 0. -1.
<mgrwt>
<rscale>  0 0.24262533E+04</rscale>
<asrwt>0</asrwt>
<pdfrwt beam="1">  1        2 0.11598581E+00 0.24262533E+04</pdfrwt>
<pdfrwt beam="2">  1       -2 0.30031755E+00 0.24262533E+04</pdfrwt>
<totfact> 0.10577936E+00</totfact>
</mgrwt>
</event>
<event>
 6    1  0.1072514E-005  0.1876036E+04  0.7818608E-02  0.8666878E-01
          2   -1    0    0  501    0  0.00000000000E+00  0.00000000000E+00  0.29910806480E+04  0.29910806480E+04  0.00000000000E+00 0. -1.
         -2   -1    0    0    0  501 -0.00000000000E+00 -0.00000000000E+00 -0.29416711251E+03  0.29416711251E+03  0.00000000000E+00 0.  1.
         23    2    1    2    0    0  0.10559502593E+03  0.94286521238E+02  0.29715062212E+04  0.29763118439E+04  0.92426793140E+02 0.  0.
         11    1    3    3    0    0  0.42059967845E+02  0.25758634000E+02  0.19276970005E+04  0.19283278440E+04  0.00000000000E+00 0.  1.
        -11    1    3    3    0    0  0.63535058085E+02  0.68527887238E+02  0.10438092206E+04  0.10479839999E+04  0.00000000000E+00 0. -1.
         22    1    1    2    0    0 -0.10559502593E+03 -0.94286521238E+02 -0.27459268564E+03  0.30893591665E+03  0.00000000000E+00 0.  1.
<mgrwt>
<rscale>  0 0.18760358E+04</rscale>
<asrwt>0</asrwt>
<pdfrwt beam="1">  1        2 0.46016623E+00 0.18760358E+04</pdfrwt>
<pdfrwt beam="2">  1       -2 0.45256481E-01 0.18760358E+04</pdfrwt>
<totfact> 0.76872629E+00</totfact>
</mgrwt>
</event>
<event>
 6    1  0.1072514E-005  0.1659644E+04  0.7818608E-02  0.8784722E-01
          1   -1    0    0  501    0  0.00000000000E+00  0.00000000000E+00  0.23348224917E+04  0.23348224917E+04  0.00000000000E+00 0. -1.
         -1   -1    0    0    0  501 -0.00000000000E+00 -0.00000000000E+00 -0.29492795785E+03  0.29492795785E+03  0.00000000000E+00 0.  1.
         23    2    1    2    0    0 -0.56743568542E+03 -0.34136430505E+03  0.18095174335E+04  0.19286181837E+04  0.81865198431E+02 0.  0.
         13    1    3    3    0    0 -0.48772517693E+03 -0.27784987307E+03  0.16004683429E+04  0.16960469678E+04  0.00000000000E+00 0. -1.
        -13    1    3    3    0    0 -0.79710508491E+02 -0.63514431981E+02  0.20904909056E+03  0.23257121597E+03  0.00000000000E+00 0.  1.
         22    1    1    2    0    0  0.56743568542E+03  0.34136430505E+03  0.23037710043E+03  0.70113226588E+03  0.00000000000E+00 0.  1.
<mgrwt>
<rscale>  0 0.16596439E+04</rscale>
<asrwt>0</asrwt>
<pdfrwt beam="1">  1        1 0.35920345E+00 0.16596439E+04</pdfrwt>
<pdfrwt beam="2">  1       -1 0.45373533E-01 0.16596439E+04</pdfrwt>
<totfact> 0.81199770E+00</totfact>
</mgrwt>
</event>
<event>
 6    1  0.1072514E-005  0.3459334E+04  0.7818608E-02  0.8123495E-01
         -2   -1    0    0    0  501 -0.00000000000E+00  0.00000000000E+00  0.93355769214E+03  0.93355769214E+03  0.00000000000E+00 0.  1.
          2   -1    0    0  501    0  0.00000000000E+00 -0.00000000000E+00 -0.32046746702E+04  0.32046746702E+04  0.00000000000E+00 0. -1.
         23    2    1    2    0    0  0.15262309636E+04  0.73367159935E+03 -0.15525468718E+04  0.22986677488E+04  0.76267030795E+02 0.  0.
         13    1    3    3    0    0  0.85535719082E+03  0.45213059407E+03 -0.87542053949E+03  0.13047678410E+04  0.00000000000E+00 0. -1.
        -13    1    3    3    0    0  0.67087377277E+03  0.28154100528E+03 -0.67712633236E+03  0.99389990775E+03  0.00000000000E+00 0.  1.
         22    1    1    2    0    0 -0.15262309636E+04 -0.73367159935E+03 -0.71857010619E+03  0.18395646136E+04  0.00000000000E+00 0. -1.
<mgrwt>
<rscale>  0 0.34593344E+04</rscale>
<asrwt>0</asrwt>
<pdfrwt beam="1">  1        2 0.49302687E+00 0.34593344E+04</pdfrwt>
<pdfrwt beam="2">  1       -2 0.14362426E+00 0.34593344E+04</pdfrwt>
<totfact> 0.35630468E-01</totfact>
</mgrwt>
</event>
<event>
 6    1  0.1072514E-005  0.4465132E+03  0.7818608E-02  0.1028767E+00
          2   -1    0    0  501    0  0.00000000000E+00  0.00000000000E+00  0.90401968280E+03  0.90401968280E+03  0.00000000000E+00 0. -1.
         -2   -1    0    0    0  501 -0.00000000000E+00 -0.00000000000E+00 -0.55135426397E+02  0.55135426397E+02  0.00000000000E+00 0.  1.
         23    2    1    2    0    0 -0.20745309576E+03 -0.53131928710E+02  0.43470180645E+03  0.49288599094E+03  0.90061927277E+02 0.  0.
         11    1    3    3    0    0 -0.11992202293E+03 -0.74262828829E+02  0.24024807172E+03  0.27859539711E+03  0.00000000000E+00 0. -1.
        -11    1    3    3    0    0 -0.87531072838E+02  0.21130900120E+02  0.19445373473E+03  0.21429059383E+03  0.00000000000E+00 0.  1.
         22    1    1    2    0    0  0.20745309576E+03  0.53131928710E+02  0.41418244996E+03  0.46626911826E+03  0.00000000000E+00 0. -1.
<mgrwt>
<rscale>  0 0.44651321E+03</rscale>
<asrwt>0</asrwt>
<pdfrwt beam="1">  1        2 0.13907994E+00 0.44651321E+03</pdfrwt>
<pdfrwt beam="2">  1       -2 0.84823740E-02 0.44651321E+03</pdfrwt>
<totfact> 0.26124528E+03</totfact>
</mgrwt>
</event>
<event>
 6    1  0.1072514E-005  0.2711743E+04  0.7818608E-02  0.8331205E-01
          1   -1    0    0  501    0  0.00000000000E+00  0.00000000000E+00  0.33826523523E+04  0.33826523523E+04  0.00000000000E+00 0. -1.
         -1   -1    0    0    0  501 -0.00000000000E+00 -0.00000000000E+00 -0.54347519040E+03  0.54347519040E+03  0.00000000000E+00 0.  1.
         23    2    1    2    0    0  0.69527427101E+03  0.53680010273E+03  0.29137077303E+04  0.30445860134E+04  0.90832777422E+02 0.  0.
         11    1    3    3    0    0  0.59420721869E+03  0.45757099752E+03  0.23656464716E+04  0.24816802101E+04  0.00000000000E+00 0.  1.
        -11    1    3    3    0    0  0.10106705231E+03  0.79229105212E+02  0.54806125865E+03  0.56290580332E+03  0.00000000000E+00 0. -1.
         22    1    1    2    0    0 -0.69527427101E+03 -0.53680010273E+03 -0.74530568374E+02  0.88154152928E+03  0.00000000000E+00 0.  1.
<mgrwt>
<rscale>  0 0.27117431E+04</rscale>
<asrwt>0</asrwt>
<pdfrwt beam="1">  1        1 0.52040804E+00 0.27117431E+04</pdfrwt>
<pdfrwt beam="2">  1       -1 0.83611570E-01 0.27117431E+04</pdfrwt>
<totfact> 0.38184051E-01</totfact>
</mgrwt>
</event>
<event>
 6    1  0.1072514E-005  0.1491294E+04  0.7818608E-02  0.8890263E-01
         -1   -1    0    0    0  501 -0.00000000000E+00  0.00000000000E+00  0.73085169255E+03  0.73085169255E+03  0.00000000000E+00 0.  1.
          1   -1    0    0  501    0  0.00000000000E+00 -0.00000000000E+00 -0.76074155201E+03  0.76074155201E+03  0.00000000000E+00 0. -1.
         23    2    1    2    0    0 -0.98538886930E+02  0.38163264600E+03  0.61481198644E+03  0.73595188859E+03  0.90983596995E+02 0.  0.
         11    1    3    3    0    0 -0.77326043617E+02  0.19343248185E+03  0.25440072417E+03  0.32880871417E+03  0.00000000000E+00 0. -1.
        -11    1    3    3    0    0 -0.21212843313E+02  0.18820016415E+03  0.36041126227E+03  0.40714317442E+03  0.00000000000E+00 0.  1.
         22    1    1    2    0    0  0.98538886930E+02 -0.38163264600E+03 -0.64470184590E+03  0.75564135596E+03  0.00000000000E+00 0. -1.
<mgrwt>
<rscale>  0 0.14912937E+04</rscale>
<asrwt>0</asrwt>
<pdfrwt beam="1">  1        1 0.11703716E+00 0.14912937E+04</pdfrwt>
<pdfrwt beam="2">  1       -1 0.11243872E+00 0.14912937E+04</pdfrwt>
<totfact> 0.16802985E+01</totfact>
</mgrwt>
</event>
<event>
 6    1  0.1072514E-005  0.2364122E+04  0.7818608E-02  0.8453059E-01
          1   -1    0    0  501    0  0.00000000000E+00  0.00000000000E+00  0.25387699603E+04  0.25387699603E+04  0.00000000000E+00 0. -1.
         -1   -1    0    0    0  501 -0.00000000000E+00 -0.00000000000E+00 -0.55037226765E+03  0.55037226765E+03  0.00000000000E+00 0.  1.
         23    2    1    2    0    0 -0.22580056817E+03  0.41157211229E+03  0.24107269300E+04  0.24576840069E+04  0.90712990663E+02 0.  0.
         13    1    3    3    0    0 -0.15596691166E+03  0.34927195310E+03  0.20207899810E+04  0.20566741896E+04  0.00000000000E+00 0.  1.
        -13    1    3    3    0    0 -0.69833656511E+02  0.62300159187E+02  0.38993694900E+03  0.40100981736E+03  0.00000000000E+00 0. -1.
         22    1    1    2    0    0  0.22580056817E+03 -0.41157211229E+03 -0.42232923734E+03  0.63145822103E+03  0.00000000000E+00 0.  1.
<mgrwt>
<rscale>  0 0.23641223E+04</rscale>
<asrwt>0</asrwt>
<pdfrwt beam="1">  1        1 0.39057999E+00 0.23641223E+04</pdfrwt>
<pdfrwt beam="2">  1       -1 0.84672658E-01 0.23641223E+04</pdfrwt>
<totfact> 0.15798133E+00</totfact>
</mgrwt>
</event>
<event>
 6    1  0.1072514E-005  0.2085835E+04  0.7818608E-02  0.8567509E-01
          1   -1    0    0  501    0  0.00000000000E+00  0.00000000000E+00  0.78577095835E+03  0.78577095835E+03  0.00000000000E+00 0. -1.
         -1   -1    0    0    0  501 -0.00000000000E+00 -0.00000000000E+00 -0.13842163262E+04  0.13842163262E+04  0.00000000000E+00 0.  1.
         23    2    1    2    0    0 -0.73077533846E+03  0.37397468218E+03 -0.96560474557E+03  0.12707122061E+04  0.91800478158E+02 0.  0.
         11    1    3    3    0    0 -0.37742549767E+03  0.14498443549E+03 -0.44785316333E+03  0.60335971753E+03  0.00000000000E+00 0. -1.
        -11    1    3    3    0    0 -0.35334984080E+03  0.22899024669E+03 -0.51775158224E+03  0.66735248855E+03  0.00000000000E+00 0.  1.
         22    1    1    2    0    0  0.73077533846E+03 -0.37397468218E+03  0.36715937768E+03  0.89927507852E+03  0.00000000000E+00 0. -1.
<mgrwt>
<rscale>  0 0.20858351E+04</rscale>
<asrwt>0</asrwt>
<pdfrwt beam="1">  1        1 0.12088784E+00 0.20858351E+04</pdfrwt>
<pdfrwt beam="2">  1       -1 0.21295636E+00 0.20858351E+04</pdfrwt>
<totfact> 0.25717881E+00</totfact>
</mgrwt>
</event>
<event>
 6    1  0.1072514E-005  0.2432190E+04  0.7818608E-02  0.8427550E-01
         -1   -1    0    0    0  501 -0.00000000000E+00  0.00000000000E+00  0.66845393975E+03  0.66845393975E+03  0.00000000000E+00 0.  1.
          1   -1    0    0  501    0  0.00000000000E+00 -0.00000000000E+00 -0.22123987551E+04  0.22123987551E+04  0.00000000000E+00 0. -1.
         23    2    1    2    0    0  0.68106291738E+03 -0.65858947745E+03  0.12698918778E+03  0.96001765766E+03  0.88999168379E+02 0.  0.
         13    1    3    3    0    0  0.40057918434E+03 -0.32699721228E+03  0.78158534785E+02  0.52297190778E+03  0.00000000000E+00 0. -1.
        -13    1    3    3    0    0  0.28048373304E+03 -0.33159226517E+03  0.48830652993E+02  0.43704574988E+03  0.00000000000E+00 0.  1.
         22    1    1    2    0    0 -0.68106291738E+03  0.65858947745E+03 -0.16709340031E+04  0.19208350371E+04  0.00000000000E+00 0. -1.
<mgrwt>
<rscale>  0 0.24321897E+04</rscale>
<asrwt>0</asrwt>
<pdfrwt beam="1">  1        1 0.34036904E+00 0.24321897E+04</pdfrwt>
<pdfrwt beam="2">  1       -1 0.10283907E+00 0.24321897E+04</pdfrwt>
<totfact> 0.17055322E+00</totfact>
</mgrwt>
</event>
<event>
 6    1  0.1072514E-005  0.1372633E+04  0.7818608E-02  0.8973870E-01
          2   -1    0    0  501    0  0.00000000000E+00  0.00000000000E+00  0.27599109962E+04  0.27599109962E+04  0.00000000000E+00 0. -1.
         -2   -1    0    0    0  501 -0.00000000000E+00 -0.00000000000E+00 -0.17066877059E+03  0.17066877059E+03  0.00000000000E+00 0.  1.
         23    2    1    2    0    0  0.59513345641E+03  0.23673838415E+03  0.79091683498E+03  0.10216001692E+04  0.88817635424E+02 0.  0.
         13    1    3    3    0    0  0.23876994399E+03  0.78414415940E+02  0.24730889875E+03  0.35259268028E+03  0.00000000000E+00 0.  1.
        -13    1    3    3    0    0  0.35636351242E+03  0.15832396821E+03  0.54360793623E+03  0.66900748891E+03  0.00000000000E+00 0. -1.
         22    1    1    2    0    0 -0.59513345641E+03 -0.23673838415E+03  0.17983253907E+04  0.19089795976E+04  0.00000000000E+00 0. -1.
<mgrwt>
<rscale>  0 0.13726334E+04</rscale>
<asrwt>0</asrwt>
<pdfrwt beam="1">  1        2 0.42460166E+00 0.13726334E+04</pdfrwt>
<pdfrwt beam="2">  1       -2 0.26256736E-01 0.13726334E+04</pdfrwt>
<totfact> 0.31489239E+01</totfact>
</mgrwt>
</event>
<event>
 6    1  0.1072514E-005  0.2256597E+04  0.7818608E-02  0.8495234E-01
         -2   -1    0    0    0  501 -0.00000000000E+00  0.00000000000E+00  0.38086440996E+03  0.38086440996E+03  0.00000000000E+00 0.  1.
          2   -1    0    0  501    0  0.00000000000E+00 -0.00000000000E+00 -0.33425481755E+04  0.33425481755E+04  0.00000000000E+00 0. -1.
         23    2    1    2    0    0 -0.98443830993E+03  0.47251723842E+03 -0.10272854471E+04  0.15020868144E+04  0.92509899956E+02 0.  0.
         13    1    3    3    0    0 -0.53613665158E+03  0.30323682426E+03 -0.60489732404E+03  0.86330519134E+03  0.00000000000E+00 0.  1.
        -13    1    3    3    0    0 -0.44830165834E+03  0.16928041416E+03 -0.42238812303E+03  0.63878162307E+03  0.00000000000E+00 0. -1.
         22    1    1    2    0    0  0.98443830993E+03 -0.47251723842E+03 -0.19343983185E+04  0.22213257711E+04  0.00000000000E+00 0.  1.
<mgrwt>
<rscale>  0 0.22565971E+04</rscale>
<asrwt>0</asrwt>
<pdfrwt beam="1">  1        2 0.51423818E+00 0.22565971E+04</pdfrwt>
<pdfrwt beam="2">  1       -2 0.58594525E-01 0.22565971E+04</pdfrwt>
<totfact> 0.25896912E+00</totfact>
</mgrwt>
</event>
<event>
 6    1  0.1072514E-005  0.2603164E+04  0.7818608E-02  0.8367127E-01
         -1   -1    0    0    0  501 -0.00000000000E+00  0.00000000000E+00  0.40750702522E+03  0.40750702522E+03  0.00000000000E+00 0.  1.
          1   -1    0    0  501    0  0.00000000000E+00 -0.00000000000E+00 -0.41572660537E+04  0.41572660537E+04  0.00000000000E+00 0. -1.
         23    2    1    2    0    0  0.68852310946E+03 -0.66316994446E+03 -0.33191200576E+03  0.10157539583E+04  0.87932228668E+02 0.  0.
         13    1    3    3    0    0  0.39405296377E+03 -0.32478964515E+03 -0.15633533480E+03  0.53404755290E+03  0.00000000000E+00 0.  1.
        -13    1    3    3    0    0  0.29447014569E+03 -0.33838029931E+03 -0.17557667097E+03  0.48170640545E+03  0.00000000000E+00 0. -1.
         22    1    1    2    0    0 -0.68852310946E+03  0.66316994446E+03 -0.34178470227E+04  0.35490191206E+04  0.00000000000E+00 0. -1.
<mgrwt>
<rscale>  0 0.26031636E+04</rscale>
<asrwt>0</asrwt>
<pdfrwt beam="1">  1        1 0.63957937E+00 0.26031636E+04</pdfrwt>
<pdfrwt beam="2">  1       -1 0.62693391E-01 0.26031636E+04</pdfrwt>
<totfact> 0.15776171E-01</totfact>
</mgrwt>
</event>
<event>
 6    1  0.1072514E-005  0.3750257E+04  0.7818608E-02  0.8056915E-01
          1   -1    0    0  501    0  0.00000000000E+00  0.00000000000E+00  0.28227295198E+04  0.28227295198E+04  0.00000000000E+00 0. -1.
         -1   -1    0    0    0  501 -0.00000000000E+00 -0.00000000000E+00 -0.12456409759E+04  0.12456409759E+04  0.00000000000E+00 0.  1.
         23    2    1    2    0    0 -0.65105417950E+03 -0.15263370015E+04  0.17333926970E+04  0.24016350113E+04  0.98103510532E+02 0.  0.
         13    1    3    3    0    0 -0.12737871944E+03 -0.40690859754E+03  0.45239254166E+03  0.62165823140E+03  0.00000000000E+00 0. -1.
        -13    1    3    3    0    0 -0.52367546006E+03 -0.11194284039E+04  0.12810001553E+04  0.17799767799E+04  0.00000000000E+00 0.  1.
         22    1    1    2    0    0  0.65105417950E+03  0.15263370015E+04 -0.15630415307E+03  0.16667354844E+04  0.00000000000E+00 0.  1.
<mgrwt>
<rscale>  0 0.37502574E+04</rscale>
<asrwt>0</asrwt>
<pdfrwt beam="1">  1        1 0.43426608E+00 0.37502574E+04</pdfrwt>
<pdfrwt beam="2">  1       -1 0.19163707E+00 0.37502574E+04</pdfrwt>
<totfact> 0.11033880E-01</totfact>
</mgrwt>
</event>
<event>
 6    1  0.1072514E-005  0.9818860E+03  0.7818608E-02  0.9328638E-01
          2   -1    0    0  501    0  0.00000000000E+00  0.00000000000E+00  0.11255681682E+04  0.11255681682E+04  0.00000000000E+00 0. -1.
         -2   -1    0    0    0  501 -0.00000000000E+00 -0.00000000000E+00 -0.21413634318E+03  0.21413634318E+03  0.00000000000E+00 0.  1.
         23    2    1    2    0    0 -0.30658111536E+03 -0.29067793376E+03  0.78944022698E+03  0.89996869132E+03  0.90786187893E+02 0.  0.
         11    1    3    3    0    0 -0.24672109637E+03 -0.18004302721E+03  0.58487622410E+03  0.65982345257E+03  0.00000000000E+00 0.  1.
        -11    1    3    3    0    0 -0.59860018985E+02 -0.11063490655E+03  0.20456400288E+03  0.24014523875E+03  0.00000000000E+00 0. -1.
         22    1    1    2    0    0  0.30658111536E+03  0.29067793376E+03  0.12199159807E+03  0.43973582009E+03  0.00000000000E+00 0.  1.
<mgrwt>
<rscale>  0 0.98188605E+03</rscale>
<asrwt>0</asrwt>
<pdfrwt beam="1">  1        2 0.17316433E+00 0.98188605E+03</pdfrwt>
<pdfrwt beam="2">  1       -2 0.32944053E-01 0.98188605E+03</pdfrwt>
<totfact> 0.18026231E+02</totfact>
</mgrwt>
</event>
<event>
 6    1  0.1309876E-005  0.2545023E+04  0.7818608E-02  0.8387119E-01
         -1   -1    0    0    0  501 -0.00000000000E+00  0.00000000000E+00  0.82478906420E+03  0.82478906420E+03  0.00000000000E+00 0.  1.
          1   -1    0    0  501    0  0.00000000000E+00 -0.00000000000E+00 -0.19632720753E+04  0.19632720753E+04  0.00000000000E+00 0. -1.
         23    2    1    2    0    0 -0.78327917946E+03 -0.24846087104E+03 -0.16320391104E+04  0.18294910062E+04  0.90700640818E+02 0.  0.
         13    1    3    3    0    0 -0.50454504618E+03 -0.15590337219E+03 -0.95013933669E+03  0.10870309675E+04  0.00000000000E+00 0.  1.
        -13    1    3    3    0    0 -0.27873413329E+03 -0.92557498851E+02 -0.68189977375E+03  0.74246003872E+03  0.00000000000E+00 0. -1.
         22    1    1    2    0    0  0.78327917946E+03  0.24846087104E+03  0.49355609931E+03  0.95857013337E+03  0.00000000000E+00 0.  1.
<mgrwt>
<rscale>  0 0.25450229E+04</rscale>
<asrwt>0</asrwt>
<pdfrwt beam="1">  1        1 0.30204185E+00 0.25450229E+04</pdfrwt>
<pdfrwt beam="2">  1       -1 0.12689063E+00 0.25450229E+04</pdfrwt>
<totfact> 0.15052324E+00</totfact>
</mgrwt>
</event>
<event>
 6    1  0.1072514E-005  0.3090208E+04  0.7818608E-02  0.8218430E-01
          1   -1    0    0  501    0  0.00000000000E+00  0.00000000000E+00  0.31718293017E+04  0.31718293017E+04  0.00000000000E+00 0. -1.
         -1   -1    0    0    0  501 -0.00000000000E+00 -0.00000000000E+00 -0.75267193701E+03  0.75267193701E+03  0.00000000000E+00 0.  1.
         23    2    1    2    0    0 -0.11919918508E+04  0.97755760676E+03  0.13158548662E+04  0.20287850548E+04  0.89617647340E+02 0.  0.
         11    1    3    3    0    0 -0.97003041182E+03  0.74983900204E+03  0.10552460883E+04  0.16176408241E+04  0.00000000000E+00 0.  1.
        -11    1    3    3    0    0 -0.22196143897E+03  0.22771860472E+03  0.26060877790E+03  0.41114423071E+03  0.00000000000E+00 0. -1.
         22    1    1    2    0    0  0.11919918508E+04 -0.97755760676E+03  0.11033024985E+04  0.18957161840E+04  0.00000000000E+00 0. -1.
<mgrwt>
<rscale>  0 0.30902083E+04</rscale>
<asrwt>0</asrwt>
<pdfrwt beam="1">  1        1 0.48797373E+00 0.30902083E+04</pdfrwt>
<pdfrwt beam="2">  1       -1 0.11579568E+00 0.30902083E+04</pdfrwt>
<totfact> 0.25419374E-01</totfact>
</mgrwt>
</event>
<event>
 6    1  0.1072514E-005  0.3856685E+04  0.7818608E-02  0.8034099E-01
         -2   -1    0    0    0  501 -0.00000000000E+00  0.00000000000E+00  0.22160886532E+04  0.22160886532E+04  0.00000000000E+00 0.  1.
          2   -1    0    0  501    0  0.00000000000E+00 -0.00000000000E+00 -0.16779585091E+04  0.16779585091E+04  0.00000000000E+00 0. -1.
         23    2    1    2    0    0  0.80379830274E+03  0.13797297618E+04  0.13587716904E+04  0.20987203188E+04  0.92846879861E+02 0.  0.
         13    1    3    3    0    0  0.22110444572E+03  0.31343455579E+03  0.35463444388E+03  0.52239255878E+03  0.00000000000E+00 0.  1.
        -13    1    3    3    0    0  0.58269385701E+03  0.10662952060E+04  0.10041372465E+04  0.15763277601E+04  0.00000000000E+00 0. -1.
         22    1    1    2    0    0 -0.80379830274E+03 -0.13797297618E+04 -0.82064154628E+03  0.17953268434E+04  0.00000000000E+00 0. -1.
<mgrwt>
<rscale>  0 0.38566850E+04</rscale>
<asrwt>0</asrwt>
<pdfrwt beam="1">  1        2 0.25814746E+00 0.38566850E+04</pdfrwt>
<pdfrwt beam="2">  1       -2 0.34093671E+00 0.38566850E+04</pdfrwt>
<totfact> 0.14279017E-01</totfact>
</mgrwt>
</event>
<event>
 6    1  0.1072514E-005  0.1581858E+04  0.7818608E-02  0.8831771E-01
          1   -1    0    0  501    0  0.00000000000E+00  0.00000000000E+00  0.48693056666E+03  0.48693056666E+03  0.00000000000E+00 0. -1.
         -1   -1    0    0    0  501 -0.00000000000E+00 -0.00000000000E+00 -0.12847187567E+04  0.12847187567E+04  0.00000000000E+00 0.  1.
         23    2    1    2    0    0 -0.99362675658E+02  0.39689705476E+03  0.35434185269E+03  0.54902761215E+03  0.92048666178E+02 0.  0.
         11    1    3    3    0    0 -0.55770709013E+02  0.22464901313E+03  0.13958843878E+03  0.27030072757E+03  0.00000000000E+00 0. -1.
        -11    1    3    3    0    0 -0.43591966645E+02  0.17224804162E+03  0.21475341391E+03  0.27872688458E+03  0.00000000000E+00 0.  1.
         22    1    1    2    0    0  0.99362675658E+02 -0.39689705476E+03 -0.11521300428E+04  0.12226217112E+04  0.00000000000E+00 0.  1.
<mgrwt>
<rscale>  0 0.15818582E+04</rscale>
<asrwt>0</asrwt>
<pdfrwt beam="1">  1        1 0.74912395E-01 0.15818582E+04</pdfrwt>
<pdfrwt beam="2">  1       -1 0.19764904E+00 0.15818582E+04</pdfrwt>
<totfact> 0.69013976E+00</totfact>
</mgrwt>
</event>
<event>
 6    1  0.1072514E-005  0.2687346E+04  0.7818608E-02  0.8339122E-01
          2   -1    0    0  501    0  0.00000000000E+00  0.00000000000E+00  0.11249002716E+04  0.11249002716E+04  0.00000000000E+00 0. -1.
         -2   -1    0    0    0  501 -0.00000000000E+00 -0.00000000000E+00 -0.16049934396E+04  0.16049934396E+04  0.00000000000E+00 0.  1.
         23    2    1    2    0    0 -0.27109922784E+03 -0.67282395800E+03  0.90686395375E+03  0.11646982195E+04  0.89066504138E+02 0.  0.
         13    1    3    3    0    0 -0.96209423342E+02 -0.35261844618E+03  0.43287547587E+03  0.56654849690E+03  0.00000000000E+00 0. -1.
        -13    1    3    3    0    0 -0.17488980450E+03 -0.32020551182E+03  0.47398847788E+03  0.59814972263E+03  0.00000000000E+00 0.  1.
         22    1    1    2    0    0  0.27109922784E+03  0.67282395800E+03 -0.13869571217E+04  0.15651954917E+04  0.00000000000E+00 0.  1.
<mgrwt>
<rscale>  0 0.26873463E+04</rscale>
<asrwt>0</asrwt>
<pdfrwt beam="1">  1        2 0.17306158E+00 0.26873463E+04</pdfrwt>
<pdfrwt beam="2">  1       -2 0.24692207E+00 0.26873463E+04</pdfrwt>
<totfact> 0.12398022E+00</totfact>
</mgrwt>
</event>
<event>
 6    1  0.1072514E-005  0.7282388E+03  0.7818608E-02  0.9670123E-01
          3   -1    0    0  501    0  0.00000000000E+00  0.00000000000E+00  0.28400400958E+03  0.28400400958E+03  0.00000000000E+00 0.  1.
         -3   -1    0    0    0  501 -0.00000000000E+00 -0.00000000000E+00 -0.46683472192E+03  0.46683472192E+03  0.00000000000E+00 0. -1.
         23    2    1    2    0    0  0.21940653027E+03 -0.20481254987E+03  0.10897013514E+03  0.33222776568E+03  0.91724543201E+02 0.  0.
         13    1    3    3    0    0  0.11708338929E+03 -0.13317507279E+03  0.10739334396E+03  0.20731003446E+03  0.00000000000E+00 0. -1.
        -13    1    3    3    0    0  0.10232314099E+03 -0.71637477078E+02  0.15767911836E+01  0.12491773122E+03  0.00000000000E+00 0.  1.
         22    1    1    2    0    0 -0.21940653027E+03  0.20481254987E+03 -0.29180084749E+03  0.41861096582E+03  0.00000000000E+00 0. -1.
<mgrwt>
<rscale>  0 0.72823879E+03</rscale>
<asrwt>0</asrwt>
<pdfrwt beam="1">  1        3 0.43692925E-01 0.72823879E+03</pdfrwt>
<pdfrwt beam="2">  1       -3 0.71820726E-01 0.72823879E+03</pdfrwt>
<totfact> 0.25349784E+01</totfact>
</mgrwt>
</event>
<event>
 6    1  0.1072514E-005  0.1133373E+04  0.7818608E-02  0.9173262E-01
         -2   -1    0    0    0  501 -0.00000000000E+00  0.00000000000E+00  0.11352069051E+03  0.11352069051E+03  0.00000000000E+00 0.  1.
          2   -1    0    0  501    0  0.00000000000E+00 -0.00000000000E+00 -0.28288531290E+04  0.28288531290E+04  0.00000000000E+00 0. -1.
         23    2    1    2    0    0  0.31434511690E+02  0.55510391934E+03 -0.11358527500E+04  0.12678934296E+04  0.90905386916E+02 0.  0.
         13    1    3    3    0    0 -0.48496738286E+01  0.25474579172E+03 -0.42804419378E+03  0.49813729991E+03  0.00000000000E+00 0. -1.
        -13    1    3    3    0    0  0.36284185518E+02  0.30035812762E+03 -0.70780855625E+03  0.76975612973E+03  0.00000000000E+00 0.  1.
         22    1    1    2    0    0 -0.31434511690E+02 -0.55510391934E+03 -0.15794796885E+04  0.16744803899E+04  0.00000000000E+00 0. -1.
<mgrwt>
<rscale>  0 0.11333726E+04</rscale>
<asrwt>0</asrwt>
<pdfrwt beam="1">  1        2 0.43520815E+00 0.11333726E+04</pdfrwt>
<pdfrwt beam="2">  1       -2 0.17464723E-01 0.11333726E+04</pdfrwt>
<totfact> 0.60395797E+01</totfact>
</mgrwt>
</event>
<event>
 6    1  0.1208889E-005  0.3650377E+04  0.7818608E-02  0.8079049E-01
         -2   -1    0    0    0  501 -0.00000000000E+00  0.00000000000E+00  0.20109933646E+04  0.20109933646E+04  0.00000000000E+00 0.  1.
          2   -1    0    0  501    0  0.00000000000E+00 -0.00000000000E+00 -0.16565506197E+04  0.16565506197E+04  0.00000000000E+00 0. -1.
         23    2    1    2    0    0 -0.13730738232E+04  0.10501844998E+04  0.76353061747E+03  0.18911509829E+04  0.72483300682E+02 0.  0.
         11    1    3    3    0    0 -0.55614435813E+03  0.46435848918E+03  0.30029581078E+03  0.78428497852E+03  0.00000000000E+00 0.  1.
        -11    1    3    3    0    0 -0.81692946507E+03  0.58582601063E+03  0.46323480668E+03  0.11068660044E+04  0.00000000000E+00 0. -1.
         22    1    1    2    0    0  0.13730738232E+04 -0.10501844998E+04 -0.40908787261E+03  0.17763930013E+04  0.00000000000E+00 0. -1.
<mgrwt>
<rscale>  0 0.36503766E+04</rscale>
<asrwt>0</asrwt>
<pdfrwt beam="1">  1        2 0.25485394E+00 0.36503766E+04</pdfrwt>
<pdfrwt beam="2">  1       -2 0.30938359E+00 0.36503766E+04</pdfrwt>
<totfact> 0.23426522E-01</totfact>
</mgrwt>
</event>
<event>
 6    1  0.1072514E-005  0.4265480E+04  0.7818608E-02  0.7953032E-01
         -2   -1    0    0    0  501 -0.00000000000E+00  0.00000000000E+00  0.13262749794E+04  0.13262749794E+04  0.00000000000E+00 0.  1.
          2   -1    0    0  501    0  0.00000000000E+00 -0.00000000000E+00 -0.34295900392E+04  0.34295900392E+04  0.00000000000E+00 0. -1.
         23    2    1    2    0    0  0.39022666493E+03 -0.20896888946E+04 -0.12290740364E+04  0.24573059280E+04  0.93021021991E+02 0.  0.
         13    1    3    3    0    0  0.23532010549E+03 -0.10165314201E+04 -0.61745538803E+03  0.12124202391E+04  0.00000000000E+00 0.  1.
        -13    1    3    3    0    0  0.15490655944E+03 -0.10731574745E+04 -0.61161864840E+03  0.12448856889E+04  0.00000000000E+00 0. -1.
         22    1    1    2    0    0 -0.39022666493E+03  0.20896888946E+04 -0.87424102337E+03  0.22985590906E+04  0.00000000000E+00 0.  1.
<mgrwt>
<rscale>  0 0.42654798E+04</rscale>
<asrwt>0</asrwt>
<pdfrwt beam="1">  1        2 0.52762923E+00 0.42654798E+04</pdfrwt>
<pdfrwt beam="2">  1       -2 0.20404231E+00 0.42654798E+04</pdfrwt>
<totfact> 0.87778998E-02</totfact>
</mgrwt>
</event>
<event>
 6    1  0.1072514E-005  0.4626528E+03  0.7818608E-02  0.1024015E+00
         -2   -1    0    0    0  501 -0.00000000000E+00  0.00000000000E+00  0.11104348210E+03  0.11104348210E+03  0.00000000000E+00 0.  1.
          2   -1    0    0  501    0  0.00000000000E+00 -0.00000000000E+00 -0.48190054364E+03  0.48190054364E+03  0.00000000000E+00 0. -1.
         23    2    1    2    0    0  0.45351537557E+02 -0.21567848390E+03 -0.16331921504E+03  0.29021324087E+03  0.94744861600E+02 0.  0.
         11    1    3    3    0    0  0.21938888839E+02 -0.13964613397E+03 -0.46370132991E+02  0.14877011397E+03  0.00000000000E+00 0.  1.
        -11    1    3    3    0    0  0.23412648718E+02 -0.76032349925E+02 -0.11694908205E+03  0.14144312690E+03  0.00000000000E+00 0. -1.
         22    1    1    2    0    0 -0.45351537557E+02  0.21567848390E+03 -0.20753784650E+03  0.30273078486E+03  0.00000000000E+00 0.  1.
<mgrwt>
<rscale>  0 0.46265285E+03</rscale>
<asrwt>0</asrwt>
<pdfrwt beam="1">  1        2 0.74138544E-01 0.46265285E+03</pdfrwt>
<pdfrwt beam="2">  1       -2 0.17083613E-01 0.46265285E+03</pdfrwt>
<totfact> 0.17963943E+03</totfact>
</mgrwt>
</event>
<event>
 6    1  0.1072514E-005  0.2347633E+04  0.7818608E-02  0.8459373E-01
         -1   -1    0    0    0  501 -0.00000000000E+00  0.00000000000E+00  0.59047000831E+03  0.59047000831E+03  0.00000000000E+00 0.  1.
          1   -1    0    0  501    0  0.00000000000E+00 -0.00000000000E+00 -0.23334716690E+04  0.23334716690E+04  0.00000000000E+00 0. -1.
         23    2    1    2    0    0 -0.58038585535E+03  0.17329078367E+03 -0.21225356908E+04  0.22091525359E+04  0.91212559813E+02 0.  0.
         11    1    3    3    0    0 -0.35208704551E+03  0.58226725566E+02 -0.12421935926E+04  0.12924397706E+04  0.00000000000E+00 0. -1.
        -11    1    3    3    0    0 -0.22829880984E+03  0.11506405811E+03 -0.88034209824E+03  0.91671276525E+03  0.00000000000E+00 0.  1.
         22    1    1    2    0    0  0.58038585535E+03 -0.17329078367E+03  0.37953403009E+03  0.71478914149E+03  0.00000000000E+00 0.  1.
<mgrwt>
<rscale>  0 0.23476329E+04</rscale>
<asrwt>0</asrwt>
<pdfrwt beam="1">  1        1 0.35899565E+00 0.23476329E+04</pdfrwt>
<pdfrwt beam="2">  1       -1 0.90841537E-01 0.23476329E+04</pdfrwt>
<totfact> 0.18799677E+00</totfact>
</mgrwt>
</event>
<event>
 6    1  0.1072514E-005  0.3703850E+04  0.7818608E-02  0.8067109E-01
         -2   -1    0    0    0  501 -0.00000000000E+00  0.00000000000E+00  0.13507398314E+04  0.13507398314E+04  0.00000000000E+00 0.  1.
          2   -1    0    0  501    0  0.00000000000E+00 -0.00000000000E+00 -0.25390730055E+04  0.25390730055E+04  0.00000000000E+00 0. -1.
         23    2    1    2    0    0 -0.17643020243E+03 -0.14344713466E+04 -0.18086525708E+04  0.23170344626E+04  0.92676419623E+02 0.  0.
         13    1    3    3    0    0  0.11131083423E+02 -0.10287521147E+03 -0.13326005871E+03  0.16871708094E+03  0.00000000000E+00 0.  1.
        -13    1    3    3    0    0 -0.18756128585E+03 -0.13315961351E+04 -0.16753925120E+04  0.21483173817E+04  0.00000000000E+00 0. -1.
         22    1    1    2    0    0  0.17643020243E+03  0.14344713466E+04  0.62031939670E+03  0.15727783743E+04  0.00000000000E+00 0.  1.
<mgrwt>
<rscale>  0 0.37038505E+04</rscale>
<asrwt>0</asrwt>
<pdfrwt beam="1">  1        2 0.39062661E+00 0.37038505E+04</pdfrwt>
<pdfrwt beam="2">  1       -2 0.20780613E+00 0.37038505E+04</pdfrwt>
<totfact> 0.31581679E-01</totfact>
</mgrwt>
</event>
<event>
 6    1  0.1072514E-005  0.1155246E+04  0.7818608E-02  0.9152958E-01
          1   -1    0    0  501    0  0.00000000000E+00  0.00000000000E+00  0.54883304530E+03  0.54883304530E+03  0.00000000000E+00 0. -1.
         -1   -1    0    0    0  501 -0.00000000000E+00 -0.00000000000E+00 -0.60792283015E+03  0.60792283015E+03  0.00000000000E+00 0.  1.
         23    2    1    2    0    0 -0.14859906507E+02 -0.22763073204E+03 -0.55724719325E+03  0.60885317375E+03  0.90228519961E+02 0.  0.
         13    1    3    3    0    0 -0.16075665024E+02 -0.47076968472E+02 -0.22783256321E+03  0.23320022476E+03  0.00000000000E+00 0.  1.
        -13    1    3    3    0    0  0.12157585165E+01 -0.18055376357E+03 -0.32941463004E+03  0.37565294900E+03  0.00000000000E+00 0. -1.
         22    1    1    2    0    0  0.14859906507E+02  0.22763073204E+03  0.49815740840E+03  0.54790270170E+03  0.00000000000E+00 0. -1.
<mgrwt>
<rscale>  0 0.11552457E+04</rscale>
<asrwt>0</asrwt>
<pdfrwt beam="1">  1        1 0.84435853E-01 0.11552457E+04</pdfrwt>
<pdfrwt beam="2">  1       -1 0.93526589E-01 0.11552457E+04</pdfrwt>
<totfact> 0.42862465E+01</totfact>
</mgrwt>
</event>
<event>
 6    1  0.1072514E-005  0.4955569E+04  0.7818608E-02  0.7835398E-01
          1   -1    0    0  501    0  0.00000000000E+00  0.00000000000E+00  0.38641636770E+04  0.38641636770E+04  0.00000000000E+00 0. -1.
         -1   -1    0    0    0  501 -0.00000000000E+00 -0.00000000000E+00 -0.15888084905E+04  0.15888084905E+04  0.00000000000E+00 0.  1.
         23    2    1    2    0    0 -0.24201153017E+04 -0.52149271953E+03  0.12174462560E+04  0.27607455732E+04  0.10309221129E+03 0.  0.
         11    1    3    3    0    0 -0.12678269851E+04 -0.26199752944E+03  0.69263651994E+03  0.14682551953E+04  0.00000000000E+00 0.  1.
        -11    1    3    3    0    0 -0.11522883165E+04 -0.25949519009E+03  0.52480973608E+03  0.12924903780E+04  0.00000000000E+00 0. -1.
         22    1    1    2    0    0  0.24201153017E+04  0.52149271953E+03  0.10579089304E+04  0.26922265943E+04  0.00000000000E+00 0. -1.
<mgrwt>
<rscale>  0 0.49555690E+04</rscale>
<asrwt>0</asrwt>
<pdfrwt beam="1">  1        1 0.59448672E+00 0.49555690E+04</pdfrwt>
<pdfrwt beam="2">  1       -1 0.24443208E+00 0.49555690E+04</pdfrwt>
<totfact> 0.68916349E-03</totfact>
</mgrwt>
</event>
<event>
 6    1  0.1072514E-005  0.2053749E+04  0.7818608E-02  0.8581896E-01
         -1   -1    0    0    0  501 -0.00000000000E+00  0.00000000000E+00  0.10440992683E+04  0.10440992683E+04  0.00000000000E+00 0.  1.
          1   -1    0    0  501    0  0.00000000000E+00 -0.00000000000E+00 -0.10099337846E+04  0.10099337846E+04  0.00000000000E+00 0. -1.
         23    2    1    2    0    0 -0.90743194995E+03  0.45064242451E+03 -0.13701230178E+03  0.10265053536E+04  0.91812479993E+02 0.  0.
         13    1    3    3    0    0 -0.22803574105E+02  0.29059499314E+02 -0.10649499184E+02  0.38443066022E+02  0.00000000000E+00 0.  1.
        -13    1    3    3    0    0 -0.88462837584E+03  0.42158292519E+03 -0.12636280259E+03  0.98806228753E+03  0.00000000000E+00 0. -1.
         22    1    1    2    0    0  0.90743194995E+03 -0.45064242451E+03  0.17117778547E+03  0.10275276993E+04  0.00000000000E+00 0.  1.
<mgrwt>
<rscale>  0 0.20537489E+04</rscale>
<asrwt>0</asrwt>
<pdfrwt beam="1">  1        1 0.15537443E+00 0.20537489E+04</pdfrwt>
<pdfrwt beam="2">  1       -1 0.16063066E+00 0.20537489E+04</pdfrwt>
<totfact> 0.39670279E+00</totfact>
</mgrwt>
</event>
<event>
 6    1  0.1072514E-005  0.4133530E+04  0.7818608E-02  0.7978138E-01
         -2   -1    0    0    0  501 -0.00000000000E+00  0.00000000000E+00  0.15541112489E+04  0.15541112489E+04  0.00000000000E+00 0.  1.
          2   -1    0    0  501    0  0.00000000000E+00 -0.00000000000E+00 -0.27485269072E+04  0.27485269072E+04  0.00000000000E+00 0. -1.
         23    2    1    2    0    0  0.17580783245E+04 -0.39768061109E+03  0.45284371861E+03  0.18608247484E+04  0.92801115212E+02 0.  0.
         13    1    3    3    0    0  0.63905614099E+03 -0.16223963190E+03  0.12323304445E+03  0.67074647427E+03  0.00000000000E+00 0. -1.
        -13    1    3    3    0    0  0.11190221835E+04 -0.23544097919E+03  0.32961067416E+03  0.11900782741E+04  0.00000000000E+00 0.  1.
         22    1    1    2    0    0 -0.17580783245E+04  0.39768061109E+03 -0.16472593769E+04  0.24418134078E+04  0.00000000000E+00 0. -1.
<mgrwt>
<rscale>  0 0.41335295E+04</rscale>
<asrwt>0</asrwt>
<pdfrwt beam="1">  1        2 0.42285029E+00 0.41335295E+04</pdfrwt>
<pdfrwt beam="2">  1       -2 0.23909404E+00 0.41335295E+04</pdfrwt>
<totfact> 0.14542930E-01</totfact>
</mgrwt>
</event>
<event>
 6    1  0.1072514E-005  0.9438313E+03  0.7818608E-02  0.9372390E-01
          1   -1    0    0  501    0  0.00000000000E+00  0.00000000000E+00  0.43625426976E+03  0.43625426976E+03  0.00000000000E+00 0. -1.
         -1   -1    0    0    0  501 -0.00000000000E+00 -0.00000000000E+00 -0.51049213324E+03  0.51049213324E+03  0.00000000000E+00 0.  1.
         23    2    1    2    0    0  0.67643376653E+01 -0.45905885709E+03  0.51284512902E+02  0.47078773094E+03  0.90720426636E+02 0.  0.
         11    1    3    3    0    0 -0.22339698306E+02 -0.34843651827E+03  0.10376795114E+02  0.34930609394E+03  0.00000000000E+00 0.  1.
        -11    1    3    3    0    0  0.29104035971E+02 -0.11062233881E+03  0.40907717788E+02  0.12148163700E+03  0.00000000000E+00 0. -1.
         22    1    1    2    0    0 -0.67643376653E+01  0.45905885709E+03 -0.12552237638E+03  0.47595867206E+03  0.00000000000E+00 0.  1.
<mgrwt>
<rscale>  0 0.94383128E+03</rscale>
<asrwt>0</asrwt>
<pdfrwt beam="1">  1        1 0.67116042E-01 0.94383128E+03</pdfrwt>
<pdfrwt beam="2">  1       -1 0.78537251E-01 0.94383128E+03</pdfrwt>
<totfact> 0.87181682E+01</totfact>
</mgrwt>
</event>
<event>
 6    1  0.1072514E-005  0.2471493E+04  0.7818608E-02  0.8413212E-01
          2   -1    0    0  501    0  0.00000000000E+00  0.00000000000E+00  0.13880284127E+04  0.13880284127E+04  0.00000000000E+00 0. -1.
         -2   -1    0    0    0  501 -0.00000000000E+00 -0.00000000000E+00 -0.11001715460E+04  0.11001715460E+04  0.00000000000E+00 0.  1.
         23    2    1    2    0    0 -0.86785211195E+03  0.39938504240E+03 -0.64243601126E+03  0.11547380961E+04  0.89556360438E+02 0.  0.
         13    1    3    3    0    0 -0.42791504260E+03  0.24442295043E+03 -0.34437867746E+03  0.60120756471E+03  0.00000000000E+00 0. -1.
        -13    1    3    3    0    0 -0.43993706935E+03  0.15496209197E+03 -0.29805733380E+03  0.55353053138E+03  0.00000000000E+00 0.  1.
         22    1    1    2    0    0  0.86785211195E+03 -0.39938504240E+03  0.93029287795E+03  0.13334618626E+04  0.00000000000E+00 0. -1.
<mgrwt>
<rscale>  0 0.24714930E+04</rscale>
<asrwt>0</asrwt>
<pdfrwt beam="1">  1        2 0.21354283E+00 0.24714930E+04</pdfrwt>
<pdfrwt beam="2">  1       -2 0.16925716E+00 0.24714930E+04</pdfrwt>
<totfact> 0.28358303E+00</totfact>
</mgrwt>
</event>
<event>
 6    1  0.1072514E-005  0.4120520E+04  0.7818608E-02  0.7980666E-01
          2   -1    0    0  501    0  0.00000000000E+00  0.00000000000E+00  0.35419109071E+04  0.35419109071E+04  0.00000000000E+00 0. -1.
         -2   -1    0    0    0  501 -0.00000000000E+00 -0.00000000000E+00 -0.11984129183E+04  0.11984129183E+04  0.00000000000E+00 0.  1.
         23    2    1    2    0    0  0.13327905270E+04 -0.14989848817E+03 -0.62531092931E+03  0.14826211782E+04  0.91387386085E+02 0.  0.
         13    1    3    3    0    0  0.67816060041E+03 -0.47223648853E+02 -0.35570302420E+03  0.76723954173E+03  0.00000000000E+00 0. -1.
        -13    1    3    3    0    0  0.65462992655E+03 -0.10267483932E+03 -0.26960790511E+03  0.71538163651E+03  0.00000000000E+00 0.  1.
         22    1    1    2    0    0 -0.13327905270E+04  0.14989848817E+03  0.29688089181E+04  0.32577026472E+04  0.00000000000E+00 0. -1.
<mgrwt>
<rscale>  0 0.41205203E+04</rscale>
<asrwt>0</asrwt>
<pdfrwt beam="1">  1        2 0.54490937E+00 0.41205203E+04</pdfrwt>
<pdfrwt beam="2">  1       -2 0.18437122E+00 0.41205203E+04</pdfrwt>
<totfact> 0.10021341E-01</totfact>
</mgrwt>
</event>
<event>
 6    1  0.1072514E-005  0.1202099E+04  0.7818608E-02  0.9111021E-01
         -1   -1    0    0    0  501 -0.00000000000E+00  0.00000000000E+00  0.41377354118E+03  0.41377354118E+03  0.00000000000E+00 0.  1.
          1   -1    0    0  501    0  0.00000000000E+00 -0.00000000000E+00 -0.87308765321E+03  0.87308765321E+03  0.00000000000E+00 0. -1.
         23    2    1    2    0    0  0.18897844674E+03 -0.54844193031E+03 -0.77815435387E+02  0.59256828464E+03  0.92631127195E+02 0.  0.
         11    1    3    3    0    0  0.60320416527E+01 -0.31188925217E+02  0.16612934397E+02  0.35848628593E+02  0.00000000000E+00 0.  1.
        -11    1    3    3    0    0  0.18294640509E+03 -0.51725300509E+03 -0.94428369785E+02  0.55671965605E+03  0.00000000000E+00 0. -1.
         22    1    1    2    0    0 -0.18897844674E+03  0.54844193031E+03 -0.38149867665E+03  0.69429290975E+03  0.00000000000E+00 0. -1.
<mgrwt>
<rscale>  0 0.12020991E+04</rscale>
<asrwt>0</asrwt>
<pdfrwt beam="1">  1        1 0.13432118E+00 0.12020991E+04</pdfrwt>
<pdfrwt beam="2">  1       -1 0.63657469E-01 0.12020991E+04</pdfrwt>
<totfact> 0.47444302E+01</totfact>
</mgrwt>
</event>
<event>
 6    1  0.1072514E-005  0.3579778E+04  0.7818608E-02  0.8095140E-01
          2   -1    0    0  501    0  0.00000000000E+00  0.00000000000E+00  0.13646549986E+04  0.13646549986E+04  0.00000000000E+00 0. -1.
         -2   -1    0    0    0  501 -0.00000000000E+00 -0.00000000000E+00 -0.23476276055E+04  0.23476276055E+04  0.00000000000E+00 0.  1.
         23    2    1    2    0    0 -0.26803386890E+03 -0.17616340671E+04 -0.32987491194E+03  0.18144592878E+04  0.90820197862E+02 0.  0.
         13    1    3    3    0    0 -0.26592297910E+03 -0.15892724274E+04 -0.28548317804E+03  0.16364603644E+04  0.00000000000E+00 0.  1.
        -13    1    3    3    0    0 -0.21108898048E+01 -0.17236163964E+03 -0.44391733906E+02  0.17799892335E+03  0.00000000000E+00 0. -1.
         22    1    1    2    0    0  0.26803386890E+03  0.17616340671E+04 -0.65309769492E+03  0.18978233164E+04  0.00000000000E+00 0.  1.
<mgrwt>
<rscale>  0 0.35797775E+04</rscale>
<asrwt>0</asrwt>
<pdfrwt beam="1">  1        2 0.20994692E+00 0.35797775E+04</pdfrwt>
<pdfrwt beam="2">  1       -2 0.36117348E+00 0.35797775E+04</pdfrwt>
<totfact> 0.16355059E-01</totfact>
</mgrwt>
</event>
<event>
 6    1  0.1072514E-005  0.4527156E+04  0.7818608E-02  0.7905900E-01
          2   -1    0    0  501    0  0.00000000000E+00  0.00000000000E+00  0.30880739842E+04  0.30880739842E+04  0.00000000000E+00 0. -1.
         -2   -1    0    0    0  501 -0.00000000000E+00 -0.00000000000E+00 -0.16592171424E+04  0.16592171424E+04  0.00000000000E+00 0.  1.
         23    2    1    2    0    0  0.14589336632E+04  0.47637531871E+03  0.24581474068E+04  0.28993571600E+04  0.91446102527E+02 0.  0.
         13    1    3    3    0    0  0.11852258731E+04  0.38793763255E+03  0.20620788769E+04  0.24098600108E+04  0.00000000000E+00 0. -1.
        -13    1    3    3    0    0  0.27370779008E+03  0.88437686166E+02  0.39606852992E+03  0.48949714920E+03  0.00000000000E+00 0.  1.
         22    1    1    2    0    0 -0.14589336632E+04 -0.47637531871E+03 -0.10292905650E+04  0.18479339666E+04  0.00000000000E+00 0.  1.
<mgrwt>
<rscale>  0 0.45271560E+04</rscale>
<asrwt>0</asrwt>
<pdfrwt beam="1">  1        2 0.47508830E+00 0.45271560E+04</pdfrwt>
<pdfrwt beam="2">  1       -2 0.25526418E+00 0.45271560E+04</pdfrwt>
<totfact> 0.69016826E-02</totfact>
</mgrwt>
</event>
<event>
 6    1  0.1072514E-005  0.1889296E+04  0.7818608E-02  0.8660203E-01
          2   -1    0    0  501    0  0.00000000000E+00  0.00000000000E+00  0.22332906028E+04  0.22332906028E+04  0.00000000000E+00 0. -1.
         -2   -1    0    0    0  501 -0.00000000000E+00 -0.00000000000E+00 -0.39957190092E+03  0.39957190092E+03  0.00000000000E+00 0.  1.
         23    2    1    2    0    0 -0.56122406652E+03 -0.48723297287E+03  0.11117635069E+03  0.75682397152E+03  0.89743636074E+02 0.  0.
         13    1    3    3    0    0 -0.41948041107E+03 -0.32501366392E+03  0.10713564917E+03  0.54136470547E+03  0.00000000000E+00 0.  1.
        -13    1    3    3    0    0 -0.14174365545E+03 -0.16221930895E+03  0.40407015241E+01  0.21545926605E+03  0.00000000000E+00 0. -1.
         22    1    1    2    0    0  0.56122406652E+03  0.48723297287E+03  0.17225423512E+04  0.18760385322E+04  0.00000000000E+00 0. -1.
<mgrwt>
<rscale>  0 0.18892963E+04</rscale>
<asrwt>0</asrwt>
<pdfrwt beam="1">  1        2 0.34358316E+00 0.18892963E+04</pdfrwt>
<pdfrwt beam="2">  1       -2 0.61472602E-01 0.18892963E+04</pdfrwt>
<totfact> 0.11406255E+01</totfact>
</mgrwt>
</event>
<event>
 6    1  0.1072514E-005  0.2042165E+04  0.7818608E-02  0.8587157E-01
          2   -1    0    0  501    0  0.00000000000E+00  0.00000000000E+00  0.99123021509E+03  0.99123021509E+03  0.00000000000E+00 0. -1.
         -2   -1    0    0    0  501 -0.00000000000E+00 -0.00000000000E+00 -0.10518334134E+04  0.10518334134E+04  0.00000000000E+00 0.  1.
         23    2    1    2    0    0  0.72472504997E+03 -0.66072498172E+03 -0.30737733505E+03  0.10317865279E+04  0.91206981947E+02 0.  0.
         13    1    3    3    0    0  0.47809985718E+03 -0.49029491967E+03 -0.20125057061E+03  0.71377193407E+03  0.00000000000E+00 0. -1.
        -13    1    3    3    0    0  0.24662519278E+03 -0.17043006205E+03 -0.10612676444E+03  0.31801459385E+03  0.00000000000E+00 0.  1.
         22    1    1    2    0    0 -0.72472504997E+03  0.66072498172E+03  0.24677413676E+03  0.10112771005E+04  0.00000000000E+00 0.  1.
<mgrwt>
<rscale>  0 0.20421646E+04</rscale>
<asrwt>0</asrwt>
<pdfrwt beam="1">  1        2 0.15249696E+00 0.20421646E+04</pdfrwt>
<pdfrwt beam="2">  1       -2 0.16182053E+00 0.20421646E+04</pdfrwt>
<totfact> 0.57695023E+00</totfact>
</mgrwt>
</event>
<event>
 6    1  0.1072514E-005  0.4520681E+04  0.7818608E-02  0.7907026E-01
         -1   -1    0    0    0  501 -0.00000000000E+00  0.00000000000E+00  0.12608839927E+04  0.12608839927E+04  0.00000000000E+00 0.  1.
          1   -1    0    0  501    0  0.00000000000E+00 -0.00000000000E+00 -0.40520287503E+04  0.40520287503E+04  0.00000000000E+00 0. -1.
         23    2    1    2    0    0 -0.12740247442E+04 -0.16356423968E+04 -0.24516003131E+04  0.32120187597E+04  0.90858783918E+02 0.  0.
         13    1    3    3    0    0 -0.10084322787E+04 -0.13522916926E+04 -0.19935594596E+04  0.26114953190E+04  0.00000000000E+00 0. -1.
        -13    1    3    3    0    0 -0.26559246550E+03 -0.28335070427E+03 -0.45804085348E+03  0.60052344067E+03  0.00000000000E+00 0.  1.
         22    1    1    2    0    0  0.12740247442E+04  0.16356423968E+04 -0.33954444450E+03  0.21008939832E+04  0.00000000000E+00 0.  1.
<mgrwt>
<rscale>  0 0.45206806E+04</rscale>
<asrwt>0</asrwt>
<pdfrwt beam="1">  1        1 0.62338902E+00 0.45206806E+04</pdfrwt>
<pdfrwt beam="2">  1       -1 0.19398216E+00 0.45206806E+04</pdfrwt>
<totfact> 0.10685012E-02</totfact>
</mgrwt>
</event>
<event>
 6    1  0.1072514E-005  0.3200075E+04  0.7818608E-02  0.8188797E-01
          2   -1    0    0  501    0  0.00000000000E+00  0.00000000000E+00  0.37951151486E+04  0.37951151486E+04  0.00000000000E+00 0. -1.
         -2   -1    0    0    0  501 -0.00000000000E+00 -0.00000000000E+00 -0.67458305911E+03  0.67458305911E+03  0.00000000000E+00 0.  1.
         23    2    1    2    0    0 -0.39052033663E+03 -0.69647821422E+03 -0.37205581364E+03  0.88699555505E+03  0.10367039120E+03 0.  0.
         13    1    3    3    0    0 -0.35588966570E+03 -0.56805695713E+03 -0.28749747252E+03  0.72938395746E+03  0.00000000000E+00 0. -1.
        -13    1    3    3    0    0 -0.34630670930E+02 -0.12842125709E+03 -0.84558341123E+02  0.15761159759E+03  0.00000000000E+00 0.  1.
         22    1    1    2    0    0  0.39052033663E+03  0.69647821422E+03  0.34925879031E+04  0.35827026526E+04  0.00000000000E+00 0. -1.
<mgrwt>
<rscale>  0 0.32000752E+04</rscale>
<asrwt>0</asrwt>
<pdfrwt beam="1">  1        2 0.58386385E+00 0.32000752E+04</pdfrwt>
<pdfrwt beam="2">  1       -2 0.10378201E+00 0.32000752E+04</pdfrwt>
<totfact> 0.31483121E-01</totfact>
</mgrwt>
</event>
<event>
 6    1  0.1072514E-005  0.1653411E+04  0.7818608E-02  0.8788391E-01
          2   -1    0    0  501    0  0.00000000000E+00  0.00000000000E+00  0.16672584316E+04  0.16672584316E+04  0.00000000000E+00 0. -1.
         -2   -1    0    0    0  501 -0.00000000000E+00 -0.00000000000E+00 -0.40991948461E+03  0.40991948461E+03  0.00000000000E+00 0.  1.
         23    2    1    2    0    0 -0.13120707203E+03  0.68337098223E+03  0.75418441143E+02  0.70562869097E+03  0.89513759575E+02 0.  0.
         13    1    3    3    0    0 -0.18637772730E+02  0.19417152300E+03 -0.14709983714E+02  0.19561781754E+03  0.00000000000E+00 0.  1.
        -13    1    3    3    0    0 -0.11256929930E+03  0.48919945923E+03  0.90128424857E+02  0.51001087344E+03  0.00000000000E+00 0. -1.
         22    1    1    2    0    0  0.13120707203E+03 -0.68337098223E+03  0.11819205058E+04  0.13715492252E+04  0.00000000000E+00 0. -1.
<mgrwt>
<rscale>  0 0.16534107E+04</rscale>
<asrwt>0</asrwt>
<pdfrwt beam="1">  1        2 0.25650129E+00 0.16534107E+04</pdfrwt>
<pdfrwt beam="2">  1       -2 0.63064537E-01 0.16534107E+04</pdfrwt>
<totfact> 0.22749970E+01</totfact>
</mgrwt>
</event>
<event>
 6    1  0.1072514E-005  0.9300026E+03  0.7818608E-02  0.9388835E-01
          1   -1    0    0  501    0  0.00000000000E+00  0.00000000000E+00  0.28017044530E+03  0.28017044530E+03  0.00000000000E+00 0. -1.
         -1   -1    0    0    0  501 -0.00000000000E+00 -0.00000000000E+00 -0.77176672029E+03  0.77176672029E+03  0.00000000000E+00 0.  1.
         23    2    1    2    0    0  0.24647402507E+03  0.33704456285E+03 -0.46702291553E+03  0.63366412991E+03  0.95243601000E+02 0.  0.
         13    1    3    3    0    0  0.62326638337E+02  0.29561821435E+02 -0.61018527180E+02  0.92096535180E+02  0.00000000000E+00 0. -1.
        -13    1    3    3    0    0  0.18414738673E+03  0.30748274142E+03 -0.40600438835E+03  0.54156759473E+03  0.00000000000E+00 0.  1.
         22    1    1    2    0    0 -0.24647402507E+03 -0.33704456285E+03 -0.24573359470E+02  0.41827303568E+03  0.00000000000E+00 0. -1.
<mgrwt>
<rscale>  0 0.93000264E+03</rscale>
<asrwt>0</asrwt>
<pdfrwt beam="1">  1        1 0.43103146E-01 0.93000264E+03</pdfrwt>
<pdfrwt beam="2">  1       -1 0.11873334E+00 0.93000264E+03</pdfrwt>
<totfact> 0.61329279E+01</totfact>
</mgrwt>
</event>
<event>
 6    1  0.1072514E-005  0.1522912E+04  0.7818608E-02  0.8869358E-01
          1   -1    0    0  501    0  0.00000000000E+00  0.00000000000E+00  0.10068357909E+04  0.10068357909E+04  0.00000000000E+00 0. -1.
         -1   -1    0    0    0  501 -0.00000000000E+00 -0.00000000000E+00 -0.57587838292E+03  0.57587838292E+03  0.00000000000E+00 0.  1.
         23    2    1    2    0    0  0.73108583700E+03  0.11577681616E+03  0.38923505004E+03  0.84134279093E+03  0.91994540383E+02 0.  0.
         11    1    3    3    0    0  0.41662659924E+03  0.10344992528E+03  0.25418420226E+03  0.49888798233E+03  0.00000000000E+00 0.  1.
        -11    1    3    3    0    0  0.31445923776E+03  0.12326890874E+02  0.13505084777E+03  0.34245480860E+03  0.00000000000E+00 0. -1.
         22    1    1    2    0    0 -0.73108583700E+03 -0.11577681616E+03  0.41722357962E+02  0.74137138289E+03  0.00000000000E+00 0. -1.
<mgrwt>
<rscale>  0 0.15229116E+04</rscale>
<asrwt>0</asrwt>
<pdfrwt beam="1">  1        1 0.15489781E+00 0.15229116E+04</pdfrwt>
<pdfrwt beam="2">  1       -1 0.88596674E-01 0.15229116E+04</pdfrwt>
<totfact> 0.18051015E+01</totfact>
</mgrwt>
</event>
<event>
 6    1  0.1072514E-005  0.1148499E+04  0.7818608E-02  0.9159169E-01
         -2   -1    0    0    0  501 -0.00000000000E+00  0.00000000000E+00  0.14788085720E+04  0.14788085720E+04  0.00000000000E+00 0.  1.
          2   -1    0    0  501    0  0.00000000000E+00 -0.00000000000E+00 -0.22299217044E+03  0.22299217044E+03  0.00000000000E+00 0. -1.
         23    2    1    2    0    0  0.53781900948E+03  0.17268300968E+03  0.50991076411E+03  0.76614913592E+03  0.88920202052E+02 0.  0.
         13    1    3    3    0    0  0.28998771776E+03  0.12739309544E+03  0.24382000154E+03  0.39971248463E+03  0.00000000000E+00 0.  1.
        -13    1    3    3    0    0  0.24783129172E+03  0.45289914236E+02  0.26609076257E+03  0.36643665129E+03  0.00000000000E+00 0. -1.
         22    1    1    2    0    0 -0.53781900948E+03 -0.17268300968E+03  0.74590563740E+03  0.93565160647E+03  0.00000000000E+00 0.  1.
<mgrwt>
<rscale>  0 0.11484994E+04</rscale>
<asrwt>0</asrwt>
<pdfrwt beam="1">  1        2 0.34306489E-01 0.11484994E+04</pdfrwt>
<pdfrwt beam="2">  1       -2 0.22750901E+00 0.11484994E+04</pdfrwt>
<totfact> 0.13446228E+01</totfact>
</mgrwt>
</event>
<event>
 6    1  0.1072514E-005  0.3449636E+04  0.7818608E-02  0.8125830E-01
          1   -1    0    0  501    0  0.00000000000E+00  0.00000000000E+00  0.27977870048E+04  0.27977870048E+04  0.00000000000E+00 0. -1.
         -1   -1    0    0    0  501 -0.00000000000E+00 -0.00000000000E+00 -0.10633391833E+04  0.10633391833E+04  0.00000000000E+00 0.  1.
         23    2    1    2    0    0  0.10404734379E+04 -0.33048447642E+03  0.23607843495E+04  0.26025148857E+04  0.89308574489E+02 0.  0.
         13    1    3    3    0    0  0.47895736539E+02 -0.16334981907E+02  0.16175073589E+03  0.16948195708E+03  0.00000000000E+00 0. -1.
        -13    1    3    3    0    0  0.99257770141E+03 -0.31414949451E+03  0.21990336136E+04  0.24330329287E+04  0.00000000000E+00 0.  1.
         22    1    1    2    0    0 -0.10404734379E+04  0.33048447642E+03 -0.62633652793E+03  0.12586113024E+04  0.00000000000E+00 0.  1.
<mgrwt>
<rscale>  0 0.34496357E+04</rscale>
<asrwt>0</asrwt>
<pdfrwt beam="1">  1        1 0.43042877E+00 0.34496357E+04</pdfrwt>
<pdfrwt beam="2">  1       -1 0.16359064E+00 0.34496357E+04</pdfrwt>
<totfact> 0.18806126E-01</totfact>
</mgrwt>
</event>
<event>
 6    1  0.1072514E-005  0.1900466E+04  0.7818608E-02  0.8654624E-01
          1   -1    0    0  501    0  0.00000000000E+00  0.00000000000E+00  0.10560043929E+04  0.10560043929E+04  0.00000000000E+00 0. -1.
         -1   -1    0    0    0  501 -0.00000000000E+00 -0.00000000000E+00 -0.85505598793E+03  0.85505598793E+03  0.00000000000E+00 0.  1.
         23    2    1    2    0    0  0.42157213809E+03  0.71787198560E+03 -0.35507646657E+03  0.90994754350E+03  0.94138087303E+02 0.  0.
         11    1    3    3    0    0  0.12528326904E+03  0.29946311969E+03 -0.15308465575E+03  0.35889966478E+03  0.00000000000E+00 0. -1.
        -11    1    3    3    0    0  0.29628886906E+03  0.41840886591E+03 -0.20199181082E+03  0.55104787872E+03  0.00000000000E+00 0.  1.
         22    1    1    2    0    0 -0.42157213809E+03 -0.71787198560E+03  0.55602487157E+03  0.10011128374E+04  0.00000000000E+00 0. -1.
<mgrwt>
<rscale>  0 0.19004661E+04</rscale>
<asrwt>0</asrwt>
<pdfrwt beam="1">  1        1 0.16246221E+00 0.19004661E+04</pdfrwt>
<pdfrwt beam="2">  1       -1 0.13154707E+00 0.19004661E+04</pdfrwt>
<totfact> 0.63059193E+00</totfact>
</mgrwt>
</event>
<event>
 6    1  0.1072514E-005  0.2531650E+04  0.7818608E-02  0.8391796E-01
         -1   -1    0    0    0  501 -0.00000000000E+00  0.00000000000E+00  0.50124497189E+03  0.50124497189E+03  0.00000000000E+00 0.  1.
          1   -1    0    0  501    0  0.00000000000E+00 -0.00000000000E+00 -0.31966669988E+04  0.31966669988E+04  0.00000000000E+00 0. -1.
         23    2    1    2    0    0  0.74556712201E+03 -0.90791479569E+03 -0.66807958121E+03  0.13547736901E+04  0.94349430288E+02 0.  0.
         13    1    3    3    0    0  0.56173836502E+03 -0.62767550409E+03 -0.50414336095E+03  0.98167563765E+03  0.00000000000E+00 0. -1.
        -13    1    3    3    0    0  0.18382875699E+03 -0.28023929160E+03 -0.16393622026E+03  0.37309805248E+03  0.00000000000E+00 0.  1.
         22    1    1    2    0    0 -0.74556712201E+03  0.90791479569E+03 -0.20273424457E+04  0.23431382806E+04  0.00000000000E+00 0. -1.
<mgrwt>
<rscale>  0 0.25316503E+04</rscale>
<asrwt>0</asrwt>
<pdfrwt beam="1">  1        1 0.49179491E+00 0.25316503E+04</pdfrwt>
<pdfrwt beam="2">  1       -1 0.77114613E-01 0.25316503E+04</pdfrwt>
<totfact> 0.63886148E-01</totfact>
</mgrwt>
</event>
<event>
 6    1  0.1072514E-005  0.1407175E+04  0.7818608E-02  0.8948641E-01
          1   -1    0    0  501    0  0.00000000000E+00  0.00000000000E+00  0.10956824986E+04  0.10956824986E+04  0.00000000000E+00 0.  1.
         -1   -1    0    0    0  501 -0.00000000000E+00 -0.00000000000E+00 -0.45180530766E+03  0.45180530766E+03  0.00000000000E+00 0. -1.
         23    2    1    2    0    0  0.10544864957E+03  0.37743529379E+03  0.96172137320E+03  0.10429070467E+04  0.95761629892E+02 0.  0.
         13    1    3    3    0    0  0.61660390475E+02  0.12271570738E+03  0.43548414224E+03  0.45662630973E+03  0.00000000000E+00 0.  1.
        -13    1    3    3    0    0  0.43788259091E+02  0.25471958641E+03  0.52623723095E+03  0.58628073700E+03  0.00000000000E+00 0. -1.
         22    1    1    2    0    0 -0.10544864957E+03 -0.37743529379E+03 -0.31784418226E+03  0.50458075953E+03  0.00000000000E+00 0. -1.
<mgrwt>
<rscale>  0 0.14071747E+04</rscale>
<asrwt>0</asrwt>
<pdfrwt beam="1">  1        1 0.16856654E+00 0.14071747E+04</pdfrwt>
<pdfrwt beam="2">  1       -1 0.69508509E-01 0.14071747E+04</pdfrwt>
<totfact> 0.26061898E+01</totfact>
</mgrwt>
</event>
<event>
 6    1  0.1072514E-005  0.5032702E+04  0.7818608E-02  0.7823482E-01
         -1   -1    0    0    0  501 -0.00000000000E+00  0.00000000000E+00  0.24843083662E+04  0.24843083662E+04  0.00000000000E+00 0.  1.
          1   -1    0    0  501    0  0.00000000000E+00 -0.00000000000E+00 -0.25488067083E+04  0.25488067083E+04  0.00000000000E+00 0. -1.
         23    2    1    2    0    0 -0.21045764759E+04 -0.11410443658E+04  0.74016977307E+03  0.25075032352E+04  0.92178054923E+02 0.  0.
         11    1    3    3    0    0 -0.11635863270E+04 -0.59431562464E+03  0.36948895848E+03  0.13578167374E+04  0.00000000000E+00 0.  1.
        -11    1    3    3    0    0 -0.94099014891E+03 -0.54672874117E+03  0.37068081458E+03  0.11496864977E+04  0.00000000000E+00 0. -1.
         22    1    1    2    0    0  0.21045764759E+04  0.11410443658E+04 -0.80466811510E+03  0.25256118393E+04  0.00000000000E+00 0.  1.
<mgrwt>
<rscale>  0 0.50327018E+04</rscale>
<asrwt>0</asrwt>
<pdfrwt beam="1">  1        1 0.39212411E+00 0.50327018E+04</pdfrwt>
<pdfrwt beam="2">  1       -1 0.38220129E+00 0.50327018E+04</pdfrwt>
<totfact> 0.85319259E-03</totfact>
</mgrwt>
</event>
<event>
 6    1  0.1072514E-005  0.1291287E+04  0.7818608E-02  0.9036504E-01
          2   -1    0    0  501    0  0.00000000000E+00  0.00000000000E+00  0.48356382657E+03  0.48356382657E+03  0.00000000000E+00 0. -1.
         -2   -1    0    0    0  501 -0.00000000000E+00 -0.00000000000E+00 -0.86204799944E+03  0.86204799944E+03  0.00000000000E+00 0.  1.
         23    2    1    2    0    0 -0.12233693500E+03 -0.46516311016E+03  0.25387395038E+03  0.55111837685E+03  0.89086687510E+02 0.  0.
         13    1    3    3    0    0 -0.25604256441E+02 -0.22749820821E+03  0.86353372851E+02  0.24467921385E+03  0.00000000000E+00 0.  1.
        -13    1    3    3    0    0 -0.96732678560E+02 -0.23766490195E+03  0.16752057753E+03  0.30643916300E+03  0.00000000000E+00 0. -1.
         22    1    1    2    0    0  0.12233693500E+03  0.46516311016E+03 -0.63235812325E+03  0.79449344916E+03  0.00000000000E+00 0.  1.
<mgrwt>
<rscale>  0 0.12912865E+04</rscale>
<asrwt>0</asrwt>
<pdfrwt beam="1">  1        2 0.74394435E-01 0.12912865E+04</pdfrwt>
<pdfrwt beam="2">  1       -2 0.13262277E+00 0.12912865E+04</pdfrwt>
<totfact> 0.25903109E+01</totfact>
</mgrwt>
</event>
<event>
 6    1  0.1072514E-005  0.1765017E+04  0.7818608E-02  0.8725127E-01
          2   -1    0    0  501    0  0.00000000000E+00  0.00000000000E+00  0.13069787625E+04  0.13069787625E+04  0.00000000000E+00 0. -1.
         -2   -1    0    0    0  501 -0.00000000000E+00 -0.00000000000E+00 -0.59589443889E+03  0.59589443889E+03  0.00000000000E+00 0.  1.
         23    2    1    2    0    0  0.52327231459E+03 -0.65627972721E+03  0.70034522702E+02  0.84671893104E+03  0.86666707811E+02 0.  0.
         13    1    3    3    0    0  0.18134551814E+03 -0.16932772493E+03  0.36340676902E+02  0.25075629639E+03  0.00000000000E+00 0. -1.
        -13    1    3    3    0    0  0.34192679645E+03 -0.48695200228E+03  0.33693845800E+02  0.59596263465E+03  0.00000000000E+00 0.  1.
         22    1    1    2    0    0 -0.52327231459E+03  0.65627972721E+03  0.64104980094E+03  0.10561542704E+04  0.00000000000E+00 0. -1.
<mgrwt>
<rscale>  0 0.17650171E+04</rscale>
<asrwt>0</asrwt>
<pdfrwt beam="1">  1        2 0.20107366E+00 0.17650171E+04</pdfrwt>
<pdfrwt beam="2">  1       -2 0.91676068E-01 0.17650171E+04</pdfrwt>
<totfact> 0.15701908E+01</totfact>
</mgrwt>
</event>
<event>
 6    1  0.1072514E-005  0.5654787E+03  0.7818608E-02  0.9979734E-01
         -1   -1    0    0    0  501 -0.00000000000E+00  0.00000000000E+00  0.65660295971E+02  0.65660295971E+02  0.00000000000E+00 0.  1.
          1   -1    0    0  501    0  0.00000000000E+00 -0.00000000000E+00 -0.12175020075E+04  0.12175020075E+04  0.00000000000E+00 0. -1.
         23    2    1    2    0    0  0.24963448134E+03  0.11609745363E+03 -0.62388819033E+03  0.68773731780E+03  0.89163620659E+02 0.  0.
         13    1    3    3    0    0  0.10572632528E+03  0.93798570329E+02 -0.35179188454E+03  0.37912235186E+03  0.00000000000E+00 0. -1.
        -13    1    3    3    0    0  0.14390815606E+03  0.22298883304E+02 -0.27209630578E+03  0.30861496594E+03  0.00000000000E+00 0.  1.
         22    1    1    2    0    0 -0.24963448134E+03 -0.11609745363E+03 -0.52795352125E+03  0.59542498571E+03  0.00000000000E+00 0.  1.
<mgrwt>
<rscale>  0 0.56547871E+03</rscale>
<asrwt>0</asrwt>
<pdfrwt beam="1">  1        1 0.18730797E+00 0.56547871E+03</pdfrwt>
<pdfrwt beam="2">  1       -1 0.10101586E-01 0.56547871E+03</pdfrwt>
<totfact> 0.65721075E+02</totfact>
</mgrwt>
</event>
<event>
 6    1  0.1072514E-005  0.6718618E+03  0.7818608E-02  0.9766600E-01
         -1   -1    0    0    0  501 -0.00000000000E+00  0.00000000000E+00  0.12113982473E+03  0.12113982473E+03  0.00000000000E+00 0.  1.
          1   -1    0    0  501    0  0.00000000000E+00 -0.00000000000E+00 -0.93156468539E+03  0.93156468539E+03  0.00000000000E+00 0. -1.
         23    2    1    2    0    0 -0.16472032990E+03  0.24156997728E+03 -0.65213138885E+03  0.72022042896E+03  0.89181146919E+02 0.  0.
         11    1    3    3    0    0 -0.13509266027E+03  0.12911718749E+03 -0.35583235215E+03  0.40191782469E+03  0.00000000000E+00 0.  1.
        -11    1    3    3    0    0 -0.29627669629E+02  0.11245278978E+03 -0.29629903670E+03  0.31830260428E+03  0.00000000000E+00 0. -1.
         22    1    1    2    0    0  0.16472032990E+03 -0.24156997728E+03 -0.15829347181E+03  0.33248408115E+03  0.00000000000E+00 0.  1.
<mgrwt>
<rscale>  0 0.67186184E+03</rscale>
<asrwt>0</asrwt>
<pdfrwt beam="1">  1        1 0.14331765E+00 0.67186184E+03</pdfrwt>
<pdfrwt beam="2">  1       -1 0.18636896E-01 0.67186184E+03</pdfrwt>
<totfact> 0.39952628E+02</totfact>
</mgrwt>
</event>
<event>
 6    1  0.1072514E-005  0.2004711E+04  0.7818608E-02  0.8604421E-01
         -1   -1    0    0    0  501 -0.00000000000E+00  0.00000000000E+00  0.46592144322E+03  0.46592144322E+03  0.00000000000E+00 0.  1.
          1   -1    0    0  501    0  0.00000000000E+00 -0.00000000000E+00 -0.21564075110E+04  0.21564075110E+04  0.00000000000E+00 0. -1.
         23    2    1    2    0    0 -0.55466959374E+03 -0.83209847718E+03 -0.87382399181E+03  0.13312119261E+04  0.92252857075E+02 0.  0.
         13    1    3    3    0    0 -0.38870121570E+03 -0.64176069463E+03 -0.68407350170E+03  0.10153334329E+04  0.00000000000E+00 0. -1.
        -13    1    3    3    0    0 -0.16596837804E+03 -0.19033778255E+03 -0.18975049010E+03  0.31587849320E+03  0.00000000000E+00 0.  1.
         22    1    1    2    0    0  0.55466959374E+03  0.83209847718E+03 -0.81666207596E+03  0.12911170281E+04  0.00000000000E+00 0.  1.
<mgrwt>
<rscale>  0 0.20047110E+04</rscale>
<asrwt>0</asrwt>
<pdfrwt beam="1">  1        1 0.33175500E+00 0.20047110E+04</pdfrwt>
<pdfrwt beam="2">  1       -1 0.71680223E-01 0.20047110E+04</pdfrwt>
<totfact> 0.42500184E+00</totfact>
</mgrwt>
</event>
<event>
 6    1  0.1072514E-005  0.1918180E+04  0.7818608E-02  0.8645860E-01
         -1   -1    0    0    0  501 -0.00000000000E+00  0.00000000000E+00  0.11669994378E+04  0.11669994378E+04  0.00000000000E+00 0.  1.
          1   -1    0    0  501    0  0.00000000000E+00 -0.00000000000E+00 -0.78822079239E+03  0.78822079239E+03  0.00000000000E+00 0. -1.
         23    2    1    2    0    0  0.78395838279E+03 -0.46355740866E+03  0.48878037220E+03  0.10378453903E+04  0.93491094607E+02 0.  0.
         13    1    3    3    0    0  0.51355272470E+03 -0.27731692139E+03  0.26836688817E+03  0.64238762644E+03  0.00000000000E+00 0. -1.
        -13    1    3    3    0    0  0.27040565809E+03 -0.18624048727E+03  0.22041348403E+03  0.39545776382E+03  0.00000000000E+00 0.  1.
         22    1    1    2    0    0 -0.78395838279E+03  0.46355740866E+03 -0.11000172677E+03  0.91737483994E+03  0.00000000000E+00 0.  1.
<mgrwt>
<rscale>  0 0.19181796E+04</rscale>
<asrwt>0</asrwt>
<pdfrwt beam="1">  1        1 0.12126474E+00 0.19181796E+04</pdfrwt>
<pdfrwt beam="2">  1       -1 0.17953837E+00 0.19181796E+04</pdfrwt>
<totfact> 0.44353010E+00</totfact>
</mgrwt>
</event>
<event>
 6    1  0.1072514E-005  0.3029501E+04  0.7818608E-02  0.8235356E-01
         -1   -1    0    0    0  501 -0.00000000000E+00  0.00000000000E+00  0.97674055493E+03  0.97674055493E+03  0.00000000000E+00 0.  1.
          1   -1    0    0  501    0  0.00000000000E+00 -0.00000000000E+00 -0.23491086572E+04  0.23491086572E+04  0.00000000000E+00 0. -1.
         23    2    1    2    0    0  0.20832955771E+03  0.14086217526E+03 -0.23251750115E+04  0.23404130836E+04  0.88607057573E+02 0.  0.
         13    1    3    3    0    0  0.34918123854E+02  0.32924700454E+02 -0.21077724943E+03  0.21617206145E+03  0.00000000000E+00 0. -1.
        -13    1    3    3    0    0  0.17341143386E+03  0.10793747481E+03 -0.21143977621E+04  0.21242410222E+04  0.00000000000E+00 0.  1.
         22    1    1    2    0    0 -0.20832955771E+03 -0.14086217526E+03  0.95280690927E+03  0.98543612851E+03  0.00000000000E+00 0.  1.
<mgrwt>
<rscale>  0 0.30295014E+04</rscale>
<asrwt>0</asrwt>
<pdfrwt beam="1">  1        1 0.36140133E+00 0.30295014E+04</pdfrwt>
<pdfrwt beam="2">  1       -1 0.15026778E+00 0.30295014E+04</pdfrwt>
<totfact> 0.50750187E-01</totfact>
</mgrwt>
</event>
<event>
 6    1  0.1072514E-005  0.1765265E+04  0.7818608E-02  0.8724992E-01
          1   -1    0    0  501    0  0.00000000000E+00  0.00000000000E+00  0.11298725626E+04  0.11298725626E+04  0.00000000000E+00 0. -1.
         -1   -1    0    0    0  501 -0.00000000000E+00 -0.00000000000E+00 -0.68949383197E+03  0.68949383197E+03  0.00000000000E+00 0.  1.
         23    2    1    2    0    0  0.11640666277E+03 -0.86221695122E+03  0.35888523320E+03  0.94551871207E+03  0.90765864499E+02 0.  0.
         11    1    3    3    0    0  0.10886282045E+03 -0.55527066387E+03  0.26201381646E+03  0.62356063366E+03  0.00000000000E+00 0. -1.
        -11    1    3    3    0    0  0.75438423239E+01 -0.30694628735E+03  0.96871416740E+02  0.32195807841E+03  0.00000000000E+00 0.  1.
         22    1    1    2    0    0 -0.11640666277E+03  0.86221695122E+03  0.81493497430E+02  0.87384768251E+03  0.00000000000E+00 0. -1.
<mgrwt>
<rscale>  0 0.17652650E+04</rscale>
<asrwt>0</asrwt>
<pdfrwt beam="1">  1        1 0.17382655E+00 0.17652650E+04</pdfrwt>
<pdfrwt beam="2">  1       -1 0.10607597E+00 0.17652650E+04</pdfrwt>
<totfact> 0.94745677E+00</totfact>
</mgrwt>
</event>
<event>
 6    1  0.1072514E-005  0.5841347E+04  0.7818608E-02  0.7710390E-01
          1   -1    0    0  501    0  0.00000000000E+00  0.00000000000E+00  0.34629607421E+04  0.34629607421E+04  0.00000000000E+00 0. -1.
         -1   -1    0    0    0  501 -0.00000000000E+00 -0.00000000000E+00 -0.24633063013E+04  0.24633063013E+04  0.00000000000E+00 0.  1.
         23    2    1    2    0    0  0.98651793674E+03  0.27259960974E+04  0.85403085279E+03  0.30235995475E+04  0.92266807634E+02 0.  0.
         13    1    3    3    0    0  0.52978034936E+03  0.14148414988E+04  0.48980398099E+03  0.15881913062E+04  0.00000000000E+00 0.  1.
        -13    1    3    3    0    0  0.45673758738E+03  0.13111545986E+04  0.36422687180E+03  0.14354082413E+04  0.00000000000E+00 0. -1.
         22    1    1    2    0    0 -0.98651793674E+03 -0.27259960974E+04  0.14562358797E+03  0.29026674959E+04  0.00000000000E+00 0.  1.
<mgrwt>
<rscale>  0 0.58413468E+04</rscale>
<asrwt>0</asrwt>
<pdfrwt beam="1">  1        1 0.53276319E+00 0.58413468E+04</pdfrwt>
<pdfrwt beam="2">  1       -1 0.37897020E+00 0.58413468E+04</pdfrwt>
<totfact> 0.17952354E-03</totfact>
</mgrwt>
</event>
<event>
 6    1  0.1412224E-005  0.3214657E+04  0.7818608E-02  0.8184957E-01
         -1   -1    0    0    0  501 -0.00000000000E+00  0.00000000000E+00  0.18919479225E+04  0.18919479225E+04  0.00000000000E+00 0.  1.
          1   -1    0    0  501    0  0.00000000000E+00 -0.00000000000E+00 -0.13655263264E+04  0.13655263264E+04  0.00000000000E+00 0. -1.
         23    2    1    2    0    0 -0.33185373346E+03 -0.50068616354E+02 -0.13280935472E+04  0.13728363041E+04  0.90627154150E+02 0.  0.
         13    1    3    3    0    0 -0.23992473100E+03 -0.76479574194E+02 -0.98103589455E+03  0.10128397841E+04  0.00000000000E+00 0.  1.
        -13    1    3    3    0    0 -0.91929002460E+02  0.26410957840E+02 -0.34705765261E+03  0.35999652001E+03  0.00000000000E+00 0. -1.
         22    1    1    2    0    0  0.33185373346E+03  0.50068616354E+02  0.18545151432E+04  0.18846379449E+04  0.00000000000E+00 0.  1.
<mgrwt>
<rscale>  0 0.32146569E+04</rscale>
<asrwt>0</asrwt>
<pdfrwt beam="1">  1        1 0.21008097E+00 0.32146569E+04</pdfrwt>
<pdfrwt beam="2">  1       -1 0.29106891E+00 0.32146569E+04</pdfrwt>
<totfact> 0.25616141E-01</totfact>
</mgrwt>
</event>
<event>
 6    1  0.1072514E-005  0.4020768E+04  0.7818608E-02  0.8000370E-01
         -2   -1    0    0    0  501 -0.00000000000E+00  0.00000000000E+00  0.12478379887E+04  0.12478379887E+04  0.00000000000E+00 0. -1.
          2   -1    0    0  501    0  0.00000000000E+00 -0.00000000000E+00 -0.32389169309E+04  0.32389169309E+04  0.00000000000E+00 0.  1.
         23    2    1    2    0    0  0.18889991108E+04 -0.14885504227E+03 -0.24988928883E+03  0.19133880835E+04  0.90187788893E+02 0.  0.
         13    1    3    3    0    0  0.11013565980E+04 -0.42489939180E+02 -0.13968936183E+03  0.11109927401E+04  0.00000000000E+00 0.  1.
        -13    1    3    3    0    0  0.78764251285E+03 -0.10636510309E+03 -0.11019992701E+03  0.80239534340E+03  0.00000000000E+00 0. -1.
         22    1    1    2    0    0 -0.18889991108E+04  0.14885504227E+03 -0.17411896533E+04  0.25733668361E+04  0.00000000000E+00 0.  1.
<mgrwt>
<rscale>  0 0.40207679E+04</rscale>
<asrwt>0</asrwt>
<pdfrwt beam="1">  1        2 0.49829491E+00 0.40207679E+04</pdfrwt>
<pdfrwt beam="2">  1       -2 0.19197508E+00 0.40207679E+04</pdfrwt>
<totfact> 0.14462480E-01</totfact>
</mgrwt>
</event>
<event>
 6    1  0.1072514E-005  0.3086624E+04  0.7818608E-02  0.8219418E-01
          2   -1    0    0  501    0  0.00000000000E+00  0.00000000000E+00  0.39398993562E+04  0.39398993562E+04  0.00000000000E+00 0. -1.
         -2   -1    0    0    0  501 -0.00000000000E+00 -0.00000000000E+00 -0.60453620629E+03  0.60453620629E+03  0.00000000000E+00 0.  1.
         23    2    1    2    0    0 -0.41098875375E+03 -0.94392924135E+03  0.33592068488E+04  0.35146381599E+04  0.92176860261E+02 0.  0.
         11    1    3    3    0    0 -0.33291294987E+03 -0.71671216423E+03  0.26862267689E+04  0.28000574302E+04  0.00000000000E+00 0.  1.
        -11    1    3    3    0    0 -0.78075803871E+02 -0.22721707712E+03  0.67298007995E+03  0.71458072972E+03  0.00000000000E+00 0. -1.
         22    1    1    2    0    0  0.41098875375E+03  0.94392924135E+03 -0.23843698915E+02  0.10297974026E+04  0.00000000000E+00 0.  1.
<mgrwt>
<rscale>  0 0.30866239E+04</rscale>
<asrwt>0</asrwt>
<pdfrwt beam="1">  1        2 0.60613835E+00 0.30866239E+04</pdfrwt>
<pdfrwt beam="2">  1       -2 0.93005573E-01 0.30866239E+04</pdfrwt>
<totfact> 0.31787024E-01</totfact>
</mgrwt>
</event>
<event>
 6    1  0.1072514E-005  0.2976378E+04  0.7818608E-02  0.8250509E-01
         -2   -1    0    0    0  501 -0.00000000000E+00  0.00000000000E+00  0.18117748363E+04  0.18117748363E+04  0.00000000000E+00 0. -1.
          2   -1    0    0  501    0  0.00000000000E+00 -0.00000000000E+00 -0.12223963996E+04  0.12223963996E+04  0.00000000000E+00 0.  1.
         23    2    1    2    0    0  0.11854668087E+04  0.26612791836E+03 -0.57942139644E+03  0.13482742422E+04  0.77192318439E+02 0.  0.
         13    1    3    3    0    0  0.94485022709E+03  0.20851070974E+03 -0.49499135213E+03  0.10868464042E+04  0.00000000000E+00 0. -1.
        -13    1    3    3    0    0  0.24061658159E+03  0.57617208614E+02 -0.84430044308E+02  0.26142783793E+03  0.00000000000E+00 0.  1.
         22    1    1    2    0    0 -0.11854668087E+04 -0.26612791836E+03  0.11687998331E+04  0.16858969937E+04  0.00000000000E+00 0.  1.
<mgrwt>
<rscale>  0 0.29763784E+04</rscale>
<asrwt>0</asrwt>
<pdfrwt beam="1">  1        2 0.18806098E+00 0.29763784E+04</pdfrwt>
<pdfrwt beam="2">  1       -2 0.27873459E+00 0.29763784E+04</pdfrwt>
<totfact> 0.67526516E-01</totfact>
</mgrwt>
</event>
<event>
 6    1  0.1072514E-005  0.4606188E+04  0.7818608E-02  0.7892306E-01
         -2   -1    0    0    0  501 -0.00000000000E+00  0.00000000000E+00  0.12202379849E+04  0.12202379849E+04  0.00000000000E+00 0.  1.
          2   -1    0    0  501    0  0.00000000000E+00 -0.00000000000E+00 -0.43468918085E+04  0.43468918085E+04  0.00000000000E+00 0. -1.
         23    2    1    2    0    0 -0.21597152960E+04  0.79272212376E+03 -0.14616635389E+04  0.27272405044E+04  0.92746659976E+02 0.  0.
         13    1    3    3    0    0 -0.15648497253E+04  0.56853406830E+03 -0.10085540505E+04  0.19465782600E+04  0.00000000000E+00 0. -1.
        -13    1    3    3    0    0 -0.59486557066E+03  0.22418805546E+03 -0.45310948842E+03  0.78066224442E+03  0.00000000000E+00 0.  1.
         22    1    1    2    0    0  0.21597152960E+04 -0.79272212376E+03 -0.16649902847E+04  0.28398892889E+04  0.00000000000E+00 0. -1.
<mgrwt>
<rscale>  0 0.46061882E+04</rscale>
<asrwt>0</asrwt>
<pdfrwt beam="1">  1        2 0.66875257E+00 0.46061882E+04</pdfrwt>
<pdfrwt beam="2">  1       -2 0.18772892E+00 0.46061882E+04</pdfrwt>
<totfact> 0.20588511E-02</totfact>
</mgrwt>
</event>
<event>
 6    1  0.1072514E-005  0.9923784E+03  0.7818608E-02  0.9316944E-01
          2   -1    0    0  501    0  0.00000000000E+00  0.00000000000E+00  0.50692048711E+03  0.50692048711E+03  0.00000000000E+00 0. -1.
         -2   -1    0    0    0  501 -0.00000000000E+00 -0.00000000000E+00 -0.48568513627E+03  0.48568513627E+03  0.00000000000E+00 0.  1.
         23    2    1    2    0    0  0.39751077946E+03 -0.22397448427E+03  0.19451094870E+03  0.50454433398E+03  0.92472084447E+02 0.  0.
         13    1    3    3    0    0  0.75952747990E+02 -0.82659641410E+02  0.27268617869E+02  0.11552062052E+03  0.00000000000E+00 0.  1.
        -13    1    3    3    0    0  0.32155803147E+03 -0.14131484286E+03  0.16724233083E+03  0.38902371346E+03  0.00000000000E+00 0. -1.
         22    1    1    2    0    0 -0.39751077946E+03  0.22397448427E+03 -0.17327559787E+03  0.48806128939E+03  0.00000000000E+00 0.  1.
<mgrwt>
<rscale>  0 0.99237845E+03</rscale>
<asrwt>0</asrwt>
<pdfrwt beam="1">  1        2 0.77987767E-01 0.99237845E+03</pdfrwt>
<pdfrwt beam="2">  1       -2 0.74720790E-01 0.99237845E+03</pdfrwt>
<totfact> 0.97529613E+01</totfact>
</mgrwt>
</event>
<event>
 6    1  0.1072514E-005  0.2548900E+04  0.7818608E-02  0.8385769E-01
         -2   -1    0    0    0  501 -0.00000000000E+00  0.00000000000E+00  0.15328740484E+04  0.15328740484E+04  0.00000000000E+00 0.  1.
          2   -1    0    0  501    0  0.00000000000E+00 -0.00000000000E+00 -0.10595934381E+04  0.10595934381E+04  0.00000000000E+00 0. -1.
         23    2    1    2    0    0  0.64564569691E+02  0.86255184918E+03  0.11867190971E+04  0.14712365778E+04  0.89836386070E+02 0.  0.
         13    1    3    3    0    0  0.23314101370E+02  0.74498697792E+02  0.77935583207E+02  0.11030665631E+03  0.00000000000E+00 0. -1.
        -13    1    3    3    0    0  0.41250468320E+02  0.78805315139E+03  0.11087835139E+04  0.13609299215E+04  0.00000000000E+00 0.  1.
         22    1    1    2    0    0 -0.64564569691E+02 -0.86255184918E+03 -0.71343848684E+03  0.11212309087E+04  0.00000000000E+00 0. -1.
<mgrwt>
<rscale>  0 0.25489004E+04</rscale>
<asrwt>0</asrwt>
<pdfrwt beam="1">  1        2 0.16301437E+00 0.25489004E+04</pdfrwt>
<pdfrwt beam="2">  1       -2 0.23582678E+00 0.25489004E+04</pdfrwt>
<totfact> 0.16122594E+00</totfact>
</mgrwt>
</event>
<event>
 6    1  0.1072514E-005  0.2945852E+04  0.7818608E-02  0.8259364E-01
         -2   -1    0    0    0  501 -0.00000000000E+00  0.00000000000E+00  0.77027021068E+03  0.77027021068E+03  0.00000000000E+00 0.  1.
          2   -1    0    0  501    0  0.00000000000E+00 -0.00000000000E+00 -0.28165583159E+04  0.28165583159E+04  0.00000000000E+00 0. -1.
         23    2    1    2    0    0  0.70497457024E+03 -0.28952665922E+03 -0.25568319501E+04  0.26695118698E+04  0.89939819621E+02 0.  0.
         13    1    3    3    0    0  0.21784287802E+03 -0.76196223749E+02 -0.91750810989E+03  0.94608800634E+03  0.00000000000E+00 0. -1.
        -13    1    3    3    0    0  0.48713169222E+03 -0.21333043547E+03 -0.16393238402E+04  0.17234238635E+04  0.00000000000E+00 0.  1.
         22    1    1    2    0    0 -0.70497457024E+03  0.28952665922E+03  0.51054384491E+03  0.91731665670E+03  0.00000000000E+00 0.  1.
<mgrwt>
<rscale>  0 0.29458520E+04</rscale>
<asrwt>0</asrwt>
<pdfrwt beam="1">  1        2 0.43331666E+00 0.29458520E+04</pdfrwt>
<pdfrwt beam="2">  1       -2 0.11850311E+00 0.29458520E+04</pdfrwt>
<totfact> 0.10638555E+00</totfact>
</mgrwt>
</event>
<event>
 6    1  0.1072514E-005  0.4569567E+04  0.7818608E-02  0.7898570E-01
         -2   -1    0    0    0  501 -0.00000000000E+00  0.00000000000E+00  0.27588222891E+04  0.27588222891E+04  0.00000000000E+00 0.  1.
          2   -1    0    0  501    0  0.00000000000E+00 -0.00000000000E+00 -0.18921973314E+04  0.18921973314E+04  0.00000000000E+00 0. -1.
         23    2    1    2    0    0 -0.35668504359E+03  0.16209257431E+04  0.20303511778E+04  0.26239815842E+04  0.91263159995E+02 0.  0.
         11    1    3    3    0    0 -0.24314041745E+03  0.10405193875E+04  0.13716381525E+04  0.17387320322E+04  0.00000000000E+00 0. -1.
        -11    1    3    3    0    0 -0.11354462614E+03  0.58040635559E+03  0.65871302532E+03  0.88524955208E+03  0.00000000000E+00 0.  1.
         22    1    1    2    0    0  0.35668504359E+03 -0.16209257431E+04 -0.11637262201E+04  0.20270380362E+04  0.00000000000E+00 0. -1.
<mgrwt>
<rscale>  0 0.45695672E+04</rscale>
<asrwt>0</asrwt>
<pdfrwt beam="1">  1        2 0.29110728E+00 0.45695672E+04</pdfrwt>
<pdfrwt beam="2">  1       -2 0.42443420E+00 0.45695672E+04</pdfrwt>
<totfact> 0.29636685E-02</totfact>
</mgrwt>
</event>
<event>
 6    1  0.1334824E-005  0.3111762E+04  0.7818608E-02  0.8212517E-01
         -2   -1    0    0    0  501 -0.00000000000E+00  0.00000000000E+00  0.94132656191E+03  0.94132656191E+03  0.00000000000E+00 0.  1.
          2   -1    0    0  501    0  0.00000000000E+00 -0.00000000000E+00 -0.25716536874E+04  0.25716536874E+04  0.00000000000E+00 0. -1.
         23    2    1    2    0    0 -0.12905365152E+02 -0.84439195275E+03  0.65766746614E+03  0.10741109273E+04  0.89573823645E+02 0.  0.
         11    1    3    3    0    0  0.26774191752E+02 -0.53708100974E+03  0.38498785419E+03  0.66135354860E+03  0.00000000000E+00 0. -1.
        -11    1    3    3    0    0 -0.39679556904E+02 -0.30731094301E+03  0.27267961195E+03  0.41275737874E+03  0.00000000000E+00 0.  1.
         22    1    1    2    0    0  0.12905365152E+02  0.84439195275E+03 -0.22879945916E+04  0.24388693219E+04  0.00000000000E+00 0. -1.
<mgrwt>
<rscale>  0 0.31117622E+04</rscale>
<asrwt>0</asrwt>
<pdfrwt beam="1">  1        2 0.39563902E+00 0.31117622E+04</pdfrwt>
<pdfrwt beam="2">  1       -2 0.14481947E+00 0.31117622E+04</pdfrwt>
<totfact> 0.88147866E-01</totfact>
</mgrwt>
</event>
<event>
 6    1  0.1072514E-005  0.2817698E+04  0.7818608E-02  0.8297795E-01
         -2   -1    0    0    0  501 -0.00000000000E+00  0.00000000000E+00  0.19519064561E+04  0.19519064561E+04  0.00000000000E+00 0.  1.
          2   -1    0    0  501    0  0.00000000000E+00 -0.00000000000E+00 -0.10168807206E+04  0.10168807206E+04  0.00000000000E+00 0. -1.
         23    2    1    2    0    0  0.79036781175E+02  0.19618681056E+03  0.19339848276E+04  0.19476822138E+04  0.91829271004E+02 0.  0.
         13    1    3    3    0    0 -0.13919455751E+01  0.89516849363E+02  0.54696327760E+03  0.55424185233E+03  0.00000000000E+00 0. -1.
        -13    1    3    3    0    0  0.80428726750E+02  0.10666996119E+03  0.13870215500E+04  0.13934403615E+04  0.00000000000E+00 0.  1.
         22    1    1    2    0    0 -0.79036781175E+02 -0.19618681056E+03 -0.99895909213E+03  0.10211049629E+04  0.00000000000E+00 0. -1.
<mgrwt>
<rscale>  0 0.28176984E+04</rscale>
<asrwt>0</asrwt>
<pdfrwt beam="1">  1        2 0.15644319E+00 0.28176984E+04</pdfrwt>
<pdfrwt beam="2">  1       -2 0.30029330E+00 0.28176984E+04</pdfrwt>
<totfact> 0.67568793E-01</totfact>
</mgrwt>
</event>
<event>
 6    1  0.1072514E-005  0.2986049E+04  0.7818608E-02  0.8247726E-01
         -2   -1    0    0    0  501 -0.00000000000E+00  0.00000000000E+00  0.77498928580E+03  0.77498928580E+03  0.00000000000E+00 0.  1.
          2   -1    0    0  501    0  0.00000000000E+00 -0.00000000000E+00 -0.28763267849E+04  0.28763267849E+04  0.00000000000E+00 0. -1.
         23    2    1    2    0    0 -0.93077191107E+03  0.39159353890E+03  0.29075478768E+03  0.10548208640E+04  0.91797921303E+02 0.  0.
         13    1    3    3    0    0 -0.59563882416E+03  0.27107305943E+03  0.14680745759E+03  0.67068520335E+03  0.00000000000E+00 0. -1.
        -13    1    3    3    0    0 -0.33513308691E+03  0.12052047947E+03  0.14394733009E+03  0.38413566061E+03  0.00000000000E+00 0.  1.
         22    1    1    2    0    0  0.93077191107E+03 -0.39159353890E+03 -0.23920922868E+04  0.25964952068E+04  0.00000000000E+00 0. -1.
<mgrwt>
<rscale>  0 0.29860492E+04</rscale>
<asrwt>0</asrwt>
<pdfrwt beam="1">  1        2 0.44251182E+00 0.29860492E+04</pdfrwt>
<pdfrwt beam="2">  1       -2 0.11922912E+00 0.29860492E+04</pdfrwt>
<totfact> 0.96020464E-01</totfact>
</mgrwt>
</event>
<event>
 6    1  0.1072514E-005  0.3146349E+04  0.7818608E-02  0.8203132E-01
         -2   -1    0    0    0  501 -0.00000000000E+00  0.00000000000E+00  0.84590645626E+03  0.84590645626E+03  0.00000000000E+00 0.  1.
          2   -1    0    0  501    0  0.00000000000E+00 -0.00000000000E+00 -0.29257108340E+04  0.29257108340E+04  0.00000000000E+00 0. -1.
         23    2    1    2    0    0 -0.67544234470E+02 -0.72570905486E+03 -0.27101723447E+04  0.28079889233E+04  0.92475937829E+02 0.  0.
         11    1    3    3    0    0  0.14155668051E+02 -0.29628490619E+03 -0.10266153529E+04  0.10686085398E+04  0.00000000000E+00 0. -1.
        -11    1    3    3    0    0 -0.81699902521E+02 -0.42942414867E+03 -0.16835569918E+04  0.17393803834E+04  0.00000000000E+00 0.  1.
         22    1    1    2    0    0  0.67544234470E+02  0.72570905486E+03  0.63036796698E+03  0.96362836701E+03  0.00000000000E+00 0.  1.
<mgrwt>
<rscale>  0 0.31463488E+04</rscale>
<asrwt>0</asrwt>
<pdfrwt beam="1">  1        2 0.45010936E+00 0.31463488E+04</pdfrwt>
<pdfrwt beam="2">  1       -2 0.13013946E+00 0.31463488E+04</pdfrwt>
<totfact> 0.70913115E-01</totfact>
</mgrwt>
</event>
<event>
 6    1  0.1072514E-005  0.4671815E+04  0.7818608E-02  0.7881229E-01
          2   -1    0    0  501    0  0.00000000000E+00  0.00000000000E+00  0.27970100977E+04  0.27970100977E+04  0.00000000000E+00 0. -1.
         -2   -1    0    0    0  501 -0.00000000000E+00 -0.00000000000E+00 -0.19508202172E+04  0.19508202172E+04  0.00000000000E+00 0.  1.
         23    2    1    2    0    0  0.13968661501E+04 -0.45531938496E+03  0.22676288544E+04  0.27035603865E+04  0.92451923989E+02 0.  0.
         11    1    3    3    0    0  0.47428783568E+03 -0.17474935495E+03  0.85356374574E+03  0.99199665129E+03  0.00000000000E+00 0.  1.
        -11    1    3    3    0    0  0.92257831443E+03 -0.28057003001E+03  0.14140651087E+04  0.17115637352E+04  0.00000000000E+00 0. -1.
         22    1    1    2    0    0 -0.13968661501E+04  0.45531938496E+03 -0.14214389739E+04  0.20442699284E+04  0.00000000000E+00 0.  1.
<mgrwt>
<rscale>  0 0.46718150E+04</rscale>
<asrwt>0</asrwt>
<pdfrwt beam="1">  1        2 0.43030925E+00 0.46718150E+04</pdfrwt>
<pdfrwt beam="2">  1       -2 0.30012618E+00 0.46718150E+04</pdfrwt>
<totfact> 0.55042579E-02</totfact>
</mgrwt>
</event>
<event>
 6    1  0.1072514E-005  0.1489048E+04  0.7818608E-02  0.8891769E-01
          2   -1    0    0  501    0  0.00000000000E+00  0.00000000000E+00  0.17643064358E+04  0.17643064358E+04  0.00000000000E+00 0. -1.
         -2   -1    0    0    0  501 -0.00000000000E+00 -0.00000000000E+00 -0.31418335865E+03  0.31418335865E+03  0.00000000000E+00 0.  1.
         23    2    1    2    0    0  0.39554321105E+03  0.57932002264E+03  0.10643486070E+04  0.12779349479E+04  0.90629208981E+02 0.  0.
         11    1    3    3    0    0  0.35071351857E+03  0.52314691797E+03  0.89929809906E+03  0.10979160901E+04  0.00000000000E+00 0. -1.
        -11    1    3    3    0    0  0.44829692478E+02  0.56173104679E+02  0.16505050793E+03  0.18001885786E+03  0.00000000000E+00 0.  1.
         22    1    1    2    0    0 -0.39554321105E+03 -0.57932002264E+03  0.38577447017E+03  0.80055484651E+03  0.00000000000E+00 0.  1.
<mgrwt>
<rscale>  0 0.14890476E+04</rscale>
<asrwt>0</asrwt>
<pdfrwt beam="1">  1        2 0.27143175E+00 0.14890476E+04</pdfrwt>
<pdfrwt beam="2">  1       -2 0.48335903E-01 0.14890476E+04</pdfrwt>
<totfact> 0.35406424E+01</totfact>
</mgrwt>
</event>
<event>
 6    1  0.1072514E-005  0.2576451E+04  0.7818608E-02  0.8376245E-01
          1   -1    0    0  501    0  0.00000000000E+00  0.00000000000E+00  0.17411080998E+04  0.17411080998E+04  0.00000000000E+00 0. -1.
         -1   -1    0    0    0  501 -0.00000000000E+00 -0.00000000000E+00 -0.95314263710E+03  0.95314263710E+03  0.00000000000E+00 0.  1.
         23    2    1    2    0    0  0.11588362340E+04  0.48860681021E+03  0.67808116191E+03  0.14318274356E+04  0.93261519433E+02 0.  0.
         13    1    3    3    0    0  0.83758351819E+03  0.39081152277E+03  0.52238677532E+03  0.10616815621E+04  0.00000000000E+00 0. -1.
        -13    1    3    3    0    0  0.32125271578E+03  0.97795287444E+02  0.15569438658E+03  0.37014587348E+03  0.00000000000E+00 0.  1.
         22    1    1    2    0    0 -0.11588362340E+04 -0.48860681021E+03  0.10988430081E+03  0.12624233013E+04  0.00000000000E+00 0.  1.
<mgrwt>
<rscale>  0 0.25764506E+04</rscale>
<asrwt>0</asrwt>
<pdfrwt beam="1">  1        1 0.26786278E+00 0.25764506E+04</pdfrwt>
<pdfrwt beam="2">  1       -1 0.14663733E+00 0.25764506E+04</pdfrwt>
<totfact> 0.14621416E+00</totfact>
</mgrwt>
</event>
<event>
 6    1  0.1072514E-005  0.4253514E+04  0.7818608E-02  0.7955270E-01
          1   -1    0    0  501    0  0.00000000000E+00  0.00000000000E+00  0.30425295960E+04  0.30425295960E+04  0.00000000000E+00 0. -1.
         -1   -1    0    0    0  501 -0.00000000000E+00 -0.00000000000E+00 -0.14866230519E+04  0.14866230519E+04  0.00000000000E+00 0.  1.
         23    2    1    2    0    0 -0.42078008268E+02 -0.65202522822E+03 -0.13761019330E+04  0.15252250244E+04  0.75811528899E+02 0.  0.
         13    1    3    3    0    0  0.20386467266E+02 -0.18553707637E+03 -0.36547380347E+03  0.41037874674E+03  0.00000000000E+00 0. -1.
        -13    1    3    3    0    0 -0.62464475534E+02 -0.46648815186E+03 -0.10106281296E+04  0.11148462777E+04  0.00000000000E+00 0.  1.
         22    1    1    2    0    0  0.42078008268E+02  0.65202522822E+03  0.29320084771E+04  0.30039276235E+04  0.00000000000E+00 0. -1.
<mgrwt>
<rscale>  0 0.42535137E+04</rscale>
<asrwt>0</asrwt>
<pdfrwt beam="1">  1        1 0.46808148E+00 0.42535137E+04</pdfrwt>
<pdfrwt beam="2">  1       -1 0.22871124E+00 0.42535137E+04</pdfrwt>
<totfact> 0.41045239E-02</totfact>
</mgrwt>
</event>
<event>
 6    1  0.1072514E-005  0.1423437E+04  0.7818608E-02  0.8937027E-01
          2   -1    0    0  501    0  0.00000000000E+00  0.00000000000E+00  0.51335128341E+03  0.51335128341E+03  0.00000000000E+00 0. -1.
         -2   -1    0    0    0  501 -0.00000000000E+00 -0.00000000000E+00 -0.98673740180E+03  0.98673740180E+03  0.00000000000E+00 0.  1.
         23    2    1    2    0    0  0.23183929952E+03 -0.63677610347E+03 -0.18534655675E+02  0.68392502522E+03  0.90424774847E+02 0.  0.
         11    1    3    3    0    0  0.42976559642E+02 -0.23308419279E+03 -0.23822498246E+02  0.23820734042E+03  0.00000000000E+00 0.  1.
        -11    1    3    3    0    0  0.18886273988E+03 -0.40369191069E+03  0.52878425705E+01  0.44571768481E+03  0.00000000000E+00 0. -1.
         22    1    1    2    0    0 -0.23183929952E+03  0.63677610347E+03 -0.45485146271E+03  0.81616365999E+03  0.00000000000E+00 0.  1.
<mgrwt>
<rscale>  0 0.14234366E+04</rscale>
<asrwt>0</asrwt>
<pdfrwt beam="1">  1        2 0.78977121E-01 0.14234366E+04</pdfrwt>
<pdfrwt beam="2">  1       -2 0.15180575E+00 0.14234366E+04</pdfrwt>
<totfact> 0.16824744E+01</totfact>
</mgrwt>
</event>
<event>
 6    1  0.1072514E-005  0.1871047E+04  0.7818608E-02  0.8669404E-01
          1   -1    0    0  501    0  0.00000000000E+00  0.00000000000E+00  0.14100606282E+04  0.14100606282E+04  0.00000000000E+00 0. -1.
         -1   -1    0    0    0  501 -0.00000000000E+00 -0.00000000000E+00 -0.62068533221E+03  0.62068533221E+03  0.00000000000E+00 0.  1.
         23    2    1    2    0    0  0.47437427705E+03 -0.59444959524E+03  0.98276813686E+03  0.12460153907E+04  0.91213305547E+02 0.  0.
         13    1    3    3    0    0  0.24819515397E+03 -0.30918918850E+03  0.43794543124E+03  0.59075797877E+03  0.00000000000E+00 0.  1.
        -13    1    3    3    0    0  0.22617912308E+03 -0.28526040674E+03  0.54482270562E+03  0.65525741196E+03  0.00000000000E+00 0. -1.
         22    1    1    2    0    0 -0.47437427705E+03  0.59444959524E+03 -0.19339284092E+03  0.78473056963E+03  0.00000000000E+00 0.  1.
<mgrwt>
<rscale>  0 0.18710467E+04</rscale>
<asrwt>0</asrwt>
<pdfrwt beam="1">  1        1 0.21693240E+00 0.18710467E+04</pdfrwt>
<pdfrwt beam="2">  1       -1 0.95490052E-01 0.18710467E+04</pdfrwt>
<totfact> 0.75037748E+00</totfact>
</mgrwt>
</event>
<event>
 6    1  0.1072514E-005  0.6933405E+03  0.7818608E-02  0.9728689E-01
          1   -1    0    0  501    0  0.00000000000E+00  0.00000000000E+00  0.19692596984E+04  0.19692596984E+04  0.00000000000E+00 0. -1.
         -1   -1    0    0    0  501 -0.00000000000E+00 -0.00000000000E+00 -0.61028147224E+02  0.61028147224E+02  0.00000000000E+00 0.  1.
         23    2    1    2    0    0  0.27081485723E+03  0.16110825358E+03  0.13543550605E+04  0.13930471351E+04  0.83702654476E+02 0.  0.
         13    1    3    3    0    0  0.59812082188E+02  0.78000121824E+02  0.46040026709E+03  0.47077585974E+03  0.00000000000E+00 0.  1.
        -13    1    3    3    0    0  0.21100277504E+03  0.83108131758E+02  0.89395479340E+03  0.92227127532E+03  0.00000000000E+00 0. -1.
         22    1    1    2    0    0 -0.27081485723E+03 -0.16110825358E+03  0.55387649071E+03  0.63724071059E+03  0.00000000000E+00 0.  1.
<mgrwt>
<rscale>  0 0.69334052E+03</rscale>
<asrwt>0</asrwt>
<pdfrwt beam="1">  1        1 0.30296298E+00 0.69334052E+03</pdfrwt>
<pdfrwt beam="2">  1       -1 0.93889472E-02 0.69334052E+03</pdfrwt>
<totfact> 0.22525703E+02</totfact>
</mgrwt>
</event>
<event>
 6    1  0.1072514E-005  0.1333195E+04  0.7818608E-02  0.9003648E-01
         -1   -1    0    0    0  501 -0.00000000000E+00  0.00000000000E+00  0.10948264519E+04  0.10948264519E+04  0.00000000000E+00 0.  1.
          1   -1    0    0  501    0  0.00000000000E+00 -0.00000000000E+00 -0.40586546710E+03  0.40586546710E+03  0.00000000000E+00 0. -1.
         23    2    1    2    0    0 -0.39598954384E+03  0.45151503509E+03  0.28507083710E+02  0.60801454100E+03  0.90528904210E+02 0.  0.
         13    1    3    3    0    0 -0.37016430154E+02  0.19439921591E+02  0.19669224349E+02  0.46206114739E+02  0.00000000000E+00 0.  1.
        -13    1    3    3    0    0 -0.35897311369E+03  0.43207511350E+03  0.88378593612E+01  0.56180842626E+03  0.00000000000E+00 0. -1.
         22    1    1    2    0    0  0.39598954384E+03 -0.45151503509E+03  0.66045390110E+03  0.89267737802E+03  0.00000000000E+00 0.  1.
<mgrwt>
<rscale>  0 0.13331950E+04</rscale>
<asrwt>0</asrwt>
<pdfrwt beam="1">  1        1 0.62440841E-01 0.13331950E+04</pdfrwt>
<pdfrwt beam="2">  1       -1 0.16843484E+00 0.13331950E+04</pdfrwt>
<totfact> 0.14571489E+01</totfact>
</mgrwt>
</event>
<event>
 6    1  0.1072514E-005  0.1289918E+04  0.7818608E-02  0.9037599E-01
         -2   -1    0    0    0  501 -0.00000000000E+00  0.00000000000E+00  0.13480499313E+03  0.13480499313E+03  0.00000000000E+00 0.  1.
          2   -1    0    0  501    0  0.00000000000E+00 -0.00000000000E+00 -0.30857315406E+04  0.30857315406E+04  0.00000000000E+00 0. -1.
         23    2    1    2    0    0 -0.43547189310E+03 -0.19763268064E+03 -0.25513629829E+04  0.25973628113E+04  0.90255510111E+02 0.  0.
         13    1    3    3    0    0 -0.24437081878E+03 -0.12825402050E+03 -0.12405914736E+04  0.12709183275E+04  0.00000000000E+00 0. -1.
        -13    1    3    3    0    0 -0.19110107432E+03 -0.69378660143E+02 -0.13107715093E+04  0.13264444838E+04  0.00000000000E+00 0.  1.
         22    1    1    2    0    0  0.43547189310E+03  0.19763268064E+03 -0.39956356454E+03  0.62317372236E+03  0.00000000000E+00 0.  1.
<mgrwt>
<rscale>  0 0.12899179E+04</rscale>
<asrwt>0</asrwt>
<pdfrwt beam="1">  1        2 0.47472787E+00 0.12899179E+04</pdfrwt>
<pdfrwt beam="2">  1       -2 0.20739232E-01 0.12899179E+04</pdfrwt>
<totfact> 0.30621223E+01</totfact>
</mgrwt>
</event>
<event>
 6    1  0.1072514E-005  0.2290019E+04  0.7818608E-02  0.8481867E-01
          1   -1    0    0  501    0  0.00000000000E+00  0.00000000000E+00  0.20069781968E+04  0.20069781968E+04  0.00000000000E+00 0. -1.
         -1   -1    0    0    0  501 -0.00000000000E+00 -0.00000000000E+00 -0.65324432093E+03  0.65324432093E+03  0.00000000000E+00 0.  1.
         23    2    1    2    0    0 -0.13459989261E+02  0.53953791925E+03  0.18486689536E+04  0.19279363245E+04  0.89884557287E+02 0.  0.
         13    1    3    3    0    0 -0.45239839660E+02  0.21894847450E+03  0.82612365059E+03  0.85584190342E+03  0.00000000000E+00 0.  1.
        -13    1    3    3    0    0  0.31779850399E+02  0.32058944475E+03  0.10225453030E+04  0.10720944211E+04  0.00000000000E+00 0. -1.
         22    1    1    2    0    0  0.13459989261E+02 -0.53953791925E+03 -0.49493507775E+03  0.73228619324E+03  0.00000000000E+00 0.  1.
<mgrwt>
<rscale>  0 0.22900193E+04</rscale>
<asrwt>0</asrwt>
<pdfrwt beam="1">  1        1 0.30876587E+00 0.22900193E+04</pdfrwt>
<pdfrwt beam="2">  1       -1 0.10049913E+00 0.22900193E+04</pdfrwt>
<totfact> 0.25122827E+00</totfact>
</mgrwt>
</event>
<event>
 6    1  0.1072514E-005  0.1196386E+04  0.7818608E-02  0.9116026E-01
          2   -1    0    0  501    0  0.00000000000E+00  0.00000000000E+00  0.21816146481E+04  0.21816146481E+04  0.00000000000E+00 0. -1.
         -2   -1    0    0    0  501 -0.00000000000E+00 -0.00000000000E+00 -0.16402285979E+03  0.16402285979E+03  0.00000000000E+00 0.  1.
         23    2    1    2    0    0  0.25468886318E+01  0.57780164546E+03  0.73995762488E+03  0.94342130356E+03  0.92979789525E+02 0.  0.
         11    1    3    3    0    0 -0.44276849287E+02  0.33875825855E+03  0.43527437121E+03  0.55333658414E+03  0.00000000000E+00 0. -1.
        -11    1    3    3    0    0  0.46823737918E+02  0.23904338691E+03  0.30468325367E+03  0.39008471942E+03  0.00000000000E+00 0.  1.
         22    1    1    2    0    0 -0.25468886318E+01 -0.57780164546E+03  0.12776341634E+04  0.14022162043E+04  0.00000000000E+00 0. -1.
<mgrwt>
<rscale>  0 0.11963857E+04</rscale>
<asrwt>0</asrwt>
<pdfrwt beam="1">  1        2 0.33563300E+00 0.11963857E+04</pdfrwt>
<pdfrwt beam="2">  1       -2 0.25234288E-01 0.11963857E+04</pdfrwt>
<totfact> 0.73830303E+01</totfact>
</mgrwt>
</event>
<event>
 6    1  0.1072514E-005  0.4036533E+04  0.7818608E-02  0.7997217E-01
         -2   -1    0    0    0  501 -0.00000000000E+00  0.00000000000E+00  0.34888121784E+04  0.34888121784E+04  0.00000000000E+00 0.  1.
          2   -1    0    0  501    0  0.00000000000E+00 -0.00000000000E+00 -0.11675604884E+04  0.11675604884E+04  0.00000000000E+00 0. -1.
         23    2    1    2    0    0  0.10574745624E+04  0.11693670406E+04  0.26135751219E+04  0.30528999620E+04  0.61249770947E+02 0.  0.
         13    1    3    3    0    0  0.94371574807E+03  0.10136930515E+04  0.22940851042E+04  0.26797386964E+04  0.00000000000E+00 0.  1.
        -13    1    3    3    0    0  0.11375881438E+03  0.15567398913E+03  0.31949001770E+03  0.37316126561E+03  0.00000000000E+00 0. -1.
         22    1    1    2    0    0 -0.10574745624E+04 -0.11693670406E+04 -0.29232343193E+03  0.16034727047E+04  0.00000000000E+00 0. -1.
<mgrwt>
<rscale>  0 0.40365328E+04</rscale>
<asrwt>0</asrwt>
<pdfrwt beam="1">  1        2 0.17962469E+00 0.40365328E+04</pdfrwt>
<pdfrwt beam="2">  1       -2 0.53674033E+00 0.40365328E+04</pdfrwt>
<totfact> 0.15670251E-02</totfact>
</mgrwt>
</event>
<event>
 6    1  0.1072514E-005  0.3098764E+04  0.7818608E-02  0.8216077E-01
         -1   -1    0    0    0  501 -0.00000000000E+00  0.00000000000E+00  0.52304582254E+03  0.52304582254E+03  0.00000000000E+00 0.  1.
          1   -1    0    0  501    0  0.00000000000E+00 -0.00000000000E+00 -0.45896262307E+04  0.45896262307E+04  0.00000000000E+00 0. -1.
         23    2    1    2    0    0 -0.95831328049E+03 -0.50831908081E+03 -0.38572257835E+04  0.40078725283E+04  0.89993482303E+02 0.  0.
         11    1    3    3    0    0 -0.35299606304E+03 -0.15359784868E+03 -0.12539662691E+04  0.13117278390E+04  0.00000000000E+00 0. -1.
        -11    1    3    3    0    0 -0.60531721746E+03 -0.35472123213E+03 -0.26032595144E+04  0.26961446892E+04  0.00000000000E+00 0.  1.
         22    1    1    2    0    0  0.95831328049E+03  0.50831908081E+03 -0.20935462469E+03  0.11047995250E+04  0.00000000000E+00 0.  1.
<mgrwt>
<rscale>  0 0.30987642E+04</rscale>
<asrwt>0</asrwt>
<pdfrwt beam="1">  1        1 0.70609635E+00 0.30987642E+04</pdfrwt>
<pdfrwt beam="2">  1       -1 0.80468587E-01 0.30987642E+04</pdfrwt>
<totfact> 0.33714072E-02</totfact>
</mgrwt>
</event>
<event>
 6    1  0.1072514E-005  0.2489116E+04  0.7818608E-02  0.8406873E-01
          2   -1    0    0  501    0  0.00000000000E+00  0.00000000000E+00  0.99385519949E+03  0.99385519949E+03  0.00000000000E+00 0. -1.
         -2   -1    0    0    0  501 -0.00000000000E+00 -0.00000000000E+00 -0.15585008127E+04  0.15585008127E+04  0.00000000000E+00 0.  1.
         23    2    1    2    0    0 -0.64316969933E+03  0.68635789779E+03 -0.11139670234E+04  0.14630863313E+04  0.12224834352E+03 0.  0.
         11    1    3    3    0    0 -0.48238697674E+03  0.52820699626E+03 -0.76279705563E+03  0.10457337971E+04  0.00000000000E+00 0.  1.
        -11    1    3    3    0    0 -0.16078272259E+03  0.15815090153E+03 -0.35116996780E+03  0.41735253422E+03  0.00000000000E+00 0. -1.
         22    1    1    2    0    0  0.64316969933E+03 -0.68635789779E+03  0.54932141023E+03  0.10892696809E+04  0.00000000000E+00 0. -1.
<mgrwt>
<rscale>  0 0.24891156E+04</rscale>
<asrwt>0</asrwt>
<pdfrwt beam="1">  1        2 0.15290080E+00 0.24891156E+04</pdfrwt>
<pdfrwt beam="2">  1       -2 0.23976935E+00 0.24891156E+04</pdfrwt>
<totfact> 0.16861546E+00</totfact>
</mgrwt>
</event>
<event>
 6    1  0.1072514E-005  0.2660770E+04  0.7818608E-02  0.8347847E-01
         -2   -1    0    0    0  501 -0.00000000000E+00  0.00000000000E+00  0.14341993383E+04  0.14341993383E+04  0.00000000000E+00 0. -1.
          2   -1    0    0  501    0  0.00000000000E+00 -0.00000000000E+00 -0.12340853794E+04  0.12340853794E+04  0.00000000000E+00 0.  1.
         23    2    1    2    0    0  0.40126296524E+03  0.62979690098E+02 -0.11685183495E+04  0.12406528309E+04  0.93839783553E+02 0.  0.
         13    1    3    3    0    0  0.14015580792E+03  0.52398256086E+02 -0.32956055486E+03  0.36193837466E+03  0.00000000000E+00 0. -1.
        -13    1    3    3    0    0  0.26110715732E+03  0.10581434012E+02 -0.83895779464E+03  0.87871445620E+03  0.00000000000E+00 0.  1.
         22    1    1    2    0    0 -0.40126296524E+03 -0.62979690098E+02  0.13686323085E+04  0.14276318869E+04  0.00000000000E+00 0. -1.
<mgrwt>
<rscale>  0 0.26607701E+04</rscale>
<asrwt>0</asrwt>
<pdfrwt beam="1">  1        2 0.18985929E+00 0.26607701E+04</pdfrwt>
<pdfrwt beam="2">  1       -2 0.22064605E+00 0.26607701E+04</pdfrwt>
<totfact> 0.15575904E+00</totfact>
</mgrwt>
</event>
<event>
 6    1  0.1072514E-005  0.3177684E+04  0.7818608E-02  0.8194736E-01
          2   -1    0    0  501    0  0.00000000000E+00  0.00000000000E+00  0.18068873579E+04  0.18068873579E+04  0.00000000000E+00 0. -1.
         -2   -1    0    0    0  501 -0.00000000000E+00 -0.00000000000E+00 -0.13971093932E+04  0.13971093932E+04  0.00000000000E+00 0.  1.
         23    2    1    2    0    0  0.84883065577E+03 -0.59611996514E+02 -0.11462600612E+04  0.14304913492E+04  0.91248561297E+02 0.  0.
         11    1    3    3    0    0  0.61945644360E+03 -0.83918505497E+02 -0.83229549049E+03  0.10409055599E+04  0.00000000000E+00 0. -1.
        -11    1    3    3    0    0  0.22937421217E+03  0.24306508983E+02 -0.31396457070E+03  0.38958578932E+03  0.00000000000E+00 0.  1.
         22    1    1    2    0    0 -0.84883065577E+03  0.59611996514E+02  0.15560380259E+04  0.17735054019E+04  0.00000000000E+00 0. -1.
<mgrwt>
<rscale>  0 0.31776843E+04</rscale>
<asrwt>0</asrwt>
<pdfrwt beam="1">  1        2 0.27798267E+00 0.31776843E+04</pdfrwt>
<pdfrwt beam="2">  1       -2 0.21493991E+00 0.31776843E+04</pdfrwt>
<totfact> 0.76812559E-01</totfact>
</mgrwt>
</event>
<event>
 6    1  0.1323717E-005  0.2706149E+04  0.7818608E-02  0.8333013E-01
          2   -1    0    0  501    0  0.00000000000E+00  0.00000000000E+00  0.12548694033E+04  0.12548694033E+04  0.00000000000E+00 0. -1.
         -2   -1    0    0    0  501 -0.00000000000E+00 -0.00000000000E+00 -0.14589647605E+04  0.14589647605E+04  0.00000000000E+00 0.  1.
         23    2    1    2    0    0 -0.79980178571E+02  0.10762759516E+04 -0.91803804348E+03  0.14198168098E+04  0.91209490275E+02 0.  0.
         11    1    3    3    0    0  0.57792597530E+01  0.46542249351E+03 -0.42172467457E+03  0.62809489605E+03  0.00000000000E+00 0. -1.
        -11    1    3    3    0    0 -0.85759438324E+02  0.61085345813E+03 -0.49631336891E+03  0.79172191376E+03  0.00000000000E+00 0.  1.
         22    1    1    2    0    0  0.79980178571E+02 -0.10762759516E+04  0.71394268632E+03  0.12940173540E+04  0.00000000000E+00 0. -1.
<mgrwt>
<rscale>  0 0.27061487E+04</rscale>
<asrwt>0</asrwt>
<pdfrwt beam="1">  1        2 0.19305683E+00 0.27061487E+04</pdfrwt>
<pdfrwt beam="2">  1       -2 0.22445612E+00 0.27061487E+04</pdfrwt>
<totfact> 0.14271956E+00</totfact>
</mgrwt>
</event>
<event>
 6    1  0.1072514E-005  0.3515746E+04  0.7818608E-02  0.8110069E-01
         -2   -1    0    0    0  501 -0.00000000000E+00  0.00000000000E+00  0.27630148511E+04  0.27630148511E+04  0.00000000000E+00 0.  1.
          2   -1    0    0  501    0  0.00000000000E+00 -0.00000000000E+00 -0.11183859787E+04  0.11183859787E+04  0.00000000000E+00 0. -1.
         23    2    1    2    0    0  0.15146004755E+04  0.36287849604E+03 -0.74320423005E+02  0.15618142108E+04  0.89692254494E+02 0.  0.
         13    1    3    3    0    0  0.86512706000E+03  0.24870267537E+03 -0.24434861071E+02  0.90049703671E+03  0.00000000000E+00 0.  1.
        -13    1    3    3    0    0  0.64947341545E+03  0.11417582067E+03 -0.49885561934E+02  0.66131717405E+03  0.00000000000E+00 0. -1.
         22    1    1    2    0    0 -0.15146004755E+04 -0.36287849604E+03  0.17189492954E+04  0.23195866190E+04  0.00000000000E+00 0.  1.
<mgrwt>
<rscale>  0 0.35157458E+04</rscale>
<asrwt>0</asrwt>
<pdfrwt beam="1">  1        2 0.17205938E+00 0.35157458E+04</pdfrwt>
<pdfrwt beam="2">  1       -2 0.42507921E+00 0.35157458E+04</pdfrwt>
<totfact> 0.88313184E-02</totfact>
</mgrwt>
</event>
<event>
 6    1  0.1072514E-005  0.2370320E+04  0.7818608E-02  0.8450700E-01
          2   -1    0    0  501    0  0.00000000000E+00  0.00000000000E+00  0.11990793686E+04  0.11990793686E+04  0.00000000000E+00 0. -1.
         -2   -1    0    0    0  501 -0.00000000000E+00 -0.00000000000E+00 -0.11714018623E+04  0.11714018623E+04  0.00000000000E+00 0.  1.
         23    2    1    2    0    0  0.93268521562E+03 -0.72205754213E+03 -0.83566963376E+02  0.11857263458E+04  0.87719577541E+02 0.  0.
         11    1    3    3    0    0  0.38329226353E+03 -0.35085011502E+03 -0.28689997991E+02  0.52041510208E+03  0.00000000000E+00 0. -1.
        -11    1    3    3    0    0  0.54939295210E+03 -0.37120742711E+03 -0.54876965385E+02  0.66531124377E+03  0.00000000000E+00 0.  1.
         22    1    1    2    0    0 -0.93268521562E+03  0.72205754213E+03  0.11124446970E+03  0.11847548850E+04  0.00000000000E+00 0. -1.
<mgrwt>
<rscale>  0 0.23703196E+04</rscale>
<asrwt>0</asrwt>
<pdfrwt beam="1">  1        2 0.18447375E+00 0.23703196E+04</pdfrwt>
<pdfrwt beam="2">  1       -2 0.18021567E+00 0.23703196E+04</pdfrwt>
<totfact> 0.30892288E+00</totfact>
</mgrwt>
</event>
<event>
 6    1  0.1072514E-005  0.2189647E+04  0.7818608E-02  0.8522750E-01
         -2   -1    0    0    0  501 -0.00000000000E+00  0.00000000000E+00  0.59993674550E+03  0.59993674550E+03  0.00000000000E+00 0.  1.
          2   -1    0    0  501    0  0.00000000000E+00 -0.00000000000E+00 -0.19979412971E+04  0.19979412971E+04  0.00000000000E+00 0. -1.
         23    2    1    2    0    0 -0.42162426615E+03  0.93035802911E+03 -0.11614504831E+04  0.15494072936E+04  0.91447539814E+02 0.  0.
         11    1    3    3    0    0 -0.31546675138E+03  0.59069741583E+03 -0.75880438074E+03  0.10120409066E+04  0.00000000000E+00 0.  1.
        -11    1    3    3    0    0 -0.10615751477E+03  0.33966061329E+03 -0.40264610239E+03  0.53736638705E+03  0.00000000000E+00 0. -1.
         22    1    1    2    0    0  0.42162426615E+03 -0.93035802911E+03 -0.23655406844E+03  0.10484707490E+04  0.00000000000E+00 0.  1.
<mgrwt>
<rscale>  0 0.21896469E+04</rscale>
<asrwt>0</asrwt>
<pdfrwt beam="1">  1        2 0.30737558E+00 0.21896469E+04</pdfrwt>
<pdfrwt beam="2">  1       -2 0.92297961E-01 0.21896469E+04</pdfrwt>
<totfact> 0.61084577E+00</totfact>
</mgrwt>
</event>
<event>
 6    1  0.1072514E-005  0.2417691E+04  0.7818608E-02  0.8432910E-01
          2   -1    0    0  501    0  0.00000000000E+00  0.00000000000E+00  0.20554487276E+04  0.20554487276E+04  0.00000000000E+00 0. -1.
         -2   -1    0    0    0  501 -0.00000000000E+00 -0.00000000000E+00 -0.71094330174E+03  0.71094330174E+03  0.00000000000E+00 0.  1.
         23    2    1    2    0    0 -0.18430270546E+03 -0.10581228174E+04  0.42730273400E+02  0.10787279835E+04  0.90756829721E+02 0.  0.
         13    1    3    3    0    0 -0.10018468680E+03 -0.76198629717E+03  0.48927480764E+01  0.76855970980E+03  0.00000000000E+00 0. -1.
        -13    1    3    3    0    0 -0.84118018659E+02 -0.29613652026E+03  0.37837525323E+02  0.31016827371E+03  0.00000000000E+00 0.  1.
         22    1    1    2    0    0  0.18430270546E+03  0.10581228174E+04  0.13017751525E+04  0.16876640458E+04  0.00000000000E+00 0. -1.
<mgrwt>
<rscale>  0 0.24176911E+04</rscale>
<asrwt>0</asrwt>
<pdfrwt beam="1">  1        2 0.31622288E+00 0.24176911E+04</pdfrwt>
<pdfrwt beam="2">  1       -2 0.10937589E+00 0.24176911E+04</pdfrwt>
<totfact> 0.37216561E+00</totfact>
</mgrwt>
</event>
<event>
 6    1  0.1072514E-005  0.2252034E+04  0.7818608E-02  0.8497077E-01
          2   -1    0    0  501    0  0.00000000000E+00  0.00000000000E+00  0.22765846703E+04  0.22765846703E+04  0.00000000000E+00 0. -1.
         -2   -1    0    0    0  501 -0.00000000000E+00 -0.00000000000E+00 -0.55693707511E+03  0.55693707511E+03  0.00000000000E+00 0.  1.
         23    2    1    2    0    0  0.52469812282E+03  0.96329998370E+03  0.11704191139E+04  0.16067752747E+04  0.92687122293E+02 0.  0.
         11    1    3    3    0    0  0.45839648042E+03  0.82746076859E+03  0.10520354429E+04  0.14147781557E+04  0.00000000000E+00 0.  1.
        -11    1    3    3    0    0  0.66301642399E+02  0.13583921511E+03  0.11838367099E+03  0.19199711900E+03  0.00000000000E+00 0. -1.
         22    1    1    2    0    0 -0.52469812282E+03 -0.96329998370E+03  0.54922848131E+03  0.12267464707E+04  0.00000000000E+00 0.  1.
<mgrwt>
<rscale>  0 0.22520341E+04</rscale>
<asrwt>0</asrwt>
<pdfrwt beam="1">  1        2 0.35024379E+00 0.22520341E+04</pdfrwt>
<pdfrwt beam="2">  1       -2 0.85682628E-01 0.22520341E+04</pdfrwt>
<totfact> 0.50329206E+00</totfact>
</mgrwt>
</event>
<event>
 6    1  0.1072514E-005  0.7334679E+03  0.7818608E-02  0.9661650E-01
          2   -1    0    0  501    0  0.00000000000E+00  0.00000000000E+00  0.17932268409E+04  0.17932268409E+04  0.00000000000E+00 0. -1.
         -2   -1    0    0    0  501 -0.00000000000E+00 -0.00000000000E+00 -0.75000985894E+02  0.75000985894E+02  0.00000000000E+00 0.  1.
         23    2    1    2    0    0 -0.31294505941E+03 -0.63130264519E+02  0.13019990400E+04  0.13436662937E+04  0.91200701950E+02 0.  0.
         11    1    3    3    0    0 -0.19304255587E+03 -0.82540903987E+02  0.78499531772E+03  0.81258604347E+03  0.00000000000E+00 0. -1.
        -11    1    3    3    0    0 -0.11990250354E+03  0.19410639468E+02  0.51700372232E+03  0.53108025022E+03  0.00000000000E+00 0.  1.
         22    1    1    2    0    0  0.31294505941E+03  0.63130264519E+02  0.41622681496E+03  0.52456153309E+03  0.00000000000E+00 0.  1.
<mgrwt>
<rscale>  0 0.73346788E+03</rscale>
<asrwt>0</asrwt>
<pdfrwt beam="1">  1        2 0.27588102E+00 0.73346788E+03</pdfrwt>
<pdfrwt beam="2">  1       -2 0.11538615E-01 0.73346788E+03</pdfrwt>
<totfact> 0.48186085E+02</totfact>
</mgrwt>
</event>
<event>
 6    1  0.1072514E-005  0.5017300E+04  0.7818608E-02  0.7825844E-01
          2   -1    0    0  501    0  0.00000000000E+00  0.00000000000E+00  0.26626297458E+04  0.26626297458E+04  0.00000000000E+00 0.  1.
         -2   -1    0    0    0  501 -0.00000000000E+00 -0.00000000000E+00 -0.23635747327E+04  0.23635747327E+04  0.00000000000E+00 0. -1.
         23    2    1    2    0    0 -0.15231822816E+04 -0.95468593386E+03  0.19012874500E+04  0.26181641390E+04  0.91542315317E+02 0.  0.
         13    1    3    3    0    0 -0.31261784953E+03 -0.15341456828E+03  0.37175700910E+03  0.50938121620E+03  0.00000000000E+00 0.  1.
        -13    1    3    3    0    0 -0.12105644321E+04 -0.80127136559E+03  0.15295304409E+04  0.21087829227E+04  0.00000000000E+00 0. -1.
         22    1    1    2    0    0  0.15231822816E+04  0.95468593386E+03 -0.16022324369E+04  0.24080403396E+04  0.00000000000E+00 0. -1.
<mgrwt>
<rscale>  0 0.50172998E+04</rscale>
<asrwt>0</asrwt>
<pdfrwt beam="1">  1        2 0.40963534E+00 0.50172998E+04</pdfrwt>
<pdfrwt beam="2">  1       -2 0.36362688E+00 0.50172998E+04</pdfrwt>
<totfact> 0.25913169E-02</totfact>
</mgrwt>
</event>
<event>
 6    1  0.1072514E-005  0.3966938E+04  0.7818608E-02  0.8011250E-01
         -1   -1    0    0    0  501 -0.00000000000E+00  0.00000000000E+00  0.80429452041E+03  0.80429452041E+03  0.00000000000E+00 0.  1.
          1   -1    0    0  501    0  0.00000000000E+00 -0.00000000000E+00 -0.48914297803E+04  0.48914297803E+04  0.00000000000E+00 0. -1.
         23    2    1    2    0    0 -0.10536057620E+03 -0.17947524669E+04 -0.32436009035E+04  0.37098271536E+04  0.98149985240E+02 0.  0.
         13    1    3    3    0    0 -0.11721498749E+03 -0.12547014206E+04 -0.22466372964E+04  0.25759258820E+04  0.00000000000E+00 0. -1.
        -13    1    3    3    0    0  0.11854411289E+02 -0.54005104628E+03 -0.99696360716E+03  0.11339012716E+04  0.00000000000E+00 0.  1.
         22    1    1    2    0    0  0.10536057620E+03  0.17947524669E+04 -0.84353435635E+03  0.19858971471E+04  0.00000000000E+00 0.  1.
<mgrwt>
<rscale>  0 0.39669385E+04</rscale>
<asrwt>0</asrwt>
<pdfrwt beam="1">  1        1 0.75252765E+00 0.39669385E+04</pdfrwt>
<pdfrwt beam="2">  1       -1 0.12373762E+00 0.39669385E+04</pdfrwt>
<totfact> 0.52710933E-03</totfact>
</mgrwt>
</event>
<event>
 6    1  0.1072514E-005  0.2040360E+04  0.7818608E-02  0.8587980E-01
          2   -1    0    0  501    0  0.00000000000E+00  0.00000000000E+00  0.77205634979E+03  0.77205634979E+03  0.00000000000E+00 0. -1.
         -2   -1    0    0    0  501 -0.00000000000E+00 -0.00000000000E+00 -0.13480453032E+04  0.13480453032E+04  0.00000000000E+00 0.  1.
         23    2    1    2    0    0 -0.32431942230E+03 -0.52405860108E+03  0.55337944397E+03  0.83351955998E+03  0.93303498437E+02 0.  0.
         13    1    3    3    0    0 -0.40464343687E+02 -0.11645085305E+03  0.14626317322E+03  0.19128795081E+03  0.00000000000E+00 0.  1.
        -13    1    3    3    0    0 -0.28385507861E+03 -0.40760774803E+03  0.40711627075E+03  0.64223160917E+03  0.00000000000E+00 0. -1.
         22    1    1    2    0    0  0.32431942230E+03  0.52405860108E+03 -0.11293683974E+04  0.12865820930E+04  0.00000000000E+00 0.  1.
<mgrwt>
<rscale>  0 0.20403597E+04</rscale>
<asrwt>0</asrwt>
<pdfrwt beam="1">  1        2 0.11877790E+00 0.20403597E+04</pdfrwt>
<pdfrwt beam="2">  1       -2 0.20739158E+00 0.20403597E+04</pdfrwt>
<totfact> 0.39778387E+00</totfact>
</mgrwt>
</event>
<event>
 6    1  0.1072514E-005  0.6052253E+03  0.7818608E-02  0.9894624E-01
         -1   -1    0    0    0  501 -0.00000000000E+00  0.00000000000E+00  0.11908469060E+03  0.11908469060E+03  0.00000000000E+00 0.  1.
          1   -1    0    0  501    0  0.00000000000E+00 -0.00000000000E+00 -0.76898566695E+03  0.76898566695E+03  0.00000000000E+00 0. -1.
         23    2    1    2    0    0 -0.20686046547E+03 -0.16043697191E+03 -0.53399822295E+03  0.60177554032E+03  0.91915312599E+02 0.  0.
         13    1    3    3    0    0 -0.65005468831E+02 -0.27727630928E+01 -0.13754613274E+03  0.15215892292E+03  0.00000000000E+00 0. -1.
        -13    1    3    3    0    0 -0.14185499664E+03 -0.15766420881E+03 -0.39645209020E+03  0.44961661740E+03  0.00000000000E+00 0.  1.
         22    1    1    2    0    0  0.20686046547E+03  0.16043697191E+03 -0.11590275340E+03  0.28629481723E+03  0.00000000000E+00 0.  1.
<mgrwt>
<rscale>  0 0.60522531E+03</rscale>
<asrwt>0</asrwt>
<pdfrwt beam="1">  1        1 0.11830548E+00 0.60522531E+03</pdfrwt>
<pdfrwt beam="2">  1       -1 0.18320722E-01 0.60522531E+03</pdfrwt>
<totfact> 0.56353477E+02</totfact>
</mgrwt>
</event>
<event>
 6    1  0.1072514E-005  0.1804057E+04  0.7818608E-02  0.8704145E-01
          1   -1    0    0  501    0  0.00000000000E+00  0.00000000000E+00  0.27606254138E+04  0.27606254138E+04  0.00000000000E+00 0. -1.
         -1   -1    0    0    0  501 -0.00000000000E+00 -0.00000000000E+00 -0.29473595381E+03  0.29473595381E+03  0.00000000000E+00 0.  1.
         23    2    1    2    0    0 -0.66907873241E+03 -0.66418179645E+02  0.22343700019E+03  0.71427812279E+03  0.90506457755E+02 0.  0.
         11    1    3    3    0    0 -0.28157752305E+03 -0.60967713615E+02  0.63407668373E+02  0.29499745084E+03  0.00000000000E+00 0. -1.
        -11    1    3    3    0    0 -0.38750120935E+03 -0.54504660302E+01  0.16002933182E+03  0.41928067195E+03  0.00000000000E+00 0.  1.
         22    1    1    2    0    0  0.66907873241E+03  0.66418179645E+02  0.22424524598E+04  0.23410832448E+04  0.00000000000E+00 0. -1.
<mgrwt>
<rscale>  0 0.18040572E+04</rscale>
<asrwt>0</asrwt>
<pdfrwt beam="1">  1        1 0.42471158E+00 0.18040572E+04</pdfrwt>
<pdfrwt beam="2">  1       -1 0.45343995E-01 0.18040572E+04</pdfrwt>
<totfact> 0.40567038E+00</totfact>
</mgrwt>
</event>
<event>
 6    1  0.1072514E-005  0.2547555E+04  0.7818608E-02  0.8386237E-01
          1   -1    0    0  501    0  0.00000000000E+00  0.00000000000E+00  0.23413648776E+04  0.23413648776E+04  0.00000000000E+00 0. -1.
         -1   -1    0    0    0  501 -0.00000000000E+00 -0.00000000000E+00 -0.69297600140E+03  0.69297600140E+03  0.00000000000E+00 0.  1.
         23    2    1    2    0    0 -0.80017704000E+03  0.59018112430E+03  0.17704641785E+04  0.20325926899E+04  0.91063610478E+02 0.  0.
         11    1    3    3    0    0 -0.10680424273E+03  0.11401571150E+03  0.31315123014E+03  0.34995774270E+03  0.00000000000E+00 0.  1.
        -11    1    3    3    0    0 -0.69337279727E+03  0.47616541280E+03  0.14573129483E+04  0.16826349472E+04  0.00000000000E+00 0. -1.
         22    1    1    2    0    0  0.80017704000E+03 -0.59018112430E+03 -0.12207530227E+03  0.10017481890E+04  0.00000000000E+00 0.  1.
<mgrwt>
<rscale>  0 0.25475554E+04</rscale>
<asrwt>0</asrwt>
<pdfrwt beam="1">  1        1 0.36020998E+00 0.25475554E+04</pdfrwt>
<pdfrwt beam="2">  1       -1 0.10661169E+00 0.25475554E+04</pdfrwt>
<totfact> 0.12668271E+00</totfact>
</mgrwt>
</event>
<event>
 6    1  0.1072514E-005  0.2059008E+04  0.7818608E-02  0.8579519E-01
         -1   -1    0    0    0  501 -0.00000000000E+00  0.00000000000E+00  0.10711242826E+04  0.10711242826E+04  0.00000000000E+00 0.  1.
          1   -1    0    0  501    0  0.00000000000E+00 -0.00000000000E+00 -0.98950096558E+03  0.98950096558E+03  0.00000000000E+00 0. -1.
         23    2    1    2    0    0  0.39173961224E+03 -0.94687778674E+03 -0.34517756293E+02  0.10293511742E+04  0.91295659569E+02 0.  0.
         13    1    3    3    0    0  0.33907826596E+02 -0.13991395553E+03 -0.27576525418E+02  0.14658144634E+03  0.00000000000E+00 0. -1.
        -13    1    3    3    0    0  0.35783178564E+03 -0.80696383121E+03 -0.69412308743E+01  0.88276972783E+03  0.00000000000E+00 0.  1.
         22    1    1    2    0    0 -0.39173961224E+03  0.94687778674E+03  0.11614107331E+03  0.10312740740E+04  0.00000000000E+00 0. -1.
<mgrwt>
<rscale>  0 0.20590080E+04</rscale>
<asrwt>0</asrwt>
<pdfrwt beam="1">  1        1 0.15223092E+00 0.20590080E+04</pdfrwt>
<pdfrwt beam="2">  1       -1 0.16478835E+00 0.20590080E+04</pdfrwt>
<totfact> 0.38281827E+00</totfact>
</mgrwt>
</event>
<event>
 6    1  0.1072514E-005  0.1529905E+04  0.7818608E-02  0.8864806E-01
         -1   -1    0    0    0  501 -0.00000000000E+00  0.00000000000E+00  0.52433471143E+03  0.52433471143E+03  0.00000000000E+00 0.  1.
          1   -1    0    0  501    0  0.00000000000E+00 -0.00000000000E+00 -0.11159903472E+04  0.11159903472E+04  0.00000000000E+00 0. -1.
         23    2    1    2    0    0  0.65918883460E+03 -0.32974364598E+03 -0.88964033699E+02  0.74815935735E+03  0.92558268005E+02 0.  0.
         11    1    3    3    0    0  0.13398517091E+03 -0.27138622913E+02 -0.17150787050E+02  0.13777764831E+03  0.00000000000E+00 0. -1.
        -11    1    3    3    0    0  0.52520366369E+03 -0.30260502306E+03 -0.71813246649E+02  0.61038170904E+03  0.00000000000E+00 0.  1.
         22    1    1    2    0    0 -0.65918883460E+03  0.32974364598E+03 -0.50269160203E+03  0.89216570124E+03  0.00000000000E+00 0. -1.
<mgrwt>
<rscale>  0 0.15299052E+04</rscale>
<asrwt>0</asrwt>
<pdfrwt beam="1">  1        1 0.17169082E+00 0.15299052E+04</pdfrwt>
<pdfrwt beam="2">  1       -1 0.80666879E-01 0.15299052E+04</pdfrwt>
<totfact> 0.18240683E+01</totfact>
</mgrwt>
</event>
<event>
 6    1  0.1072514E-005  0.4704783E+04  0.7818608E-02  0.7875734E-01
          1   -1    0    0  501    0  0.00000000000E+00  0.00000000000E+00  0.33521163475E+04  0.33521163475E+04  0.00000000000E+00 0. -1.
         -1   -1    0    0    0  501 -0.00000000000E+00 -0.00000000000E+00 -0.16508216495E+04  0.16508216495E+04  0.00000000000E+00 0.  1.
         23    2    1    2    0    0 -0.13584532104E+04 -0.10202652129E+04 -0.87782189335E+03  0.19145438155E+04  0.92577078982E+02 0.  0.
         13    1    3    3    0    0 -0.21366423154E+03 -0.14900968712E+03 -0.17154495991E+03  0.31190377357E+03  0.00000000000E+00 0. -1.
        -13    1    3    3    0    0 -0.11447889788E+04 -0.87125552574E+03 -0.70627693344E+03  0.16026400419E+04  0.00000000000E+00 0.  1.
         22    1    1    2    0    0  0.13584532104E+04  0.10202652129E+04  0.25791165913E+04  0.30883941816E+04  0.00000000000E+00 0. -1.
<mgrwt>
<rscale>  0 0.47047832E+04</rscale>
<asrwt>0</asrwt>
<pdfrwt beam="1">  1        1 0.51571021E+00 0.47047832E+04</pdfrwt>
<pdfrwt beam="2">  1       -1 0.25397256E+00 0.47047832E+04</pdfrwt>
<totfact> 0.15799507E-02</totfact>
</mgrwt>
</event>
<event>
 6    1  0.1072514E-005  0.2494308E+04  0.7818608E-02  0.8405016E-01
         -1   -1    0    0    0  501 -0.00000000000E+00  0.00000000000E+00  0.10359086390E+04  0.10359086390E+04  0.00000000000E+00 0.  1.
          1   -1    0    0  501    0  0.00000000000E+00 -0.00000000000E+00 -0.15014772945E+04  0.15014772945E+04  0.00000000000E+00 0. -1.
         23    2    1    2    0    0  0.98256655991E+03 -0.74999039344E+03 -0.77320448373E+02  0.12417550813E+04  0.89747396550E+02 0.  0.
         13    1    3    3    0    0  0.10377596938E+03 -0.83495265713E+02  0.19298287612E+02  0.13458579094E+03  0.00000000000E+00 0. -1.
        -13    1    3    3    0    0  0.87879059052E+03 -0.66649512773E+03 -0.96618735985E+02  0.11071692903E+04  0.00000000000E+00 0.  1.
         22    1    1    2    0    0 -0.98256655991E+03  0.74999039344E+03 -0.38824820719E+03  0.12956308522E+04  0.00000000000E+00 0.  1.
<mgrwt>
<rscale>  0 0.24943082E+04</rscale>
<asrwt>0</asrwt>
<pdfrwt beam="1">  1        1 0.23099651E+00 0.24943082E+04</pdfrwt>
<pdfrwt beam="2">  1       -1 0.15937056E+00 0.24943082E+04</pdfrwt>
<totfact> 0.17140629E+00</totfact>
</mgrwt>
</event>
<event>
 6    1  0.1072514E-005  0.3830689E+04  0.7818608E-02  0.8039601E-01
          1   -1    0    0  501    0  0.00000000000E+00  0.00000000000E+00  0.24511056742E+04  0.24511056742E+04  0.00000000000E+00 0. -1.
         -1   -1    0    0    0  501 -0.00000000000E+00 -0.00000000000E+00 -0.14966898249E+04  0.14966898249E+04  0.00000000000E+00 0.  1.
         23    2    1    2    0    0  0.12037214989E+04  0.62594843508E+03  0.18692405657E+04  0.23114394400E+04  0.89079189027E+02 0.  0.
         13    1    3    3    0    0  0.10177224013E+04  0.50948630995E+03  0.16123215614E+04  0.19735541552E+04  0.00000000000E+00 0.  1.
        -13    1    3    3    0    0  0.18599909760E+03  0.11646212513E+03  0.25691900426E+03  0.33788528475E+03  0.00000000000E+00 0. -1.
         22    1    1    2    0    0 -0.12037214989E+04 -0.62594843508E+03 -0.91482471645E+03  0.16363560591E+04  0.00000000000E+00 0.  1.
<mgrwt>
<rscale>  0 0.38306892E+04</rscale>
<asrwt>0</asrwt>
<pdfrwt beam="1">  1        1 0.37709318E+00 0.38306892E+04</pdfrwt>
<pdfrwt beam="2">  1       -1 0.23025997E+00 0.38306892E+04</pdfrwt>
<totfact> 0.10928982E-01</totfact>
</mgrwt>
</event>
<event>
 6    1  0.1072514E-005  0.2045567E+04  0.7818608E-02  0.8585608E-01
         -2   -1    0    0    0  501 -0.00000000000E+00  0.00000000000E+00  0.57111517602E+03  0.57111517602E+03  0.00000000000E+00 0.  1.
          2   -1    0    0  501    0  0.00000000000E+00 -0.00000000000E+00 -0.18316545185E+04  0.18316545185E+04  0.00000000000E+00 0. -1.
         23    2    1    2    0    0 -0.59235909299E+03 -0.13144252317E+03  0.33244309246E+03  0.69814085810E+03  0.93358535122E+02 0.  0.
         13    1    3    3    0    0 -0.14680581559E+03 -0.14474077481E+02  0.41272490197E+02  0.15318245610E+03  0.00000000000E+00 0. -1.
        -13    1    3    3    0    0 -0.44555327741E+03 -0.11696844569E+03  0.29117060226E+03  0.54495840200E+03  0.00000000000E+00 0.  1.
         22    1    1    2    0    0  0.59235909299E+03  0.13144252317E+03 -0.15929824349E+04  0.17046288364E+04  0.00000000000E+00 0. -1.
<mgrwt>
<rscale>  0 0.20455666E+04</rscale>
<asrwt>0</asrwt>
<pdfrwt beam="1">  1        2 0.28179300E+00 0.20455666E+04</pdfrwt>
<pdfrwt beam="2">  1       -2 0.87863873E-01 0.20455666E+04</pdfrwt>
<totfact> 0.85668381E+00</totfact>
</mgrwt>
</event>
<event>
 6    1  0.1072514E-005  0.2189882E+04  0.7818608E-02  0.8522651E-01
         -1   -1    0    0    0  501 -0.00000000000E+00  0.00000000000E+00  0.61948046582E+03  0.61948046582E+03  0.00000000000E+00 0.  1.
          1   -1    0    0  501    0  0.00000000000E+00 -0.00000000000E+00 -0.19353238540E+04  0.19353238540E+04  0.00000000000E+00 0. -1.
         23    2    1    2    0    0  0.21370622274E+03 -0.23384471359E+03  0.56147266436E+03  0.65094790170E+03  0.90154967650E+02 0.  0.
         11    1    3    3    0    0  0.98306327557E+02 -0.70717514032E+02  0.14424417079E+03  0.18833874173E+03  0.00000000000E+00 0.  1.
        -11    1    3    3    0    0  0.11539989518E+03 -0.16312719956E+03  0.41722849357E+03  0.46260915997E+03  0.00000000000E+00 0. -1.
         22    1    1    2    0    0 -0.21370622274E+03  0.23384471359E+03 -0.18773160525E+04  0.19038564181E+04  0.00000000000E+00 0. -1.
<mgrwt>
<rscale>  0 0.21898816E+04</rscale>
<asrwt>0</asrwt>
<pdfrwt beam="1">  1        1 0.29774212E+00 0.21898816E+04</pdfrwt>
<pdfrwt beam="2">  1       -1 0.95304690E-01 0.21898816E+04</pdfrwt>
<totfact> 0.31978059E+00</totfact>
</mgrwt>
</event>
<event>
 6    1  0.1072514E-005  0.1702583E+04  0.7818608E-02  0.8759892E-01
          1   -1    0    0  501    0  0.00000000000E+00  0.00000000000E+00  0.15982524308E+04  0.15982524308E+04  0.00000000000E+00 0. -1.
         -1   -1    0    0    0  501 -0.00000000000E+00 -0.00000000000E+00 -0.45343122028E+03  0.45343122028E+03  0.00000000000E+00 0.  1.
         23    2    1    2    0    0 -0.40550360666E+03  0.67664235260E+03  0.95296276528E+03  0.12398414796E+04  0.82406396382E+02 0.  0.
         13    1    3    3    0    0 -0.16183449170E+03  0.34943037882E+03  0.45403227023E+03  0.59534636537E+03  0.00000000000E+00 0.  1.
        -13    1    3    3    0    0 -0.24366911497E+03  0.32721197379E+03  0.49893049505E+03  0.64449511423E+03  0.00000000000E+00 0. -1.
         22    1    1    2    0    0  0.40550360666E+03 -0.67664235260E+03  0.19185844522E+03  0.81184217146E+03  0.00000000000E+00 0.  1.
<mgrwt>
<rscale>  0 0.17025834E+04</rscale>
<asrwt>0</asrwt>
<pdfrwt beam="1">  1        1 0.24588499E+00 0.17025834E+04</pdfrwt>
<pdfrwt beam="2">  1       -1 0.69758650E-01 0.17025834E+04</pdfrwt>
<totfact> 0.11061711E+01</totfact>
</mgrwt>
</event>
<event>
 6    1  0.1072514E-005  0.2794887E+04  0.7818608E-02  0.8304858E-01
         -2   -1    0    0    0  501 -0.00000000000E+00  0.00000000000E+00  0.87953565498E+03  0.87953565498E+03  0.00000000000E+00 0.  1.
          2   -1    0    0  501    0  0.00000000000E+00 -0.00000000000E+00 -0.22203173293E+04  0.22203173293E+04  0.00000000000E+00 0. -1.
         23    2    1    2    0    0  0.24259218307E+03 -0.13735482877E+04 -0.73334560293E+03  0.15785165827E+04  0.91831164614E+02 0.  0.
         11    1    3    3    0    0  0.12599669110E+03 -0.47209138004E+03 -0.27051118153E+03  0.55849954038E+03  0.00000000000E+00 0. -1.
        -11    1    3    3    0    0  0.11659549198E+03 -0.90145690762E+03 -0.46283442140E+03  0.10200170424E+04  0.00000000000E+00 0.  1.
         22    1    1    2    0    0 -0.24259218307E+03  0.13735482877E+04 -0.60743607140E+03  0.15213364015E+04  0.00000000000E+00 0. -1.
<mgrwt>
<rscale>  0 0.27948869E+04</rscale>
<asrwt>0</asrwt>
<pdfrwt beam="1">  1        2 0.34158727E+00 0.27948869E+04</pdfrwt>
<pdfrwt beam="2">  1       -2 0.13531318E+00 0.27948869E+04</pdfrwt>
<totfact> 0.17169747E+00</totfact>
</mgrwt>
</event>
<event>
 6    1  0.1072514E-005  0.1874023E+04  0.7818608E-02  0.8667896E-01
         -2   -1    0    0    0  501 -0.00000000000E+00  0.00000000000E+00  0.31256846676E+03  0.31256846676E+03  0.00000000000E+00 0.  1.
          2   -1    0    0  501    0  0.00000000000E+00 -0.00000000000E+00 -0.28089545568E+04  0.28089545568E+04  0.00000000000E+00 0. -1.
         23    2    1    2    0    0  0.58965160867E+03 -0.52325657397E+03 -0.41497116892E+03  0.89581537526E+03  0.93795808598E+02 0.  0.
         11    1    3    3    0    0  0.27830358410E+03 -0.21026415314E+03 -0.14092061260E+03  0.37619478741E+03  0.00000000000E+00 0.  1.
        -11    1    3    3    0    0  0.31134802457E+03 -0.31299242083E+03 -0.27405055632E+03  0.51962058785E+03  0.00000000000E+00 0. -1.
         22    1    1    2    0    0 -0.58965160867E+03  0.52325657397E+03 -0.20814149212E+04  0.22257076483E+04  0.00000000000E+00 0. -1.
<mgrwt>
<rscale>  0 0.18740231E+04</rscale>
<asrwt>0</asrwt>
<pdfrwt beam="1">  1        2 0.43214686E+00 0.18740231E+04</pdfrwt>
<pdfrwt beam="2">  1       -2 0.48087456E-01 0.18740231E+04</pdfrwt>
<totfact> 0.88000159E+00</totfact>
</mgrwt>
</event>
<event>
 6    1  0.1072514E-005  0.3539181E+04  0.7818608E-02  0.8104567E-01
          2   -1    0    0  501    0  0.00000000000E+00  0.00000000000E+00  0.18461091912E+04  0.18461091912E+04  0.00000000000E+00 0. -1.
         -2   -1    0    0    0  501 -0.00000000000E+00 -0.00000000000E+00 -0.16962434710E+04  0.16962434710E+04  0.00000000000E+00 0.  1.
         23    2    1    2    0    0  0.12667323460E+04  0.11811282261E+04  0.43240712438E+03  0.17875009967E+04  0.92245158476E+02 0.  0.
         13    1    3    3    0    0  0.33578055176E+03  0.26452372120E+03  0.88284505518E+02  0.43648084944E+03  0.00000000000E+00 0. -1.
        -13    1    3    3    0    0  0.93095179421E+03  0.91660450488E+03  0.34412261886E+03  0.13510201473E+04  0.00000000000E+00 0.  1.
         22    1    1    2    0    0 -0.12667323460E+04 -0.11811282261E+04 -0.28254140424E+03  0.17548516655E+04  0.00000000000E+00 0.  1.
<mgrwt>
<rscale>  0 0.35391811E+04</rscale>
<asrwt>0</asrwt>
<pdfrwt beam="1">  1        2 0.28401680E+00 0.35391811E+04</pdfrwt>
<pdfrwt beam="2">  1       -2 0.26096054E+00 0.35391811E+04</pdfrwt>
<totfact> 0.36677956E-01</totfact>
</mgrwt>
</event>
<event>
 6    1  0.1072514E-005  0.1482258E+04  0.7818608E-02  0.8896338E-01
          2   -1    0    0  501    0  0.00000000000E+00  0.00000000000E+00  0.12339810871E+04  0.12339810871E+04  0.00000000000E+00 0. -1.
         -2   -1    0    0    0  501 -0.00000000000E+00 -0.00000000000E+00 -0.44512207351E+03  0.44512207351E+03  0.00000000000E+00 0.  1.
         23    2    1    2    0    0  0.77071024759E+01 -0.61067227956E+03  0.86598285513E+03  0.10635317843E+04  0.90518055503E+02 0.  0.
         11    1    3    3    0    0  0.27538488466E+02 -0.18448498262E+03  0.32288797572E+03  0.37289371411E+03  0.00000000000E+00 0. -1.
        -11    1    3    3    0    0 -0.19831385990E+02 -0.42618729694E+03  0.54309487941E+03  0.69063807018E+03  0.00000000000E+00 0.  1.
         22    1    1    2    0    0 -0.77071024759E+01  0.61067227956E+03 -0.77123841510E+02  0.61557137635E+03  0.00000000000E+00 0.  1.
<mgrwt>
<rscale>  0 0.14822580E+04</rscale>
<asrwt>0</asrwt>
<pdfrwt beam="1">  1        2 0.18984324E+00 0.14822580E+04</pdfrwt>
<pdfrwt beam="2">  1       -2 0.68480319E-01 0.14822580E+04</pdfrwt>
<totfact> 0.34109043E+01</totfact>
</mgrwt>
</event>
<event>
 6    1  0.1072514E-005  0.2734461E+04  0.7818608E-02  0.8323909E-01
         -2   -1    0    0    0  501 -0.00000000000E+00  0.00000000000E+00  0.46556079259E+03  0.46556079259E+03  0.00000000000E+00 0.  1.
          2   -1    0    0  501    0  0.00000000000E+00 -0.00000000000E+00 -0.40152004093E+04  0.40152004093E+04  0.00000000000E+00 0. -1.
         23    2    1    2    0    0 -0.35444666369E+03 -0.11145636466E+04 -0.29328070838E+04  0.31585029315E+04  0.83059125122E+02 0.  0.
         11    1    3    3    0    0 -0.25070051074E+02 -0.66377070662E+02 -0.13127910427E+03  0.14922676097E+03  0.00000000000E+00 0.  1.
        -11    1    3    3    0    0 -0.32937661261E+03 -0.10481865759E+04 -0.28015279795E+04  0.30092761706E+04  0.00000000000E+00 0. -1.
         22    1    1    2    0    0  0.35444666369E+03  0.11145636466E+04 -0.61683253291E+03  0.13222582703E+04  0.00000000000E+00 0.  1.
<mgrwt>
<rscale>  0 0.27344615E+04</rscale>
<asrwt>0</asrwt>
<pdfrwt beam="1">  1        2 0.61772313E+00 0.27344615E+04</pdfrwt>
<pdfrwt beam="2">  1       -2 0.71624738E-01 0.27344615E+04</pdfrwt>
<totfact> 0.51488464E-01</totfact>
</mgrwt>
</event>
<event>
 6    1  0.1072514E-005  0.4852842E+04  0.7818608E-02  0.7851617E-01
          2   -1    0    0  501    0  0.00000000000E+00  0.00000000000E+00  0.23340685856E+04  0.23340685856E+04  0.00000000000E+00 0. -1.
         -2   -1    0    0    0  501 -0.00000000000E+00 -0.00000000000E+00 -0.25224276198E+04  0.25224276198E+04  0.00000000000E+00 0.  1.
         23    2    1    2    0    0  0.73550845363E+03  0.21521778924E+04  0.74936250864E+03  0.23963815622E+04  0.90873848837E+02 0.  0.
         13    1    3    3    0    0  0.15438912375E+03  0.35504475894E+03  0.11315564983E+03  0.40335714135E+03  0.00000000000E+00 0.  1.
        -13    1    3    3    0    0  0.58111932987E+03  0.17971331335E+04  0.63620685881E+03  0.19930244209E+04  0.00000000000E+00 0. -1.
         22    1    1    2    0    0 -0.73550845363E+03 -0.21521778924E+04 -0.93772154279E+03  0.24601146432E+04  0.00000000000E+00 0.  1.
<mgrwt>
<rscale>  0 0.48528421E+04</rscale>
<asrwt>0</asrwt>
<pdfrwt beam="1">  1        2 0.35908748E+00 0.48528421E+04</pdfrwt>
<pdfrwt beam="2">  1       -2 0.38806579E+00 0.48528421E+04</pdfrwt>
<totfact> 0.28363910E-02</totfact>
</mgrwt>
</event>
<event>
 6    1  0.1072514E-005  0.1810851E+04  0.7818608E-02  0.8700550E-01
          1   -1    0    0  501    0  0.00000000000E+00  0.00000000000E+00  0.77017988263E+03  0.77017988263E+03  0.00000000000E+00 0. -1.
         -1   -1    0    0    0  501 -0.00000000000E+00 -0.00000000000E+00 -0.10644205117E+04  0.10644205117E+04  0.00000000000E+00 0.  1.
         23    2    1    2    0    0  0.25556689702E+03  0.10203701720E+03 -0.10190743059E+04  0.10592876504E+04  0.88610911109E+02 0.  0.
         13    1    3    3    0    0  0.11280283291E+03  0.73438116143E+02 -0.62103453100E+03  0.63545379432E+03  0.00000000000E+00 0.  1.
        -13    1    3    3    0    0  0.14276406412E+03  0.28598901061E+02 -0.39803977490E+03  0.42383385607E+03  0.00000000000E+00 0. -1.
         22    1    1    2    0    0 -0.25556689702E+03 -0.10203701720E+03  0.72483367687E+03  0.77531274390E+03  0.00000000000E+00 0. -1.
<mgrwt>
<rscale>  0 0.18108509E+04</rscale>
<asrwt>0</asrwt>
<pdfrwt beam="1">  1        1 0.11848921E+00 0.18108509E+04</pdfrwt>
<pdfrwt beam="2">  1       -1 0.16375700E+00 0.18108509E+04</pdfrwt>
<totfact> 0.60632848E+00</totfact>
</mgrwt>
</event>
<event>
 6    1  0.1072514E-005  0.1544440E+04  0.7818608E-02  0.8855427E-01
          1   -1    0    0  501    0  0.00000000000E+00  0.00000000000E+00  0.81500827672E+03  0.81500827672E+03  0.00000000000E+00 0. -1.
         -1   -1    0    0    0  501 -0.00000000000E+00 -0.00000000000E+00 -0.73167816759E+03  0.73167816759E+03  0.00000000000E+00 0.  1.
         23    2    1    2    0    0 -0.25977242400E+03 -0.72088701892E+03  0.11273495849E+03  0.77985892036E+03  0.91164458414E+02 0.  0.
         13    1    3    3    0    0 -0.21187466287E+03 -0.48218088610E+03  0.54216354020E+02  0.52946075655E+03  0.00000000000E+00 0. -1.
        -13    1    3    3    0    0 -0.47897761124E+02 -0.23870613283E+03  0.58518604470E+02  0.25039816381E+03  0.00000000000E+00 0.  1.
         22    1    1    2    0    0  0.25977242400E+03  0.72088701892E+03 -0.29404849358E+02  0.76682752395E+03  0.00000000000E+00 0. -1.
<mgrwt>
<rscale>  0 0.15444400E+04</rscale>
<asrwt>0</asrwt>
<pdfrwt beam="1">  1        1 0.12538589E+00 0.15444400E+04</pdfrwt>
<pdfrwt beam="2">  1       -1 0.11256587E+00 0.15444400E+04</pdfrwt>
<totfact> 0.14945928E+01</totfact>
</mgrwt>
</event>
<event>
 6    1  0.1072514E-005  0.1961794E+04  0.7818608E-02  0.8624695E-01
          1   -1    0    0  501    0  0.00000000000E+00  0.00000000000E+00  0.24703867516E+04  0.24703867516E+04  0.00000000000E+00 0. -1.
         -1   -1    0    0    0  501 -0.00000000000E+00 -0.00000000000E+00 -0.38947701570E+03  0.38947701570E+03  0.00000000000E+00 0.  1.
         23    2    1    2    0    0 -0.87518257186E+03 -0.82936262076E+02  0.41450534958E+03  0.97579197027E+03  0.86788978356E+02 0.  0.
         13    1    3    3    0    0 -0.58308591649E+03 -0.17078751840E+02  0.25661588817E+03  0.63728532372E+03  0.00000000000E+00 0. -1.
        -13    1    3    3    0    0 -0.29209665537E+03 -0.65857510236E+02  0.15788946142E+03  0.33850664655E+03  0.00000000000E+00 0.  1.
         22    1    1    2    0    0  0.87518257186E+03  0.82936262076E+02  0.16664043863E+04  0.18840717971E+04  0.00000000000E+00 0. -1.
<mgrwt>
<rscale>  0 0.19617939E+04</rscale>
<asrwt>0</asrwt>
<pdfrwt beam="1">  1        1 0.38005949E+00 0.19617939E+04</pdfrwt>
<pdfrwt beam="2">  1       -1 0.59919542E-01 0.19617939E+04</pdfrwt>
<totfact> 0.37350713E+00</totfact>
</mgrwt>
</event>
<event>
 6    1  0.1072514E-005  0.1261342E+04  0.7818608E-02  0.9060796E-01
          2   -1    0    0  501    0  0.00000000000E+00  0.00000000000E+00  0.35993420939E+03  0.35993420939E+03  0.00000000000E+00 0. -1.
         -2   -1    0    0    0  501 -0.00000000000E+00 -0.00000000000E+00 -0.11050512826E+04  0.11050512826E+04  0.00000000000E+00 0.  1.
         23    2    1    2    0    0 -0.58343774946E+03 -0.21312471288E+03 -0.27172029775E+03  0.68400773446E+03  0.90625106055E+02 0.  0.
         13    1    3    3    0    0 -0.25060125560E+03 -0.13954951985E+03 -0.12189608993E+03  0.31166282188E+03  0.00000000000E+00 0. -1.
        -13    1    3    3    0    0 -0.33283649386E+03 -0.73575193032E+02 -0.14982420782E+03  0.37234491258E+03  0.00000000000E+00 0.  1.
         22    1    1    2    0    0  0.58343774946E+03  0.21312471288E+03 -0.47339677544E+03  0.78097775752E+03  0.00000000000E+00 0.  1.
<mgrwt>
<rscale>  0 0.12613418E+04</rscale>
<asrwt>0</asrwt>
<pdfrwt beam="1">  1        2 0.55374495E-01 0.12613418E+04</pdfrwt>
<pdfrwt beam="2">  1       -2 0.17000789E+00 0.12613418E+04</pdfrwt>
<totfact> 0.18732368E+01</totfact>
</mgrwt>
</event>
<event>
 6    1  0.1072514E-005  0.1766957E+04  0.7818608E-02  0.8724072E-01
         -2   -1    0    0    0  501 -0.00000000000E+00  0.00000000000E+00  0.59817635865E+03  0.59817635865E+03  0.00000000000E+00 0.  1.
          2   -1    0    0  501    0  0.00000000000E+00 -0.00000000000E+00 -0.13048560623E+04  0.13048560623E+04  0.00000000000E+00 0. -1.
         23    2    1    2    0    0  0.39614440861E+03 -0.90226875652E+02  0.48774947262E+03  0.64139366968E+03  0.91733363093E+02 0.  0.
         13    1    3    3    0    0  0.66281679461E+02 -0.48077069481E+02  0.72219776493E+02  0.10918040923E+03  0.00000000000E+00 0. -1.
        -13    1    3    3    0    0  0.32986272915E+03 -0.42149806171E+02  0.41552969613E+03  0.53221326046E+03  0.00000000000E+00 0.  1.
         22    1    1    2    0    0 -0.39614440861E+03  0.90226875652E+02 -0.11944291762E+04  0.12616387512E+04  0.00000000000E+00 0. -1.
<mgrwt>
<rscale>  0 0.17669568E+04</rscale>
<asrwt>0</asrwt>
<pdfrwt beam="1">  1        2 0.20074708E+00 0.17669568E+04</pdfrwt>
<pdfrwt beam="2">  1       -2 0.92027133E-01 0.17669568E+04</pdfrwt>
<totfact> 0.15605316E+01</totfact>
</mgrwt>
</event>
<event>
 6    1  0.1072514E-005  0.1933125E+04  0.7818608E-02  0.8638542E-01
          1   -1    0    0  501    0  0.00000000000E+00  0.00000000000E+00  0.29316569054E+04  0.29316569054E+04  0.00000000000E+00 0. -1.
         -1   -1    0    0    0  501 -0.00000000000E+00 -0.00000000000E+00 -0.31867394278E+03  0.31867394278E+03  0.00000000000E+00 0.  1.
         23    2    1    2    0    0  0.43981524490E+03  0.75931755337E+03  0.19823857477E+04  0.21697507058E+04  0.89242794718E+02 0.  0.
         13    1    3    3    0    0  0.23763497925E+03  0.44842458826E+03  0.12418133263E+04  0.13415123302E+04  0.00000000000E+00 0. -1.
        -13    1    3    3    0    0  0.20218026565E+03  0.31089296511E+03  0.74057242138E+03  0.82823837564E+03  0.00000000000E+00 0.  1.
         22    1    1    2    0    0 -0.43981524490E+03 -0.75931755337E+03  0.63059721492E+03  0.10805801423E+04  0.00000000000E+00 0.  1.
<mgrwt>
<rscale>  0 0.19331246E+04</rscale>
<asrwt>0</asrwt>
<pdfrwt beam="1">  1        1 0.45102412E+00 0.19331246E+04</pdfrwt>
<pdfrwt beam="2">  1       -1 0.49026762E-01 0.19331246E+04</pdfrwt>
<totfact> 0.26107577E+00</totfact>
</mgrwt>
</event>
<event>
 6    1  0.1072514E-005  0.6898833E+03  0.7818608E-02  0.9734691E-01
          2   -1    0    0  501    0  0.00000000000E+00  0.00000000000E+00  0.52663754691E+03  0.52663754691E+03  0.00000000000E+00 0. -1.
         -2   -1    0    0    0  501 -0.00000000000E+00 -0.00000000000E+00 -0.22593291999E+03  0.22593291999E+03  0.00000000000E+00 0.  1.
         23    2    1    2    0    0  0.10457399201E+03 -0.28563321170E+03 -0.10067355406E+02  0.31771270115E+03  0.91202836552E+02 0.  0.
         13    1    3    3    0    0  0.50054411162E+02 -0.20692380533E+03  0.27900334055E+02  0.21471221188E+03  0.00000000000E+00 0. -1.
        -13    1    3    3    0    0  0.54519580849E+02 -0.78709406371E+02 -0.37967689461E+02  0.10300048927E+03  0.00000000000E+00 0.  1.
         22    1    1    2    0    0 -0.10457399201E+03  0.28563321170E+03  0.31077198232E+03  0.43485776575E+03  0.00000000000E+00 0.  1.
<mgrwt>
<rscale>  0 0.68988335E+03</rscale>
<asrwt>0</asrwt>
<pdfrwt beam="1">  1        2 0.81021161E-01 0.68988335E+03</pdfrwt>
<pdfrwt beam="2">  1       -2 0.34758911E-01 0.68988335E+03</pdfrwt>
<totfact> 0.45303259E+02</totfact>
</mgrwt>
</event>
<event>
 6    1  0.1072514E-005  0.7186469E+04  0.7818608E-02  0.7558505E-01
          1   -1    0    0  501    0  0.00000000000E+00  0.00000000000E+00  0.53010044693E+04  0.53010044693E+04  0.00000000000E+00 0. -1.
         -1   -1    0    0    0  501 -0.00000000000E+00 -0.00000000000E+00 -0.24356393810E+04  0.24356393810E+04  0.00000000000E+00 0.  1.
         23    2    1    2    0    0 -0.31980679767E+02 -0.23126916262E+04  0.43924852934E+04  0.49650628137E+04  0.91413178638E+02 0.  0.
         11    1    3    3    0    0 -0.32274265006E+02 -0.16405114531E+04  0.32012684278E+04  0.35972821690E+04  0.00000000000E+00 0. -1.
        -11    1    3    3    0    0  0.29358523944E+00 -0.67218017310E+03  0.11912168656E+04  0.13677806447E+04  0.00000000000E+00 0.  1.
         22    1    1    2    0    0  0.31980679767E+02  0.23126916262E+04 -0.15271202051E+04  0.27715810366E+04  0.00000000000E+00 0.  1.
<mgrwt>
<rscale>  0 0.71864693E+04</rscale>
<asrwt>0</asrwt>
<pdfrwt beam="1">  1        1 0.81553915E+00 0.71864693E+04</pdfrwt>
<pdfrwt beam="2">  1       -1 0.37471375E+00 0.71864693E+04</pdfrwt>
<totfact> 0.20586142E-05</totfact>
</mgrwt>
</event>
<event>
 6    1  0.1072514E-005  0.4142184E+04  0.7818608E-02  0.7976462E-01
          1   -1    0    0  501    0  0.00000000000E+00  0.00000000000E+00  0.37727596914E+04  0.37727596914E+04  0.00000000000E+00 0. -1.
         -1   -1    0    0    0  501 -0.00000000000E+00 -0.00000000000E+00 -0.11369453355E+04  0.11369453355E+04  0.00000000000E+00 0.  1.
         23    2    1    2    0    0 -0.74411600575E+03 -0.13204300100E+04 -0.35273091108E+03  0.15587877117E+04  0.90310537796E+02 0.  0.
         13    1    3    3    0    0 -0.48406174909E+03 -0.93955285646E+03 -0.23261630813E+03  0.10822133310E+04  0.00000000000E+00 0.  1.
        -13    1    3    3    0    0 -0.26005425667E+03 -0.38087715349E+03 -0.12011460295E+03  0.47657438066E+03  0.00000000000E+00 0. -1.
         22    1    1    2    0    0  0.74411600575E+03  0.13204300100E+04  0.29885452669E+04  0.33509173152E+04  0.00000000000E+00 0. -1.
<mgrwt>
<rscale>  0 0.41421837E+04</rscale>
<asrwt>0</asrwt>
<pdfrwt beam="1">  1        1 0.58042456E+00 0.41421837E+04</pdfrwt>
<pdfrwt beam="2">  1       -1 0.17491467E+00 0.41421837E+04</pdfrwt>
<totfact> 0.26256998E-02</totfact>
</mgrwt>
</event>
<event>
 6    1  0.1072514E-005  0.2943811E+04  0.7818608E-02  0.8259961E-01
         -1   -1    0    0    0  501 -0.00000000000E+00  0.00000000000E+00  0.16876458854E+04  0.16876458854E+04  0.00000000000E+00 0.  1.
          1   -1    0    0  501    0  0.00000000000E+00 -0.00000000000E+00 -0.12837440609E+04  0.12837440609E+04  0.00000000000E+00 0. -1.
         23    2    1    2    0    0 -0.36030350535E+03 -0.12395602047E+04 -0.50920837463E+03  0.13902200146E+04  0.84204530486E+02 0.  0.
         13    1    3    3    0    0 -0.29760783125E+03 -0.11141604080E+04 -0.44666153168E+03  0.12367014029E+04  0.00000000000E+00 0.  1.
        -13    1    3    3    0    0 -0.62695674105E+02 -0.12539979675E+03 -0.62546842951E+02  0.15351861171E+03  0.00000000000E+00 0. -1.
         22    1    1    2    0    0  0.36030350535E+03  0.12395602047E+04  0.91311019910E+03  0.15811699317E+04  0.00000000000E+00 0.  1.
<mgrwt>
<rscale>  0 0.29438107E+04</rscale>
<asrwt>0</asrwt>
<pdfrwt beam="1">  1        1 0.19749909E+00 0.29438107E+04</pdfrwt>
<pdfrwt beam="2">  1       -1 0.25963783E+00 0.29438107E+04</pdfrwt>
<totfact> 0.47933154E-01</totfact>
</mgrwt>
</event>
<event>
 6    1  0.1072514E-005  0.1095980E+04  0.7818608E-02  0.9209119E-01
         -2   -1    0    0    0  501 -0.00000000000E+00  0.00000000000E+00  0.64145242280E+02  0.64145242280E+02  0.00000000000E+00 0.  1.
          2   -1    0    0  501    0  0.00000000000E+00 -0.00000000000E+00 -0.46814561690E+04  0.46814561690E+04  0.00000000000E+00 0. -1.
         23    2    1    2    0    0 -0.41828880869E+03  0.16234102332E+03 -0.36570110735E+04  0.36856504957E+04  0.94707177890E+02 0.  0.
         11    1    3    3    0    0 -0.24920612287E+03  0.13827199143E+03 -0.24777054029E+04  0.24940422809E+04  0.00000000000E+00 0.  1.
        -11    1    3    3    0    0 -0.16908268581E+03  0.24069031887E+02 -0.11793056705E+04  0.11916082148E+04  0.00000000000E+00 0. -1.
         22    1    1    2    0    0  0.41828880869E+03 -0.16234102332E+03 -0.96029985329E+03  0.10599509156E+04  0.00000000000E+00 0.  1.
<mgrwt>
<rscale>  0 0.10959802E+04</rscale>
<asrwt>0</asrwt>
<pdfrwt beam="1">  1        2 0.72022407E+00 0.10959802E+04</pdfrwt>
<pdfrwt beam="2">  1       -2 0.98684982E-02 0.10959802E+04</pdfrwt>
<totfact> 0.60518457E+00</totfact>
</mgrwt>
</event>
<event>
 6    1  0.1072514E-005  0.1417221E+04  0.7818608E-02  0.8941446E-01
          2   -1    0    0  501    0  0.00000000000E+00  0.00000000000E+00  0.41829105369E+03  0.41829105369E+03  0.00000000000E+00 0. -1.
         -2   -1    0    0    0  501 -0.00000000000E+00 -0.00000000000E+00 -0.12004298448E+04  0.12004298448E+04  0.00000000000E+00 0.  1.
         23    2    1    2    0    0 -0.41991012341E+03 -0.44879189560E+03 -0.78886311793E+03  0.10040796260E+04  0.90178707283E+02 0.  0.
         13    1    3    3    0    0 -0.16809957741E+03 -0.23757700219E+03 -0.40525302651E+03  0.49892916871E+03  0.00000000000E+00 0. -1.
        -13    1    3    3    0    0 -0.25181054600E+03 -0.21121489342E+03 -0.38361009143E+03  0.50515045731E+03  0.00000000000E+00 0.  1.
         22    1    1    2    0    0  0.41991012341E+03  0.44879189560E+03  0.67243267793E+01  0.61464127251E+03  0.00000000000E+00 0. -1.
<mgrwt>
<rscale>  0 0.14172213E+04</rscale>
<asrwt>0</asrwt>
<pdfrwt beam="1">  1        2 0.64352472E-01 0.14172213E+04</pdfrwt>
<pdfrwt beam="2">  1       -2 0.18468151E+00 0.14172213E+04</pdfrwt>
<totfact> 0.12359612E+01</totfact>
</mgrwt>
</event>
<event>
 6    1  0.1072514E-005  0.2324387E+04  0.7818608E-02  0.8468367E-01
          2   -1    0    0  501    0  0.00000000000E+00  0.00000000000E+00  0.70146645417E+03  0.70146645417E+03  0.00000000000E+00 0. -1.
         -2   -1    0    0    0  501 -0.00000000000E+00 -0.00000000000E+00 -0.19255285078E+04  0.19255285078E+04  0.00000000000E+00 0.  1.
         23    2    1    2    0    0 -0.20423480818E+03 -0.10858024178E+04 -0.10141506678E+04  0.15023876806E+04  0.89377952609E+02 0.  0.
         13    1    3    3    0    0 -0.20287802488E+03 -0.94803731088E+03 -0.91005050671E+03  0.13297090511E+04  0.00000000000E+00 0. -1.
        -13    1    3    3    0    0 -0.13567833005E+01 -0.13776510694E+03 -0.10410016114E+03  0.17267862954E+03  0.00000000000E+00 0.  1.
         22    1    1    2    0    0  0.20423480818E+03  0.10858024178E+04 -0.20991138582E+03  0.11246072814E+04  0.00000000000E+00 0.  1.
<mgrwt>
<rscale>  0 0.23243869E+04</rscale>
<asrwt>0</asrwt>
<pdfrwt beam="1">  1        2 0.10791792E+00 0.23243869E+04</pdfrwt>
<pdfrwt beam="2">  1       -2 0.29623515E+00 0.23243869E+04</pdfrwt>
<totfact> 0.12396028E+00</totfact>
</mgrwt>
</event>
<event>
 6    1  0.1072514E-005  0.1420902E+04  0.7818608E-02  0.8938826E-01
         -2   -1    0    0    0  501 -0.00000000000E+00  0.00000000000E+00  0.29611438295E+03  0.29611438295E+03  0.00000000000E+00 0.  1.
          2   -1    0    0  501    0  0.00000000000E+00 -0.00000000000E+00 -0.17045461049E+04  0.17045461049E+04  0.00000000000E+00 0. -1.
         23    2    1    2    0    0  0.35156768486E+03  0.62251660819E+02 -0.15671849504E+04  0.16099205566E+04  0.91106660240E+02 0.  0.
         13    1    3    3    0    0  0.10718763157E+03  0.56767870871E+02 -0.43124720805E+03  0.44797983658E+03  0.00000000000E+00 0. -1.
        -13    1    3    3    0    0  0.24438005329E+03  0.54837899476E+01 -0.11359377423E+04  0.11619407200E+04  0.00000000000E+00 0.  1.
         22    1    1    2    0    0 -0.35156768486E+03 -0.62251660819E+02  0.15875322846E+03  0.39073993123E+03  0.00000000000E+00 0.  1.
<mgrwt>
<rscale>  0 0.14209020E+04</rscale>
<asrwt>0</asrwt>
<pdfrwt beam="1">  1        2 0.26223786E+00 0.14209020E+04</pdfrwt>
<pdfrwt beam="2">  1       -2 0.45556059E-01 0.14209020E+04</pdfrwt>
<totfact> 0.43290249E+01</totfact>
</mgrwt>
</event>
<event>
 6    1  0.1088445E-005  0.2035778E+04  0.7818608E-02  0.8590074E-01
          2   -1    0    0  501    0  0.00000000000E+00  0.00000000000E+00  0.12828243681E+04  0.12828243681E+04  0.00000000000E+00 0. -1.
         -2   -1    0    0    0  501 -0.00000000000E+00 -0.00000000000E+00 -0.80766931201E+03  0.80766931201E+03  0.00000000000E+00 0.  1.
         23    2    1    2    0    0 -0.14230626724E+03 -0.23009428004E+03  0.12436451851E+04  0.12757719301E+04  0.88012611574E+02 0.  0.
         13    1    3    3    0    0 -0.10521273269E+02 -0.87444016346E+02  0.46543651126E+03  0.47369642093E+03  0.00000000000E+00 0.  1.
        -13    1    3    3    0    0 -0.13178499397E+03 -0.14265026370E+03  0.77820867385E+03  0.80207550918E+03  0.00000000000E+00 0. -1.
         22    1    1    2    0    0  0.14230626724E+03  0.23009428004E+03 -0.76849012906E+03  0.81472174996E+03  0.00000000000E+00 0.  1.
<mgrwt>
<rscale>  0 0.20357779E+04</rscale>
<asrwt>0</asrwt>
<pdfrwt beam="1">  1        2 0.19735760E+00 0.20357779E+04</pdfrwt>
<pdfrwt beam="2">  1       -2 0.12425682E+00 0.20357779E+04</pdfrwt>
<totfact> 0.76294350E+00</totfact>
</mgrwt>
</event>
<event>
 6    1  0.1072514E-005  0.2331110E+04  0.7818608E-02  0.8465755E-01
         -1   -1    0    0    0  501 -0.00000000000E+00  0.00000000000E+00  0.24480707082E+04  0.24480707082E+04  0.00000000000E+00 0.  1.
          1   -1    0    0  501    0  0.00000000000E+00 -0.00000000000E+00 -0.55493446413E+03  0.55493446413E+03  0.00000000000E+00 0. -1.
         23    2    1    2    0    0 -0.90777905398E+03  0.66201889187E+03  0.55732534935E+03  0.12575188302E+04  0.91707356891E+02 0.  0.
         11    1    3    3    0    0 -0.27664527950E+03  0.15716123097E+03  0.18007705841E+03  0.36559541867E+03  0.00000000000E+00 0.  1.
        -11    1    3    3    0    0 -0.63113377448E+03  0.50485766090E+03  0.37724829094E+03  0.89192341155E+03  0.00000000000E+00 0. -1.
         22    1    1    2    0    0  0.90777905398E+03 -0.66201889187E+03  0.13358108947E+04  0.17454863421E+04  0.00000000000E+00 0.  1.
<mgrwt>
<rscale>  0 0.23311103E+04</rscale>
<asrwt>0</asrwt>
<pdfrwt beam="1">  1        1 0.85374534E-01 0.23311103E+04</pdfrwt>
<pdfrwt beam="2">  1       -1 0.37662626E+00 0.23311103E+04</pdfrwt>
<totfact> 0.35626137E-01</totfact>
</mgrwt>
</event>
<event>
 6    1  0.1072514E-005  0.1283780E+04  0.7818608E-02  0.9042528E-01
          1   -1    0    0  501    0  0.00000000000E+00  0.00000000000E+00  0.30920310294E+03  0.30920310294E+03  0.00000000000E+00 0. -1.
         -1   -1    0    0    0  501 -0.00000000000E+00 -0.00000000000E+00 -0.13325305070E+04  0.13325305070E+04  0.00000000000E+00 0.  1.
         23    2    1    2    0    0 -0.12071011701E+03  0.56164860240E+03 -0.87112581744E+03  0.10474395683E+04  0.90826067492E+02 0.  0.
         11    1    3    3    0    0 -0.90004843627E+02  0.39665551054E+03 -0.53822281639E+03  0.67462601936E+03  0.00000000000E+00 0. -1.
        -11    1    3    3    0    0 -0.30705273383E+02  0.16499309186E+03 -0.33290300105E+03  0.37281354896E+03  0.00000000000E+00 0.  1.
         22    1    1    2    0    0  0.12071011701E+03 -0.56164860240E+03 -0.15220158661E+03  0.59429404161E+03  0.00000000000E+00 0. -1.
<mgrwt>
<rscale>  0 0.12837797E+04</rscale>
<asrwt>0</asrwt>
<pdfrwt beam="1">  1        1 0.47569710E-01 0.12837797E+04</pdfrwt>
<pdfrwt beam="2">  1       -1 0.20500469E+00 0.12837797E+04</pdfrwt>
<totfact> 0.11529188E+01</totfact>
</mgrwt>
</event>
<event>
 6    1  0.1072514E-005  0.4973476E+03  0.7818608E-02  0.1014474E+00
         -3   -1    0    0    0  501 -0.00000000000E+00  0.00000000000E+00  0.14470965203E+04  0.14470965203E+04  0.00000000000E+00 0.  1.
          3   -1    0    0  501    0  0.00000000000E+00 -0.00000000000E+00 -0.42732923539E+02  0.42732923539E+02  0.00000000000E+00 0. -1.
         23    2    1    2    0    0  0.26978697013E+02 -0.63148015392E+02  0.14157176032E+04  0.14202274654E+04  0.89856550099E+02 0.  0.
         13    1    3    3    0    0  0.55410359336E+01 -0.44352186286E+02  0.13091248814E+04  0.13098876954E+04  0.00000000000E+00 0.  1.
        -13    1    3    3    0    0  0.21437661080E+02 -0.18795829106E+02  0.10659272180E+03  0.11033977001E+03  0.00000000000E+00 0. -1.
         22    1    1    2    0    0 -0.26978697013E+02  0.63148015392E+02 -0.11354006416E+02  0.69601978436E+02  0.00000000000E+00 0. -1.
<mgrwt>
<rscale>  0 0.49734762E+03</rscale>
<asrwt>0</asrwt>
<pdfrwt beam="1">  1        3 0.65742970E-02 0.49734762E+03</pdfrwt>
<pdfrwt beam="2">  1       -3 0.22263020E+00 0.49734762E+03</pdfrwt>
<totfact> 0.43905976E+01</totfact>
</mgrwt>
</event>
<event>
 6    1  0.1072514E-005  0.1893599E+04  0.7818608E-02  0.8658049E-01
          2   -1    0    0  501    0  0.00000000000E+00  0.00000000000E+00  0.13773077666E+04  0.13773077666E+04  0.00000000000E+00 0. -1.
         -2   -1    0    0    0  501 -0.00000000000E+00 -0.00000000000E+00 -0.65085597220E+03  0.65085597220E+03  0.00000000000E+00 0.  1.
         23    2    1    2    0    0  0.59034403099E+03 -0.26105145769E+03  0.11026439764E+04  0.12810529731E+04  0.92838799212E+02 0.  0.
         13    1    3    3    0    0  0.30151326424E+03 -0.13371810055E+03  0.65435163475E+03  0.73278021318E+03  0.00000000000E+00 0.  1.
        -13    1    3    3    0    0  0.28883076674E+03 -0.12733335714E+03  0.44829234170E+03  0.54827275993E+03  0.00000000000E+00 0. -1.
         22    1    1    2    0    0 -0.59034403099E+03  0.26105145769E+03 -0.37619218200E+03  0.74711076574E+03  0.00000000000E+00 0.  1.
<mgrwt>
<rscale>  0 0.18935987E+04</rscale>
<asrwt>0</asrwt>
<pdfrwt beam="1">  1        2 0.21189350E+00 0.18935987E+04</pdfrwt>
<pdfrwt beam="2">  1       -2 0.10013169E+00 0.18935987E+04</pdfrwt>
<totfact> 0.11507148E+01</totfact>
</mgrwt>
</event>
<event>
 6    1  0.1072514E-005  0.5016754E+03  0.7818608E-02  0.1013343E+00
          2   -1    0    0  501    0  0.00000000000E+00  0.00000000000E+00  0.62379537614E+03  0.62379537614E+03  0.00000000000E+00 0. -1.
         -2   -1    0    0    0  501 -0.00000000000E+00 -0.00000000000E+00 -0.10086568360E+03  0.10086568360E+03  0.00000000000E+00 0.  1.
         23    2    1    2    0    0  0.23208679315E+03 -0.70492139911E+02  0.30404790953E+03  0.39794611323E+03  0.84157925372E+02 0.  0.
         13    1    3    3    0    0  0.15552425856E+03 -0.79542920887E+02  0.17269121713E+03  0.24563616944E+03  0.00000000000E+00 0.  1.
        -13    1    3    3    0    0  0.76562534587E+02  0.90507809755E+01  0.13135669240E+03  0.15230994379E+03  0.00000000000E+00 0. -1.
         22    1    1    2    0    0 -0.23208679315E+03  0.70492139911E+02  0.21888178301E+03  0.32671494652E+03  0.00000000000E+00 0.  1.
<mgrwt>
<rscale>  0 0.50167538E+03</rscale>
<asrwt>0</asrwt>
<pdfrwt beam="1">  1        2 0.95968517E-01 0.50167538E+03</pdfrwt>
<pdfrwt beam="2">  1       -2 0.15517798E-01 0.50167538E+03</pdfrwt>
<totfact> 0.15646821E+03</totfact>
</mgrwt>
</event>
<event>
 6    1  0.1072514E-005  0.2911528E+04  0.7818608E-02  0.8269456E-01
         -1   -1    0    0    0  501 -0.00000000000E+00  0.00000000000E+00  0.83281111718E+03  0.83281111718E+03  0.00000000000E+00 0.  1.
          1   -1    0    0  501    0  0.00000000000E+00 -0.00000000000E+00 -0.25446939228E+04  0.25446939228E+04  0.00000000000E+00 0. -1.
         23    2    1    2    0    0  0.96112105846E+03  0.22917305768E+03 -0.20947290568E+04  0.23178611227E+04  0.91194207618E+02 0.  0.
         13    1    3    3    0    0  0.71523576426E+03  0.19641465136E+03 -0.14959115721E+04  0.16696982797E+04  0.00000000000E+00 0.  1.
        -13    1    3    3    0    0  0.24588529420E+03  0.32758406319E+02 -0.59881748467E+03  0.64816284300E+03  0.00000000000E+00 0. -1.
         22    1    1    2    0    0 -0.96112105846E+03 -0.22917305768E+03  0.38284625115E+03  0.10596439173E+04  0.00000000000E+00 0.  1.
<mgrwt>
<rscale>  0 0.29115284E+04</rscale>
<asrwt>0</asrwt>
<pdfrwt beam="1">  1        1 0.39149137E+00 0.29115284E+04</pdfrwt>
<pdfrwt beam="2">  1       -1 0.12812479E+00 0.29115284E+04</pdfrwt>
<totfact> 0.56867542E-01</totfact>
</mgrwt>
</event>
<event>
 6    1  0.1072514E-005  0.1005829E+04  0.7818608E-02  0.9302174E-01
         -2   -1    0    0    0  501 -0.00000000000E+00  0.00000000000E+00  0.74602405021E+03  0.74602405021E+03  0.00000000000E+00 0.  1.
          2   -1    0    0  501    0  0.00000000000E+00 -0.00000000000E+00 -0.33902816792E+03  0.33902816792E+03  0.00000000000E+00 0. -1.
         23    2    1    2    0    0  0.33578086979E+03 -0.13047710633E+03  0.57702683680E+03  0.68670112514E+03  0.93943584594E+02 0.  0.
         13    1    3    3    0    0  0.16420752965E+03 -0.29764004233E+02  0.20066402538E+03  0.26099053589E+03  0.00000000000E+00 0.  1.
        -13    1    3    3    0    0  0.17157334014E+03 -0.10071310209E+03  0.37636281142E+03  0.42571058925E+03  0.00000000000E+00 0. -1.
         22    1    1    2    0    0 -0.33578086979E+03  0.13047710633E+03 -0.17003095451E+03  0.39835109299E+03  0.00000000000E+00 0. -1.
<mgrwt>
<rscale>  0 0.10058293E+04</rscale>
<asrwt>0</asrwt>
<pdfrwt beam="1">  1        2 0.52158180E-01 0.10058293E+04</pdfrwt>
<pdfrwt beam="2">  1       -2 0.11477293E+00 0.10058293E+04</pdfrwt>
<totfact> 0.56619958E+01</totfact>
</mgrwt>
</event>
<event>
 6    1  0.1072514E-005  0.2878848E+04  0.7818608E-02  0.8279199E-01
          1   -1    0    0  501    0  0.00000000000E+00  0.00000000000E+00  0.77051778993E+03  0.77051778993E+03  0.00000000000E+00 0. -1.
         -1   -1    0    0    0  501 -0.00000000000E+00 -0.00000000000E+00 -0.26890252180E+04  0.26890252180E+04  0.00000000000E+00 0.  1.
         23    2    1    2    0    0  0.56079353633E+02 -0.57505459845E+03 -0.25426732630E+04  0.26090045463E+04  0.88795918199E+02 0.  0.
         13    1    3    3    0    0  0.73676811526E+01 -0.66109712870E+02 -0.44381297876E+03  0.44877024965E+03  0.00000000000E+00 0.  1.
        -13    1    3    3    0    0  0.48711672480E+02 -0.50894488558E+03 -0.20988602843E+04  0.21602342967E+04  0.00000000000E+00 0. -1.
         22    1    1    2    0    0 -0.56079353633E+02  0.57505459845E+03  0.62416583498E+03  0.85053846160E+03  0.00000000000E+00 0. -1.
<mgrwt>
<rscale>  0 0.28788482E+04</rscale>
<asrwt>0</asrwt>
<pdfrwt beam="1">  1        1 0.11854120E+00 0.28788482E+04</pdfrwt>
<pdfrwt beam="2">  1       -1 0.41369619E+00 0.28788482E+04</pdfrwt>
<totfact> 0.11623485E-01</totfact>
</mgrwt>
</event>
<event>
 6    1  0.1072514E-005  0.3116868E+04  0.7818608E-02  0.8211124E-01
         -1   -1    0    0    0  501 -0.00000000000E+00  0.00000000000E+00  0.99273512601E+03  0.99273512601E+03  0.00000000000E+00 0. -1.
          1   -1    0    0  501    0  0.00000000000E+00 -0.00000000000E+00 -0.24464903810E+04  0.24464903810E+04  0.00000000000E+00 0.  1.
         23    2    1    2    0    0 -0.10091627510E+04 -0.81679680544E+03  0.22105857286E+03  0.13201295117E+04  0.91151278566E+02 0.  0.
         13    1    3    3    0    0 -0.27073671543E+03 -0.21766172756E+03  0.10034119006E+03  0.36158450070E+03  0.00000000000E+00 0. -1.
        -13    1    3    3    0    0 -0.73842603559E+03 -0.59913507788E+03  0.12071738281E+03  0.95854501099E+03  0.00000000000E+00 0.  1.
         22    1    1    2    0    0  0.10091627510E+04  0.81679680544E+03 -0.16748138279E+04  0.21190959953E+04  0.00000000000E+00 0.  1.
<mgrwt>
<rscale>  0 0.31168683E+04</rscale>
<asrwt>0</asrwt>
<pdfrwt beam="1">  1        1 0.37638313E+00 0.31168683E+04</pdfrwt>
<pdfrwt beam="2">  1       -1 0.15272848E+00 0.31168683E+04</pdfrwt>
<totfact> 0.41295930E-01</totfact>
</mgrwt>
</event>
<event>
 6    1  0.1072514E-005  0.4125694E+04  0.7818608E-02  0.7979659E-01
         -1   -1    0    0    0  501 -0.00000000000E+00  0.00000000000E+00  0.12491061711E+04  0.12491061711E+04  0.00000000000E+00 0.  1.
          1   -1    0    0  501    0  0.00000000000E+00 -0.00000000000E+00 -0.34067057513E+04  0.34067057513E+04  0.00000000000E+00 0. -1.
         23    2    1    2    0    0  0.14011351266E+03  0.11184428857E+04 -0.30276244844E+04  0.32319124811E+04  0.90564796118E+02 0.  0.
         11    1    3    3    0    0  0.65158117895E+01  0.37278224065E+03 -0.10416103384E+04  0.11063277778E+04  0.00000000000E+00 0. -1.
        -11    1    3    3    0    0  0.13359770087E+03  0.74566064501E+03 -0.19860141459E+04  0.21255847033E+04  0.00000000000E+00 0.  1.
         22    1    1    2    0    0 -0.14011351266E+03 -0.11184428857E+04  0.87002490416E+03  0.14238994412E+04  0.00000000000E+00 0.  1.
<mgrwt>
<rscale>  0 0.41256937E+04</rscale>
<asrwt>0</asrwt>
<pdfrwt beam="1">  1        1 0.52410858E+00 0.41256937E+04</pdfrwt>
<pdfrwt beam="2">  1       -1 0.19217018E+00 0.41256937E+04</pdfrwt>
<totfact> 0.39023761E-02</totfact>
</mgrwt>
</event>
<event>
 6    1  0.1072514E-005  0.2155709E+04  0.7818608E-02  0.8537093E-01
          2   -1    0    0  501    0  0.00000000000E+00  0.00000000000E+00  0.28316014078E+04  0.28316014078E+04  0.00000000000E+00 0. -1.
         -2   -1    0    0    0  501 -0.00000000000E+00 -0.00000000000E+00 -0.41028724295E+03  0.41028724295E+03  0.00000000000E+00 0.  1.
         23    2    1    2    0    0 -0.75420425820E+03  0.37401668896E+03  0.22204876710E+04  0.23764154696E+04  0.89846759175E+02 0.  0.
         13    1    3    3    0    0 -0.61498568270E+03  0.34232852891E+03  0.18420596470E+04  0.19719482637E+04  0.00000000000E+00 0. -1.
        -13    1    3    3    0    0 -0.13921857549E+03  0.31688160046E+02  0.37842802402E+03  0.40446720586E+03  0.00000000000E+00 0.  1.
         22    1    1    2    0    0  0.75420425820E+03 -0.37401668896E+03  0.20082649380E+03  0.86547318116E+03  0.00000000000E+00 0.  1.
<mgrwt>
<rscale>  0 0.21557086E+04</rscale>
<asrwt>0</asrwt>
<pdfrwt beam="1">  1        2 0.43563097E+00 0.21557086E+04</pdfrwt>
<pdfrwt beam="2">  1       -2 0.63121116E-01 0.21557086E+04</pdfrwt>
<totfact> 0.47232085E+00</totfact>
</mgrwt>
</event>
<event>
 6    1  0.1072514E-005  0.2258636E+04  0.7818608E-02  0.8494411E-01
         -1   -1    0    0    0  501 -0.00000000000E+00  0.00000000000E+00  0.59638906877E+03  0.59638906877E+03  0.00000000000E+00 0.  1.
          1   -1    0    0  501    0  0.00000000000E+00 -0.00000000000E+00 -0.21384682121E+04  0.21384682121E+04  0.00000000000E+00 0. -1.
         23    2    1    2    0    0  0.10539364927E+04  0.70627091385E+02 -0.29523957421E+03  0.11007277794E+04  0.93085559720E+02 0.  0.
         11    1    3    3    0    0  0.85230664154E+03  0.25895389128E+02 -0.21705372025E+03  0.87989175463E+03  0.00000000000E+00 0. -1.
        -11    1    3    3    0    0  0.20162985113E+03  0.44731702257E+02 -0.78185853963E+02  0.22083602472E+03  0.00000000000E+00 0.  1.
         22    1    1    2    0    0 -0.10539364927E+04 -0.70627091385E+02 -0.12468395691E+04  0.16341295015E+04  0.00000000000E+00 0. -1.
<mgrwt>
<rscale>  0 0.22586359E+04</rscale>
<asrwt>0</asrwt>
<pdfrwt beam="1">  1        1 0.32899511E+00 0.22586359E+04</pdfrwt>
<pdfrwt beam="2">  1       -1 0.91752163E-01 0.22586359E+04</pdfrwt>
<totfact> 0.25185896E+00</totfact>
</mgrwt>
</event>
<event>
 6    1  0.1072514E-005  0.1994663E+04  0.7818608E-02  0.8609120E-01
         -1   -1    0    0    0  501 -0.00000000000E+00  0.00000000000E+00  0.12029042098E+04  0.12029042098E+04  0.00000000000E+00 0.  1.
          1   -1    0    0  501    0  0.00000000000E+00 -0.00000000000E+00 -0.82689081345E+03  0.82689081345E+03  0.00000000000E+00 0. -1.
         23    2    1    2    0    0 -0.55549063676E+02 -0.63485838431E+03  0.96634095398E+03  0.11611077999E+04  0.90695187733E+02 0.  0.
         11    1    3    3    0    0 -0.69286041065E+02 -0.55001125334E+03  0.87375153031E+03  0.10347727630E+04  0.00000000000E+00 0.  1.
        -11    1    3    3    0    0  0.13736977389E+02 -0.84847130962E+02  0.92589423667E+02  0.12633503693E+03  0.00000000000E+00 0. -1.
         22    1    1    2    0    0  0.55549063676E+02  0.63485838431E+03 -0.59032755766E+03  0.86868722331E+03  0.00000000000E+00 0. -1.
<mgrwt>
<rscale>  0 0.19946633E+04</rscale>
<asrwt>0</asrwt>
<pdfrwt beam="1">  1        1 0.12721397E+00 0.19946633E+04</pdfrwt>
<pdfrwt beam="2">  1       -1 0.18506219E+00 0.19946633E+04</pdfrwt>
<totfact> 0.37237292E+00</totfact>
</mgrwt>
</event>
<event>
 6    1  0.1072514E-005  0.5645502E+04  0.7818608E-02  0.7735979E-01
         -1   -1    0    0    0  501 -0.00000000000E+00  0.00000000000E+00  0.29673533172E+04  0.29673533172E+04  0.00000000000E+00 0.  1.
          1   -1    0    0  501    0  0.00000000000E+00 -0.00000000000E+00 -0.26851951664E+04  0.26851951664E+04  0.00000000000E+00 0. -1.
         23    2    1    2    0    0  0.42196823550E+03  0.16360493607E+04 -0.21220606562E+04  0.27140143636E+04  0.89542361008E+02 0.  0.
         11    1    3    3    0    0  0.16990438676E+03  0.83454024517E+03 -0.10541417213E+04  0.13551899092E+04  0.00000000000E+00 0. -1.
        -11    1    3    3    0    0  0.25206384875E+03  0.80150911555E+03 -0.10679189349E+04  0.13588244543E+04  0.00000000000E+00 0.  1.
         22    1    1    2    0    0 -0.42196823550E+03 -0.16360493607E+04  0.24042188070E+04  0.29385341200E+04  0.00000000000E+00 0.  1.
<mgrwt>
<rscale>  0 0.56455018E+04</rscale>
<asrwt>0</asrwt>
<pdfrwt beam="1">  1        1 0.41310695E+00 0.56455018E+04</pdfrwt>
<pdfrwt beam="2">  1       -1 0.45651589E+00 0.56455018E+04</pdfrwt>
<totfact> 0.20217904E-03</totfact>
</mgrwt>
</event>
<event>
 6    1  0.1072514E-005  0.3317190E+04  0.7818608E-02  0.8158535E-01
          2   -1    0    0  501    0  0.00000000000E+00  0.00000000000E+00  0.14094855217E+04  0.14094855217E+04  0.00000000000E+00 0. -1.
         -2   -1    0    0    0  501 -0.00000000000E+00 -0.00000000000E+00 -0.19517320743E+04  0.19517320743E+04  0.00000000000E+00 0.  1.
         23    2    1    2    0    0  0.13992602665E+04  0.27546384607E+02  0.62847115530E+03  0.15365894015E+04  0.86272237708E+02 0.  0.
         11    1    3    3    0    0  0.11895679491E+04  0.15224677623E+02  0.56598740893E+03  0.13174389714E+04  0.00000000000E+00 0. -1.
        -11    1    3    3    0    0  0.20969231737E+03  0.12321706985E+02  0.62483746366E+02  0.21915043004E+03  0.00000000000E+00 0.  1.
         22    1    1    2    0    0 -0.13992602665E+04 -0.27546384607E+02 -0.11707177079E+04  0.18246281945E+04  0.00000000000E+00 0. -1.
<mgrwt>
<rscale>  0 0.33171904E+04</rscale>
<asrwt>0</asrwt>
<pdfrwt beam="1">  1        2 0.21684393E+00 0.33171904E+04</pdfrwt>
<pdfrwt beam="2">  1       -2 0.30026647E+00 0.33171904E+04</pdfrwt>
<totfact> 0.37736863E-01</totfact>
</mgrwt>
</event>
<event>
 6    1  0.1072514E-005  0.3680179E+04  0.7818608E-02  0.8072369E-01
          2   -1    0    0  501    0  0.00000000000E+00  0.00000000000E+00  0.20663418044E+04  0.20663418044E+04  0.00000000000E+00 0. -1.
         -2   -1    0    0    0  501 -0.00000000000E+00 -0.00000000000E+00 -0.16386106264E+04  0.16386106264E+04  0.00000000000E+00 0.  1.
         23    2    1    2    0    0 -0.36024765873E+03 -0.15870070424E+04 -0.64826949902E+03  0.17540174794E+04  0.89186582013E+02 0.  0.
         11    1    3    3    0    0 -0.18752807365E+03 -0.88826152680E+03 -0.40679976797E+03  0.99481725439E+03  0.00000000000E+00 0. -1.
        -11    1    3    3    0    0 -0.17271958509E+03 -0.69874551556E+03 -0.24146973105E+03  0.75920022497E+03  0.00000000000E+00 0.  1.
         22    1    1    2    0    0  0.36024765873E+03  0.15870070424E+04  0.10760006770E+04  0.19509349515E+04  0.00000000000E+00 0. -1.
<mgrwt>
<rscale>  0 0.36801791E+04</rscale>
<asrwt>0</asrwt>
<pdfrwt beam="1">  1        2 0.31789874E+00 0.36801791E+04</pdfrwt>
<pdfrwt beam="2">  1       -2 0.25209394E+00 0.36801791E+04</pdfrwt>
<totfact> 0.30996183E-01</totfact>
</mgrwt>
</event>
<event>
 6    1  0.1072514E-005  0.2940065E+04  0.7818608E-02  0.8261056E-01
          1   -1    0    0  501    0  0.00000000000E+00  0.00000000000E+00  0.28340117967E+04  0.28340117967E+04  0.00000000000E+00 0. -1.
         -1   -1    0    0    0  501 -0.00000000000E+00 -0.00000000000E+00 -0.76252181553E+03  0.76252181553E+03  0.00000000000E+00 0.  1.
         23    2    1    2    0    0 -0.12816530185E+04  0.15194065190E+03  0.17952863602E+03  0.13062851207E+04  0.91814290467E+02 0.  0.
         13    1    3    3    0    0 -0.10296124462E+04  0.85037734459E+02  0.14232865857E+03  0.10428761445E+04  0.00000000000E+00 0.  1.
        -13    1    3    3    0    0 -0.25204057229E+03  0.66902917442E+02  0.37199977450E+02  0.26340897624E+03  0.00000000000E+00 0. -1.
         22    1    1    2    0    0  0.12816530185E+04 -0.15194065190E+03  0.18919613452E+04  0.22902484916E+04  0.00000000000E+00 0. -1.
<mgrwt>
<rscale>  0 0.29400652E+04</rscale>
<asrwt>0</asrwt>
<pdfrwt beam="1">  1        1 0.43600181E+00 0.29400652E+04</pdfrwt>
<pdfrwt beam="2">  1       -1 0.11731105E+00 0.29400652E+04</pdfrwt>
<totfact> 0.44074663E-01</totfact>
</mgrwt>
</event>
<event>
 6    1  0.1072514E-005  0.3632257E+04  0.7818608E-02  0.8083143E-01
         -2   -1    0    0    0  501 -0.00000000000E+00  0.00000000000E+00  0.14640976592E+04  0.14640976592E+04  0.00000000000E+00 0.  1.
          2   -1    0    0  501    0  0.00000000000E+00 -0.00000000000E+00 -0.22528024989E+04  0.22528024989E+04  0.00000000000E+00 0. -1.
         23    2    1    2    0    0  0.18016665113E+04 -0.13238921598E+03 -0.21553816029E+03  0.18216299492E+04  0.91377518577E+02 0.  0.
         11    1    3    3    0    0  0.15573806589E+03 -0.35750690118E+02 -0.99424709798E+01  0.16009781304E+03  0.00000000000E+00 0. -1.
        -11    1    3    3    0    0  0.16459284454E+04 -0.96638525860E+02 -0.20559568931E+03  0.16615321361E+04  0.00000000000E+00 0.  1.
         22    1    1    2    0    0 -0.18016665113E+04  0.13238921598E+03 -0.57316667944E+03  0.18952702089E+04  0.00000000000E+00 0. -1.
<mgrwt>
<rscale>  0 0.36322571E+04</rscale>
<asrwt>0</asrwt>
<pdfrwt beam="1">  1        2 0.34658500E+00 0.36322571E+04</pdfrwt>
<pdfrwt beam="2">  1       -2 0.22524580E+00 0.36322571E+04</pdfrwt>
<totfact> 0.35893580E-01</totfact>
</mgrwt>
</event>
<event>
 6    1  0.1072514E-005  0.2579123E+04  0.7818608E-02  0.8375327E-01
         -2   -1    0    0    0  501 -0.00000000000E+00  0.00000000000E+00  0.71400856181E+03  0.71400856181E+03  0.00000000000E+00 0.  1.
          2   -1    0    0  501    0  0.00000000000E+00 -0.00000000000E+00 -0.23290601728E+04  0.23290601728E+04  0.00000000000E+00 0. -1.
         23    2    1    2    0    0 -0.93330095297E+03  0.69568815800E+02 -0.18524821965E+04  0.20775306608E+04  0.92481723828E+02 0.  0.
         13    1    3    3    0    0 -0.32006862248E+03 -0.14090094416E+02 -0.58372481654E+03  0.66586568864E+03  0.00000000000E+00 0. -1.
        -13    1    3    3    0    0 -0.61323233050E+03  0.83658910216E+02 -0.12687573800E+04  0.14116649722E+04  0.00000000000E+00 0.  1.
         22    1    1    2    0    0  0.93330095297E+03 -0.69568815800E+02  0.23743058556E+03  0.96553807378E+03  0.00000000000E+00 0.  1.
<mgrwt>
<rscale>  0 0.25791230E+04</rscale>
<asrwt>0</asrwt>
<pdfrwt beam="1">  1        2 0.35831695E+00 0.25791230E+04</pdfrwt>
<pdfrwt beam="2">  1       -2 0.10984747E+00 0.25791230E+04</pdfrwt>
<totfact> 0.25489607E+00</totfact>
</mgrwt>
</event>
<event>
 6    1  0.1072514E-005  0.8544502E+03  0.7818608E-02  0.9484383E-01
         -2   -1    0    0    0  501 -0.00000000000E+00  0.00000000000E+00  0.65206742005E+02  0.65206742005E+02  0.00000000000E+00 0.  1.
          2   -1    0    0  501    0  0.00000000000E+00 -0.00000000000E+00 -0.27991167611E+04  0.27991167611E+04  0.00000000000E+00 0. -1.
         23    2    1    2    0    0  0.33373058415E+03  0.17216997205E+03 -0.71667672037E+03  0.81243442629E+03  0.73522604852E+02 0.  0.
         11    1    3    3    0    0  0.93298772782E+02  0.41138386414E+02 -0.13183145742E+03  0.16666301631E+03  0.00000000000E+00 0. -1.
        -11    1    3    3    0    0  0.24043181137E+03  0.13103158564E+03 -0.58484526295E+03  0.64577140998E+03  0.00000000000E+00 0.  1.
         22    1    1    2    0    0 -0.33373058415E+03 -0.17216997205E+03 -0.20172332987E+04  0.20518890768E+04  0.00000000000E+00 0. -1.
<mgrwt>
<rscale>  0 0.85445020E+03</rscale>
<asrwt>0</asrwt>
<pdfrwt beam="1">  1        2 0.43063322E+00 0.85445020E+03</pdfrwt>
<pdfrwt beam="2">  1       -2 0.10031809E-01 0.85445020E+03</pdfrwt>
<totfact> 0.16384270E+02</totfact>
</mgrwt>
</event>
<event>
 6    1  0.1072514E-005  0.1655891E+04  0.7818608E-02  0.8786929E-01
         -2   -1    0    0    0  501 -0.00000000000E+00  0.00000000000E+00  0.40098951857E+03  0.40098951857E+03  0.00000000000E+00 0.  1.
          2   -1    0    0  501    0  0.00000000000E+00 -0.00000000000E+00 -0.17095049337E+04  0.17095049337E+04  0.00000000000E+00 0. -1.
         23    2    1    2    0    0  0.70981890331E+03  0.12626691471E+03 -0.14403103277E+03  0.74089228887E+03  0.91598231729E+02 0.  0.
         11    1    3    3    0    0  0.99293541754E+02  0.21618929476E+02  0.11407691628E+02  0.10225810958E+03  0.00000000000E+00 0.  1.
        -11    1    3    3    0    0  0.61052536156E+03  0.10464798524E+03 -0.15543872440E+03  0.63863417929E+03  0.00000000000E+00 0. -1.
         22    1    1    2    0    0 -0.70981890331E+03 -0.12626691471E+03 -0.11644843824E+04  0.13696021634E+04  0.00000000000E+00 0. -1.
<mgrwt>
<rscale>  0 0.16558908E+04</rscale>
<asrwt>0</asrwt>
<pdfrwt beam="1">  1        2 0.26300075E+00 0.16558908E+04</pdfrwt>
<pdfrwt beam="2">  1       -2 0.61690697E-01 0.16558908E+04</pdfrwt>
<totfact> 0.22582990E+01</totfact>
</mgrwt>
</event>
<event>
 6    1  0.1072514E-005  0.1415996E+04  0.7818608E-02  0.8942321E-01
          2   -1    0    0  501    0  0.00000000000E+00  0.00000000000E+00  0.73706414096E+03  0.73706414096E+03  0.00000000000E+00 0. -1.
         -2   -1    0    0    0  501 -0.00000000000E+00 -0.00000000000E+00 -0.68007778667E+03  0.68007778667E+03  0.00000000000E+00 0.  1.
         23    2    1    2    0    0  0.17008804402E+02 -0.29833774289E+03 -0.61046314921E+03  0.68585296424E+03  0.91838574471E+02 0.  0.
         13    1    3    3    0    0  0.43102899995E+02 -0.13645444229E+03 -0.34936256834E+03  0.37753394413E+03  0.00000000000E+00 0. -1.
        -13    1    3    3    0    0 -0.26094095593E+02 -0.16188330060E+03 -0.26110058086E+03  0.30831902011E+03  0.00000000000E+00 0.  1.
         22    1    1    2    0    0 -0.17008804402E+02  0.29833774289E+03  0.66744950350E+03  0.73128896339E+03  0.00000000000E+00 0. -1.
<mgrwt>
<rscale>  0 0.14159957E+04</rscale>
<asrwt>0</asrwt>
<pdfrwt beam="1">  1        2 0.11339448E+00 0.14159957E+04</pdfrwt>
<pdfrwt beam="2">  1       -2 0.10462735E+00 0.14159957E+04</pdfrwt>
<totfact> 0.27649282E+01</totfact>
</mgrwt>
</event>
<event>
 6    1  0.1072514E-005  0.4796412E+03  0.7818608E-02  0.1019234E+00
          2   -1    0    0  501    0  0.00000000000E+00  0.00000000000E+00  0.12812283882E+04  0.12812283882E+04  0.00000000000E+00 0. -1.
         -2   -1    0    0    0  501 -0.00000000000E+00 -0.00000000000E+00 -0.44889672469E+02  0.44889672469E+02  0.00000000000E+00 0.  1.
         23    2    1    2    0    0  0.51516797487E+02  0.22398896096E+03  0.58370262398E+03  0.63419400175E+03  0.93103402506E+02 0.  0.
         11    1    3    3    0    0 -0.85590056365E+01  0.12543246516E+03  0.22978910302E+03  0.26193432719E+03  0.00000000000E+00 0.  1.
        -11    1    3    3    0    0  0.60075803124E+02  0.98556495802E+02  0.35391352096E+03  0.37225967456E+03  0.00000000000E+00 0. -1.
         22    1    1    2    0    0 -0.51516797487E+02 -0.22398896096E+03  0.65263609173E+03  0.69192405890E+03  0.00000000000E+00 0.  1.
<mgrwt>
<rscale>  0 0.47964121E+03</rscale>
<asrwt>0</asrwt>
<pdfrwt beam="1">  1        2 0.19711203E+00 0.47964121E+03</pdfrwt>
<pdfrwt beam="2">  1       -2 0.69061044E-02 0.47964121E+03</pdfrwt>
<totfact> 0.21347473E+03</totfact>
</mgrwt>
</event>
<event>
 6    1  0.1072514E-005  0.9146000E+03  0.7818608E-02  0.9407513E-01
          1   -1    0    0  501    0  0.00000000000E+00  0.00000000000E+00  0.51206979843E+03  0.51206979843E+03  0.00000000000E+00 0. -1.
         -1   -1    0    0    0  501 -0.00000000000E+00 -0.00000000000E+00 -0.40838821836E+03  0.40838821836E+03  0.00000000000E+00 0.  1.
         23    2    1    2    0    0  0.17903795549E+02 -0.13666907110E+03 -0.38179269076E+03  0.41579550727E+03  0.90118057336E+02 0.  0.
         11    1    3    3    0    0 -0.30881841120E+02 -0.24785199630E+02 -0.13141177726E+03  0.13724813090E+03  0.00000000000E+00 0. -1.
        -11    1    3    3    0    0  0.48785636668E+02 -0.11188387147E+03 -0.25038091350E+03  0.27854737637E+03  0.00000000000E+00 0.  1.
         22    1    1    2    0    0 -0.17903795549E+02  0.13666907110E+03  0.48547427082E+03  0.50466250952E+03  0.00000000000E+00 0. -1.
<mgrwt>
<rscale>  0 0.91459996E+03</rscale>
<asrwt>0</asrwt>
<pdfrwt beam="1">  1        1 0.78779969E-01 0.91459996E+03</pdfrwt>
<pdfrwt beam="2">  1       -1 0.62828956E-01 0.91459996E+03</pdfrwt>
<totfact> 0.11099984E+02</totfact>
</mgrwt>
</event>
<event>
 6    1  0.1072514E-005  0.2179853E+04  0.7818608E-02  0.8526861E-01
          2   -1    0    0  501    0  0.00000000000E+00  0.00000000000E+00  0.26768022328E+04  0.26768022328E+04  0.00000000000E+00 0. -1.
         -2   -1    0    0    0  501 -0.00000000000E+00 -0.00000000000E+00 -0.44379071486E+03  0.44379071486E+03  0.00000000000E+00 0.  1.
         23    2    1    2    0    0  0.69899235037E+02  0.10842416912E+04  0.10159256641E+04  0.14891016287E+04  0.69661737273E+02 0.  0.
         13    1    3    3    0    0 -0.72043961860E+01  0.17898245438E+03  0.19235101025E+03  0.26284127044E+03  0.00000000000E+00 0. -1.
        -13    1    3    3    0    0  0.77103631223E+02  0.90525923686E+03  0.82357465383E+03  0.12262603583E+04  0.00000000000E+00 0.  1.
         22    1    1    2    0    0 -0.69899235037E+02 -0.10842416912E+04  0.12170858538E+04  0.16314913189E+04  0.00000000000E+00 0. -1.
<mgrwt>
<rscale>  0 0.21798532E+04</rscale>
<asrwt>0</asrwt>
<pdfrwt beam="1">  1        2 0.41181572E+00 0.21798532E+04</pdfrwt>
<pdfrwt beam="2">  1       -2 0.68275496E-01 0.21798532E+04</pdfrwt>
<totfact> 0.49285079E+00</totfact>
</mgrwt>
</event>
<event>
 6    1  0.1072514E-005  0.3298961E+04  0.7818608E-02  0.8163160E-01
          2   -1    0    0  501    0  0.00000000000E+00  0.00000000000E+00  0.14191987987E+04  0.14191987987E+04  0.00000000000E+00 0. -1.
         -2   -1    0    0    0  501 -0.00000000000E+00 -0.00000000000E+00 -0.19171282407E+04  0.19171282407E+04  0.00000000000E+00 0.  1.
         23    2    1    2    0    0 -0.12908981778E+04  0.96185188402E+03 -0.60674033120E+03  0.17228162827E+04  0.91569439307E+02 0.  0.
         13    1    3    3    0    0 -0.71354772181E+03  0.53902008799E+03 -0.38513261192E+03  0.97366325561E+03  0.00000000000E+00 0.  1.
        -13    1    3    3    0    0 -0.57735045601E+03  0.42283179603E+03 -0.22160771928E+03  0.74915302711E+03  0.00000000000E+00 0. -1.
         22    1    1    2    0    0  0.12908981778E+04 -0.96185188402E+03  0.10881088913E+03  0.16135107567E+04  0.00000000000E+00 0.  1.
<mgrwt>
<rscale>  0 0.32989611E+04</rscale>
<asrwt>0</asrwt>
<pdfrwt beam="1">  1        2 0.21833828E+00 0.32989611E+04</pdfrwt>
<pdfrwt beam="2">  1       -2 0.29494281E+00 0.32989611E+04</pdfrwt>
<totfact> 0.40219798E-01</totfact>
</mgrwt>
</event>
<event>
 6    1  0.1072514E-005  0.1887666E+04  0.7818608E-02  0.8661020E-01
         -1   -1    0    0    0  501 -0.00000000000E+00  0.00000000000E+00  0.61351956723E+03  0.61351956723E+03  0.00000000000E+00 0.  1.
          1   -1    0    0  501    0  0.00000000000E+00 -0.00000000000E+00 -0.14519838033E+04  0.14519838033E+04  0.00000000000E+00 0. -1.
         23    2    1    2    0    0 -0.51830672701E+03 -0.36461326332E+03 -0.11820792331E+04  0.13446317029E+04  0.95595021610E+02 0.  0.
         11    1    3    3    0    0 -0.14987491233E+02 -0.25187704565E+02 -0.96325824109E+02  0.10068619441E+03  0.00000000000E+00 0. -1.
        -11    1    3    3    0    0 -0.50331923578E+03 -0.33942555875E+03 -0.10857534090E+04  0.12439455085E+04  0.00000000000E+00 0.  1.
         22    1    1    2    0    0  0.51830672701E+03  0.36461326332E+03  0.34361499699E+03  0.72087166764E+03  0.00000000000E+00 0.  1.
<mgrwt>
<rscale>  0 0.18876657E+04</rscale>
<asrwt>0</asrwt>
<pdfrwt beam="1">  1        1 0.22338212E+00 0.18876657E+04</pdfrwt>
<pdfrwt beam="2">  1       -1 0.94387625E-01 0.18876657E+04</pdfrwt>
<totfact> 0.71887206E+00</totfact>
</mgrwt>
</event>
<event>
 6    1  0.1072514E-005  0.3786951E+04  0.7818608E-02  0.8048961E-01
          1   -1    0    0  501    0  0.00000000000E+00  0.00000000000E+00  0.17206094300E+04  0.17206094300E+04  0.00000000000E+00 0. -1.
         -1   -1    0    0    0  501 -0.00000000000E+00 -0.00000000000E+00 -0.20837095606E+04  0.20837095606E+04  0.00000000000E+00 0.  1.
         23    2    1    2    0    0  0.15377516938E+04  0.88047248593E+03 -0.84874764279E+03  0.19669933318E+04  0.93691705965E+02 0.  0.
         11    1    3    3    0    0  0.75481527145E+03  0.40687535048E+03 -0.36479165824E+03  0.93186189898E+03  0.00000000000E+00 0.  1.
        -11    1    3    3    0    0  0.78293642240E+03  0.47359713544E+03 -0.48395598455E+03  0.10351314328E+04  0.00000000000E+00 0. -1.
         22    1    1    2    0    0 -0.15377516938E+04 -0.88047248593E+03  0.48564751222E+03  0.18373256588E+04  0.00000000000E+00 0. -1.
<mgrwt>
<rscale>  0 0.37869514E+04</rscale>
<asrwt>0</asrwt>
<pdfrwt beam="1">  1        1 0.26470914E+00 0.37869514E+04</pdfrwt>
<pdfrwt beam="2">  1       -1 0.32057070E+00 0.37869514E+04</pdfrwt>
<totfact> 0.89168553E-02</totfact>
</mgrwt>
</event>
<event>
 6    1  0.1072514E-005  0.2701592E+04  0.7818608E-02  0.8334489E-01
          1   -1    0    0  501    0  0.00000000000E+00  0.00000000000E+00  0.74308588780E+03  0.74308588780E+03  0.00000000000E+00 0. -1.
         -1   -1    0    0    0  501 -0.00000000000E+00 -0.00000000000E+00 -0.24555023811E+04  0.24555023811E+04  0.00000000000E+00 0.  1.
         23    2    1    2    0    0  0.37682942168E+03 -0.12664533983E+04 -0.53418543032E+03  0.14282399808E+04  0.92794103630E+02 0.  0.
         13    1    3    3    0    0  0.97756224215E+02 -0.45399241423E+03 -0.21571743790E+03  0.51205410316E+03  0.00000000000E+00 0. -1.
        -13    1    3    3    0    0  0.27907319747E+03 -0.81246098411E+03 -0.31846799242E+03  0.91618587767E+03  0.00000000000E+00 0.  1.
         22    1    1    2    0    0 -0.37682942168E+03  0.12664533983E+04 -0.11782310629E+04  0.17703482880E+04  0.00000000000E+00 0.  1.
<mgrwt>
<rscale>  0 0.27015915E+04</rscale>
<asrwt>0</asrwt>
<pdfrwt beam="1">  1        1 0.11432090E+00 0.27015915E+04</pdfrwt>
<pdfrwt beam="2">  1       -1 0.37776960E+00 0.27015915E+04</pdfrwt>
<totfact> 0.21971813E-01</totfact>
</mgrwt>
</event>
<event>
 6    1  0.1072514E-005  0.5558674E+04  0.7818608E-02  0.7747667E-01
          3   -1    0    0  501    0  0.00000000000E+00  0.00000000000E+00  0.27283493231E+04  0.27283493231E+04  0.00000000000E+00 0. -1.
         -3   -1    0    0    0  501 -0.00000000000E+00 -0.00000000000E+00 -0.28312779890E+04  0.28312779890E+04  0.00000000000E+00 0.  1.
         23    2    1    2    0    0 -0.24069389087E+04  0.45587614475E+03 -0.13627827349E+04  0.28049203867E+04  0.96039698794E+02 0.  0.
         11    1    3    3    0    0 -0.16295688095E+04  0.27520300553E+03 -0.88362635643E+03  0.18740402175E+04  0.00000000000E+00 0. -1.
        -11    1    3    3    0    0 -0.77737009924E+03  0.18067313923E+03 -0.47915637849E+03  0.93088016924E+03  0.00000000000E+00 0.  1.
         22    1    1    2    0    0  0.24069389087E+04 -0.45587614475E+03  0.12598540690E+04  0.27547069254E+04  0.00000000000E+00 0. -1.
<mgrwt>
<rscale>  0 0.55586744E+04</rscale>
<asrwt>0</asrwt>
<pdfrwt beam="1">  1        3 0.41974605E+00 0.55586744E+04</pdfrwt>
<pdfrwt beam="2">  1       -3 0.43558123E+00 0.55586744E+04</pdfrwt>
<totfact> 0.10534263E-04</totfact>
</mgrwt>
</event>
<event>
 6    1  0.1072514E-005  0.2436668E+04  0.7818608E-02  0.8425902E-01
         -2   -1    0    0    0  501 -0.00000000000E+00  0.00000000000E+00  0.10722276038E+04  0.10722276038E+04  0.00000000000E+00 0.  1.
          2   -1    0    0  501    0  0.00000000000E+00 -0.00000000000E+00 -0.13843494628E+04  0.13843494628E+04  0.00000000000E+00 0. -1.
         23    2    1    2    0    0 -0.89697990846E+03 -0.37977841655E+03 -0.89139912192E+03  0.13232780111E+04  0.87565393603E+02 0.  0.
         13    1    3    3    0    0 -0.29046085859E+03 -0.90196661226E+02 -0.31494112086E+03  0.43782514509E+03  0.00000000000E+00 0.  1.
        -13    1    3    3    0    0 -0.60651904987E+03 -0.28958175533E+03 -0.57645800106E+03  0.88545286597E+03  0.00000000000E+00 0. -1.
         22    1    1    2    0    0  0.89697990846E+03  0.37977841655E+03  0.57927726295E+03  0.11332990555E+04  0.00000000000E+00 0.  1.
<mgrwt>
<rscale>  0 0.24366680E+04</rscale>
<asrwt>0</asrwt>
<pdfrwt beam="1">  1        2 0.21297684E+00 0.24366680E+04</pdfrwt>
<pdfrwt beam="2">  1       -2 0.16495809E+00 0.24366680E+04</pdfrwt>
<totfact> 0.30688700E+00</totfact>
</mgrwt>
</event>
<event>
 6    1  0.1072514E-005  0.2042711E+04  0.7818608E-02  0.8586908E-01
          1   -1    0    0  501    0  0.00000000000E+00  0.00000000000E+00  0.74446930969E+03  0.74446930969E+03  0.00000000000E+00 0. -1.
         -1   -1    0    0    0  501 -0.00000000000E+00 -0.00000000000E+00 -0.14012230578E+04  0.14012230578E+04  0.00000000000E+00 0.  1.
         23    2    1    2    0    0  0.53115565589E+03 -0.49692223525E+03 -0.10791245679E+04  0.13045888376E+04  0.91565077515E+02 0.  0.
         11    1    3    3    0    0  0.23959084253E+03 -0.16567070181E+03 -0.40514060968E+03  0.49898844363E+03  0.00000000000E+00 0.  1.
        -11    1    3    3    0    0  0.29156481336E+03 -0.33125153344E+03 -0.67398395822E+03  0.80560039395E+03  0.00000000000E+00 0. -1.
         22    1    1    2    0    0 -0.53115565589E+03  0.49692223525E+03  0.42237081977E+03  0.84110352993E+03  0.00000000000E+00 0. -1.
<mgrwt>
<rscale>  0 0.20427115E+04</rscale>
<asrwt>0</asrwt>
<pdfrwt beam="1">  1        1 0.11453374E+00 0.20427115E+04</pdfrwt>
<pdfrwt beam="2">  1       -1 0.21557278E+00 0.20427115E+04</pdfrwt>
<totfact> 0.26986641E+00</totfact>
</mgrwt>
</event>
<event>
 6    1  0.1072514E-005  0.1498983E+04  0.7818608E-02  0.8885129E-01
         -2   -1    0    0    0  501 -0.00000000000E+00  0.00000000000E+00  0.11754206244E+04  0.11754206244E+04  0.00000000000E+00 0.  1.
          2   -1    0    0  501    0  0.00000000000E+00 -0.00000000000E+00 -0.47790343045E+03  0.47790343045E+03  0.00000000000E+00 0. -1.
         23    2    1    2    0    0  0.44928412824E+03 -0.52122796275E+03  0.66934663559E+03  0.96460902128E+03  0.94397183926E+02 0.  0.
         13    1    3    3    0    0  0.25431764314E+03 -0.34881988385E+03  0.45762892134E+03  0.62910810249E+03  0.00000000000E+00 0. -1.
        -13    1    3    3    0    0  0.19496648510E+03 -0.17240807890E+03  0.21171771425E+03  0.33550091879E+03  0.00000000000E+00 0.  1.
         22    1    1    2    0    0 -0.44928412824E+03  0.52122796275E+03  0.28170558321E+02  0.68871503352E+03  0.00000000000E+00 0. -1.
<mgrwt>
<rscale>  0 0.14989831E+04</rscale>
<asrwt>0</asrwt>
<pdfrwt beam="1">  1        2 0.73523605E-01 0.14989831E+04</pdfrwt>
<pdfrwt beam="2">  1       -2 0.18083394E+00 0.14989831E+04</pdfrwt>
<totfact> 0.11208202E+01</totfact>
</mgrwt>
</event>
<event>
 6    1  0.1072514E-005  0.2753163E+04  0.7818608E-02  0.8317959E-01
         -1   -1    0    0    0  501 -0.00000000000E+00  0.00000000000E+00  0.13838673489E+04  0.13838673489E+04  0.00000000000E+00 0.  1.
          1   -1    0    0  501    0  0.00000000000E+00 -0.00000000000E+00 -0.13693338825E+04  0.13693338825E+04  0.00000000000E+00 0. -1.
         23    2    1    2    0    0  0.51167741538E+03 -0.12491232900E+04  0.26879392718E+03  0.13796033452E+04  0.94511607513E+02 0.  0.
         11    1    3    3    0    0  0.77695206097E+02 -0.18917367804E+03  0.65528576575E+01  0.20461223194E+03  0.00000000000E+00 0.  1.
        -11    1    3    3    0    0  0.43398220928E+03 -0.10599496119E+04  0.26224106952E+03  0.11749911133E+04  0.00000000000E+00 0. -1.
         22    1    1    2    0    0 -0.51167741538E+03  0.12491232900E+04 -0.25426046083E+03  0.13735978862E+04  0.00000000000E+00 0. -1.
<mgrwt>
<rscale>  0 0.27531629E+04</rscale>
<asrwt>0</asrwt>
<pdfrwt beam="1">  1        1 0.21066675E+00 0.27531629E+04</pdfrwt>
<pdfrwt beam="2">  1       -1 0.21290267E+00 0.27531629E+04</pdfrwt>
<totfact> 0.86234864E-01</totfact>
</mgrwt>
</event>
<event>
 6    1  0.1072514E-005  0.1378273E+04  0.7818608E-02  0.8969697E-01
         -4   -1    0    0    0  501 -0.00000000000E+00  0.00000000000E+00  0.47108000710E+03  0.47108000710E+03  0.00000000000E+00 0.  1.
          4   -1    0    0  501    0  0.00000000000E+00 -0.00000000000E+00 -0.10081290540E+04  0.10081290540E+04  0.00000000000E+00 0. -1.
         23    2    1    2    0    0 -0.61231068304E+03  0.28894719042E+03 -0.38892904013E+03  0.78613302788E+03  0.91238631312E+02 0.  0.
         11    1    3    3    0    0 -0.22913601609E+03  0.60437494281E+02 -0.14037354607E+03  0.27542827927E+03  0.00000000000E+00 0.  1.
        -11    1    3    3    0    0 -0.38317466695E+03  0.22850969614E+03 -0.24855549405E+03  0.51070474860E+03  0.00000000000E+00 0. -1.
         22    1    1    2    0    0  0.61231068304E+03 -0.28894719042E+03 -0.14812000676E+03  0.69307603322E+03  0.00000000000E+00 0. -1.
<mgrwt>
<rscale>  0 0.13782735E+04</rscale>
<asrwt>0</asrwt>
<pdfrwt beam="1">  1        4 0.15509678E+00 0.13782735E+04</pdfrwt>
<pdfrwt beam="2">  1       -4 0.72473848E-01 0.13782735E+04</pdfrwt>
<totfact> 0.91929495E-01</totfact>
</mgrwt>
</event>
<event>
 6    1  0.1072514E-005  0.1461357E+04  0.7818608E-02  0.8910564E-01
         -2   -1    0    0    0  501 -0.00000000000E+00  0.00000000000E+00  0.32721717086E+03  0.32721717086E+03  0.00000000000E+00 0.  1.
          2   -1    0    0  501    0  0.00000000000E+00 -0.00000000000E+00 -0.16316112974E+04  0.16316112974E+04  0.00000000000E+00 0. -1.
         23    2    1    2    0    0 -0.60259756470E+03  0.79186170790E+01 -0.10826440402E+03  0.61945815257E+03  0.93918539845E+02 0.  0.
         13    1    3    3    0    0 -0.44056001228E+03 -0.35969811767E+02 -0.80810129559E+02  0.44935200992E+03  0.00000000000E+00 0. -1.
        -13    1    3    3    0    0 -0.16203755242E+03  0.43888428846E+02 -0.27454274461E+02  0.17010614265E+03  0.00000000000E+00 0.  1.
         22    1    1    2    0    0  0.60259756470E+03 -0.79186170790E+01 -0.11961297225E+04  0.13393703157E+04  0.00000000000E+00 0. -1.
<mgrwt>
<rscale>  0 0.14613572E+04</rscale>
<asrwt>0</asrwt>
<pdfrwt beam="1">  1        2 0.25101712E+00 0.14613572E+04</pdfrwt>
<pdfrwt beam="2">  1       -2 0.50341104E-01 0.14613572E+04</pdfrwt>
<totfact> 0.38712277E+01</totfact>
</mgrwt>
</event>
<event>
 6    1  0.1072514E-005  0.3273126E+04  0.7818608E-02  0.8169767E-01
          3   -1    0    0  501    0  0.00000000000E+00  0.00000000000E+00  0.26298469088E+04  0.26298469088E+04  0.00000000000E+00 0. -1.
         -3   -1    0    0    0  501 -0.00000000000E+00 -0.00000000000E+00 -0.10184391451E+04  0.10184391451E+04  0.00000000000E+00 0.  1.
         23    2    1    2    0    0 -0.16076723635E+03 -0.16231274850E+04  0.67362540314E+03  0.17668438696E+04  0.87046763239E+02 0.  0.
         13    1    3    3    0    0 -0.75165066365E+01 -0.17599152655E+03  0.46130495331E+02  0.18209211374E+03  0.00000000000E+00 0.  1.
        -13    1    3    3    0    0 -0.15325072971E+03 -0.14471359584E+04  0.62749490781E+03  0.15847517559E+04  0.00000000000E+00 0. -1.
         22    1    1    2    0    0  0.16076723635E+03  0.16231274850E+04  0.93778236057E+03  0.18814421842E+04  0.00000000000E+00 0. -1.
<mgrwt>
<rscale>  0 0.32731264E+04</rscale>
<asrwt>0</asrwt>
<pdfrwt beam="1">  1        3 0.40459183E+00 0.32731264E+04</pdfrwt>
<pdfrwt beam="2">  1       -3 0.15668295E+00 0.32731264E+04</pdfrwt>
<totfact> 0.65647032E-03</totfact>
</mgrwt>
</event>
<event>
 6    1  0.1072514E-005  0.1367382E+04  0.7818608E-02  0.8977774E-01
          2   -1    0    0  501    0  0.00000000000E+00  0.00000000000E+00  0.58346579127E+03  0.58346579127E+03  0.00000000000E+00 0. -1.
         -2   -1    0    0    0  501 -0.00000000000E+00 -0.00000000000E+00 -0.80113212324E+03  0.80113212324E+03  0.00000000000E+00 0.  1.
         23    2    1    2    0    0  0.22253804969E+03  0.21052702350E+03  0.50624311657E+03  0.59853831063E+03  0.90117728746E+02 0.  0.
         13    1    3    3    0    0  0.30141154933E+02  0.28569787403E+02  0.14370251129E+03  0.14958320000E+03  0.00000000000E+00 0. -1.
        -13    1    3    3    0    0  0.19239689475E+03  0.18195723609E+03  0.36254060529E+03  0.44895511063E+03  0.00000000000E+00 0.  1.
         22    1    1    2    0    0 -0.22253804969E+03 -0.21052702350E+03 -0.72390944854E+03  0.78605960389E+03  0.00000000000E+00 0.  1.
<mgrwt>
<rscale>  0 0.13673817E+04</rscale>
<asrwt>0</asrwt>
<pdfrwt beam="1">  1        2 0.89763968E-01 0.13673817E+04</pdfrwt>
<pdfrwt beam="2">  1       -2 0.12325110E+00 0.13673817E+04</pdfrwt>
<totfact> 0.24852036E+01</totfact>
</mgrwt>
</event>
<event>
 6    1  0.1072514E-005  0.3650680E+04  0.7818608E-02  0.8078980E-01
         -2   -1    0    0    0  501 -0.00000000000E+00  0.00000000000E+00  0.14294564646E+04  0.14294564646E+04  0.00000000000E+00 0.  1.
          2   -1    0    0  501    0  0.00000000000E+00 -0.00000000000E+00 -0.23308622952E+04  0.23308622952E+04  0.00000000000E+00 0. -1.
         23    2    1    2    0    0 -0.51691114142E+03 -0.55522514380E+03  0.12578384920E+04  0.14716929422E+04  0.90831468445E+02 0.  0.
         13    1    3    3    0    0 -0.47151745075E+03 -0.46395947574E+03  0.11087496973E+04  0.12910898469E+04  0.00000000000E+00 0. -1.
        -13    1    3    3    0    0 -0.45393690671E+02 -0.91265668066E+02  0.14908879464E+03  0.18060309524E+03  0.00000000000E+00 0.  1.
         22    1    1    2    0    0  0.51691114142E+03  0.55522514380E+03 -0.21592443226E+04  0.22886258176E+04  0.00000000000E+00 0. -1.
<mgrwt>
<rscale>  0 0.36506800E+04</rscale>
<asrwt>0</asrwt>
<pdfrwt beam="1">  1        2 0.35859420E+00 0.36506800E+04</pdfrwt>
<pdfrwt beam="2">  1       -2 0.21991638E+00 0.36506800E+04</pdfrwt>
<totfact> 0.34972023E-01</totfact>
</mgrwt>
</event>
<event>
 6    1  0.1072514E-005  0.1239761E+04  0.7818608E-02  0.9078748E-01
          1   -1    0    0  501    0  0.00000000000E+00  0.00000000000E+00  0.10966157005E+04  0.10966157005E+04  0.00000000000E+00 0. -1.
         -1   -1    0    0    0  501 -0.00000000000E+00 -0.00000000000E+00 -0.35039807510E+03  0.35039807510E+03  0.00000000000E+00 0.  1.
         23    2    1    2    0    0 -0.16654039911E+03  0.35379092498E+02  0.10666869767E+04  0.10841253769E+04  0.92300281307E+02 0.  0.
         13    1    3    3    0    0 -0.89248860704E+02  0.60710104968E+02  0.49127672064E+03  0.50299492267E+03  0.00000000000E+00 0. -1.
        -13    1    3    3    0    0 -0.77291538403E+02 -0.25331012470E+02  0.57541025607E+03  0.58113045428E+03  0.00000000000E+00 0.  1.
         22    1    1    2    0    0  0.16654039911E+03 -0.35379092498E+02 -0.32046935133E+03  0.36288839863E+03  0.00000000000E+00 0.  1.
<mgrwt>
<rscale>  0 0.12397613E+04</rscale>
<asrwt>0</asrwt>
<pdfrwt beam="1">  1        1 0.16871011E+00 0.12397613E+04</pdfrwt>
<pdfrwt beam="2">  1       -1 0.53907397E-01 0.12397613E+04</pdfrwt>
<totfact> 0.43713664E+01</totfact>
</mgrwt>
</event>
<event>
 6    1  0.1072514E-005  0.2208758E+04  0.7818608E-02  0.8514792E-01
         -2   -1    0    0    0  501 -0.00000000000E+00  0.00000000000E+00  0.53757558828E+03  0.53757558828E+03  0.00000000000E+00 0.  1.
          2   -1    0    0  501    0  0.00000000000E+00 -0.00000000000E+00 -0.22688026251E+04  0.22688026251E+04  0.00000000000E+00 0. -1.
         23    2    1    2    0    0 -0.32089260163E+03 -0.89912254871E+03 -0.15678463253E+04  0.18378294659E+04  0.89897868231E+02 0.  0.
         13    1    3    3    0    0 -0.37511796859E+02 -0.86789135001E+02 -0.11001058188E+03  0.14505797801E+03  0.00000000000E+00 0. -1.
        -13    1    3    3    0    0 -0.28338080477E+03 -0.81233341371E+03 -0.14578357434E+04  0.16927714879E+04  0.00000000000E+00 0.  1.
         22    1    1    2    0    0  0.32089260163E+03  0.89912254871E+03 -0.16338071158E+03  0.96854874751E+03  0.00000000000E+00 0.  1.
<mgrwt>
<rscale>  0 0.22087579E+04</rscale>
<asrwt>0</asrwt>
<pdfrwt beam="1">  1        2 0.34904656E+00 0.22087579E+04</pdfrwt>
<pdfrwt beam="2">  1       -2 0.82703937E-01 0.22087579E+04</pdfrwt>
<totfact> 0.55299929E+00</totfact>
</mgrwt>
</event>
<event>
 6    1  0.1072514E-005  0.1025973E+04  0.7818608E-02  0.9280508E-01
          2   -1    0    0  501    0  0.00000000000E+00  0.00000000000E+00  0.26574657340E+03  0.26574657340E+03  0.00000000000E+00 0. -1.
         -2   -1    0    0    0  501 -0.00000000000E+00 -0.00000000000E+00 -0.99024884747E+03  0.99024884747E+03  0.00000000000E+00 0.  1.
         23    2    1    2    0    0  0.43940127418E+03 -0.21079874623E+03 -0.18385917088E+03  0.52811867569E+03  0.87152451115E+02 0.  0.
         13    1    3    3    0    0  0.90770538398E+02 -0.83448840618E+02 -0.34542243278E+02  0.12804751545E+03  0.00000000000E+00 0. -1.
        -13    1    3    3    0    0  0.34863073578E+03 -0.12734990561E+03 -0.14931692761E+03  0.40007116024E+03  0.00000000000E+00 0.  1.
         22    1    1    2    0    0 -0.43940127418E+03  0.21079874623E+03 -0.54064310318E+03  0.72787674518E+03  0.00000000000E+00 0.  1.
<mgrwt>
<rscale>  0 0.10259732E+04</rscale>
<asrwt>0</asrwt>
<pdfrwt beam="1">  1        2 0.40884087E-01 0.10259732E+04</pdfrwt>
<pdfrwt beam="2">  1       -2 0.15234598E+00 0.10259732E+04</pdfrwt>
<totfact> 0.35995990E+01</totfact>
</mgrwt>
</event>
<event>
 6    1  0.1072514E-005  0.1490359E+04  0.7818608E-02  0.8890889E-01
          1   -1    0    0  501    0  0.00000000000E+00  0.00000000000E+00  0.13227023121E+04  0.13227023121E+04  0.00000000000E+00 0. -1.
         -1   -1    0    0    0  501 -0.00000000000E+00 -0.00000000000E+00 -0.41981671288E+03  0.41981671288E+03  0.00000000000E+00 0.  1.
         23    2    1    2    0    0  0.71848267799E+03  0.61326122812E+02  0.65966876165E+03  0.98151134957E+03  0.90682976978E+02 0.  0.
         13    1    3    3    0    0  0.11091889350E+03  0.21109874970E+02  0.64394626993E+02  0.12998190544E+03  0.00000000000E+00 0.  1.
        -13    1    3    3    0    0  0.60756378449E+03  0.40216247842E+02  0.59527413466E+03  0.85152944412E+03  0.00000000000E+00 0. -1.
         22    1    1    2    0    0 -0.71848267799E+03 -0.61326122812E+02  0.24321683753E+03  0.76100767537E+03  0.00000000000E+00 0.  1.
<mgrwt>
<rscale>  0 0.14903591E+04</rscale>
<asrwt>0</asrwt>
<pdfrwt beam="1">  1        1 0.20349266E+00 0.14903591E+04</pdfrwt>
<pdfrwt beam="2">  1       -1 0.64587187E-01 0.14903591E+04</pdfrwt>
<totfact> 0.20505738E+01</totfact>
</mgrwt>
</event>
<event>
 6    1  0.1072514E-005  0.2706257E+04  0.7818608E-02  0.8332978E-01
          2   -1    0    0  501    0  0.00000000000E+00  0.00000000000E+00  0.12761591079E+04  0.12761591079E+04  0.00000000000E+00 0. -1.
         -2   -1    0    0    0  501 -0.00000000000E+00 -0.00000000000E+00 -0.14347405443E+04  0.14347405443E+04  0.00000000000E+00 0.  1.
         23    2    1    2    0    0 -0.93270583582E+03  0.72428202674E+03  0.57857095819E+03  0.13188083178E+04  0.99931951336E+02 0.  0.
         13    1    3    3    0    0 -0.49739213680E+02  0.20077587309E+02  0.43568900614E+02  0.69103892729E+02  0.00000000000E+00 0. -1.
        -13    1    3    3    0    0 -0.88296662214E+03  0.70420443943E+03  0.53500205758E+03  0.12497044250E+04  0.00000000000E+00 0.  1.
         22    1    1    2    0    0  0.93270583582E+03 -0.72428202674E+03 -0.73715239464E+03  0.13920913344E+04  0.00000000000E+00 0.  1.
<mgrwt>
<rscale>  0 0.27062574E+04</rscale>
<asrwt>0</asrwt>
<pdfrwt beam="1">  1        2 0.19633217E+00 0.27062574E+04</pdfrwt>
<pdfrwt beam="2">  1       -2 0.22072931E+00 0.27062574E+04</pdfrwt>
<totfact> 0.14638244E+00</totfact>
</mgrwt>
</event>
<event>
 6    1  0.1072514E-005  0.1771359E+04  0.7818608E-02  0.8721680E-01
         -2   -1    0    0    0  501 -0.00000000000E+00  0.00000000000E+00  0.55433904948E+03  0.55433904948E+03  0.00000000000E+00 0.  1.
          2   -1    0    0  501    0  0.00000000000E+00 -0.00000000000E+00 -0.14150697581E+04  0.14150697581E+04  0.00000000000E+00 0. -1.
         23    2    1    2    0    0  0.61817190176E+03  0.82229926274E+02  0.26409014608E+03  0.68328275774E+03  0.90738420056E+02 0.  0.
         11    1    3    3    0    0  0.34037991841E+03  0.86193223838E+02  0.12609788234E+03  0.37307966525E+03  0.00000000000E+00 0. -1.
        -11    1    3    3    0    0  0.27779198335E+03 -0.39632975637E+01  0.13799226375E+03  0.31020309249E+03  0.00000000000E+00 0.  1.
         22    1    1    2    0    0 -0.61817190176E+03 -0.82229926274E+02 -0.11248208547E+04  0.12861260499E+04  0.00000000000E+00 0. -1.
<mgrwt>
<rscale>  0 0.17713593E+04</rscale>
<asrwt>0</asrwt>
<pdfrwt beam="1">  1        2 0.21770304E+00 0.17713593E+04</pdfrwt>
<pdfrwt beam="2">  1       -2 0.85282933E-01 0.17713593E+04</pdfrwt>
<totfact> 0.16052415E+01</totfact>
</mgrwt>
</event>
<event>
 6    1  0.1072514E-005  0.1531842E+04  0.7818608E-02  0.8863550E-01
         -2   -1    0    0    0  501 -0.00000000000E+00  0.00000000000E+00  0.15596150640E+03  0.15596150640E+03  0.00000000000E+00 0.  1.
          2   -1    0    0  501    0  0.00000000000E+00 -0.00000000000E+00 -0.37614094884E+04  0.37614094884E+04  0.00000000000E+00 0. -1.
         23    2    1    2    0    0  0.23049454284E+02 -0.38964655568E+03 -0.34861443284E+04  0.35092177424E+04  0.95137633402E+02 0.  0.
         11    1    3    3    0    0  0.49404208723E+02 -0.27284674211E+03 -0.21714793025E+04  0.21891113452E+04  0.00000000000E+00 0. -1.
        -11    1    3    3    0    0 -0.26354754440E+02 -0.11679981356E+03 -0.13146650259E+04  0.13201063972E+04  0.00000000000E+00 0.  1.
         22    1    1    2    0    0 -0.23049454284E+02  0.38964655568E+03 -0.11930365359E+03  0.40815325241E+03  0.00000000000E+00 0.  1.
<mgrwt>
<rscale>  0 0.15318421E+04</rscale>
<asrwt>0</asrwt>
<pdfrwt beam="1">  1        2 0.57867831E+00 0.15318421E+04</pdfrwt>
<pdfrwt beam="2">  1       -2 0.23994081E-01 0.15318421E+04</pdfrwt>
<totfact> 0.79648130E+00</totfact>
</mgrwt>
</event>
<event>
 6    1  0.1072514E-005  0.3866343E+04  0.7818608E-02  0.8032066E-01
         -2   -1    0    0    0  501 -0.00000000000E+00  0.00000000000E+00  0.18586603935E+04  0.18586603935E+04  0.00000000000E+00 0. -1.
          2   -1    0    0  501    0  0.00000000000E+00 -0.00000000000E+00 -0.20106699206E+04  0.20106699206E+04  0.00000000000E+00 0.  1.
         23    2    1    2    0    0 -0.59914462952E+03  0.76643189556E+03  0.15942183636E+04  0.18704046067E+04  0.10241613348E+03 0.  0.
         13    1    3    3    0    0 -0.21584660229E+03  0.31811778447E+03  0.54845469752E+03  0.66976953928E+03  0.00000000000E+00 0. -1.
        -13    1    3    3    0    0 -0.38329802723E+03  0.44831411109E+03  0.10457636661E+04  0.12006350674E+04  0.00000000000E+00 0.  1.
         22    1    1    2    0    0  0.59914462952E+03 -0.76643189556E+03 -0.17462278906E+04  0.19989257074E+04  0.00000000000E+00 0.  1.
<mgrwt>
<rscale>  0 0.38663433E+04</rscale>
<asrwt>0</asrwt>
<pdfrwt beam="1">  1        2 0.30933383E+00 0.38663433E+04</pdfrwt>
<pdfrwt beam="2">  1       -2 0.28594775E+00 0.38663433E+04</pdfrwt>
<totfact> 0.20359386E-01</totfact>
</mgrwt>
</event>
<event>
 6    1  0.1072514E-005  0.4578430E+04  0.7818608E-02  0.7897048E-01
         -2   -1    0    0    0  501 -0.00000000000E+00  0.00000000000E+00  0.21524613415E+04  0.21524613415E+04  0.00000000000E+00 0.  1.
          2   -1    0    0  501    0  0.00000000000E+00 -0.00000000000E+00 -0.24346571400E+04  0.24346571400E+04  0.00000000000E+00 0. -1.
         23    2    1    2    0    0  0.22307471554E+03  0.21634533488E+04 -0.85386465919E+03  0.23383192446E+04  0.91429274172E+02 0.  0.
         11    1    3    3    0    0  0.14259915606E+03  0.10325542542E+04 -0.37873679814E+03  0.11090285702E+04  0.00000000000E+00 0. -1.
        -11    1    3    3    0    0  0.80475559483E+02  0.11308990946E+04 -0.47512786105E+03  0.12292906744E+04  0.00000000000E+00 0.  1.
         22    1    1    2    0    0 -0.22307471554E+03 -0.21634533488E+04  0.57166886069E+03  0.22487992368E+04  0.00000000000E+00 0.  1.
<mgrwt>
<rscale>  0 0.45784300E+04</rscale>
<asrwt>0</asrwt>
<pdfrwt beam="1">  1        2 0.37456263E+00 0.45784300E+04</pdfrwt>
<pdfrwt beam="2">  1       -2 0.33114790E+00 0.45784300E+04</pdfrwt>
<totfact> 0.58383935E-02</totfact>
</mgrwt>
</event>
<event>
 6    1  0.1328471E-005  0.3401798E+04  0.7818608E-02  0.8137465E-01
          2   -1    0    0  501    0  0.00000000000E+00  0.00000000000E+00  0.24794201518E+04  0.24794201518E+04  0.00000000000E+00 0.  1.
         -2   -1    0    0    0  501 -0.00000000000E+00 -0.00000000000E+00 -0.11668282022E+04  0.11668282022E+04  0.00000000000E+00 0. -1.
         23    2    1    2    0    0  0.55247567341E+03 -0.15089334347E+04  0.12501138477E+04  0.20381398398E+04  0.95498136512E+02 0.  0.
         13    1    3    3    0    0  0.20656602975E+03 -0.68836690743E+03  0.58464735180E+03  0.92646157495E+03  0.00000000000E+00 0.  1.
        -13    1    3    3    0    0  0.34590964366E+03 -0.82056652731E+03  0.66546649592E+03  0.11116782648E+04  0.00000000000E+00 0. -1.
         22    1    1    2    0    0 -0.55247567341E+03  0.15089334347E+04  0.62478101940E+02  0.16081085142E+04  0.00000000000E+00 0. -1.
<mgrwt>
<rscale>  0 0.34017980E+04</rscale>
<asrwt>0</asrwt>
<pdfrwt beam="1">  1        2 0.38144925E+00 0.34017980E+04</pdfrwt>
<pdfrwt beam="2">  1       -2 0.17951203E+00 0.34017980E+04</pdfrwt>
<totfact> 0.54153300E-01</totfact>
</mgrwt>
</event>
<event>
 6    1  0.1072514E-005  0.2050161E+04  0.7818608E-02  0.8583521E-01
         -1   -1    0    0    0  501 -0.00000000000E+00  0.00000000000E+00  0.58359264469E+03  0.58359264469E+03  0.00000000000E+00 0.  1.
          1   -1    0    0  501    0  0.00000000000E+00 -0.00000000000E+00 -0.18005532421E+04  0.18005532421E+04  0.00000000000E+00 0. -1.
         23    2    1    2    0    0  0.14985429957E+03  0.98684407382E+03 -0.34844880867E+03  0.10610320352E+04  0.89748929292E+02 0.  0.
         13    1    3    3    0    0  0.94945520834E+02  0.41806863873E+03 -0.18303390671E+03  0.46615174527E+03  0.00000000000E+00 0. -1.
        -13    1    3    3    0    0  0.54908778732E+02  0.56877543509E+03 -0.16541490196E+03  0.59488028992E+03  0.00000000000E+00 0.  1.
         22    1    1    2    0    0 -0.14985429957E+03 -0.98684407382E+03 -0.86851178873E+03  0.13231138516E+04  0.00000000000E+00 0. -1.
<mgrwt>
<rscale>  0 0.20501606E+04</rscale>
<asrwt>0</asrwt>
<pdfrwt beam="1">  1        1 0.27700819E+00 0.20501606E+04</pdfrwt>
<pdfrwt beam="2">  1       -1 0.89783485E-01 0.20501606E+04</pdfrwt>
<totfact> 0.45652094E+00</totfact>
</mgrwt>
</event>
<event>
 6    1  0.1072514E-005  0.2354149E+04  0.7818608E-02  0.8456872E-01
          2   -1    0    0  501    0  0.00000000000E+00  0.00000000000E+00  0.32932903327E+04  0.32932903327E+04  0.00000000000E+00 0. -1.
         -2   -1    0    0    0  501 -0.00000000000E+00 -0.00000000000E+00 -0.42070512512E+03  0.42070512512E+03  0.00000000000E+00 0.  1.
         23    2    1    2    0    0  0.32449684364E+03  0.11251205210E+04  0.15971343099E+04  0.19825309388E+04  0.91632586129E+02 0.  0.
         13    1    3    3    0    0  0.14342641129E+03  0.64285745641E+03  0.86065657745E+03  0.10837742334E+04  0.00000000000E+00 0.  1.
        -13    1    3    3    0    0  0.18107043235E+03  0.48226306462E+03  0.73647773250E+03  0.89875670536E+03  0.00000000000E+00 0. -1.
         22    1    1    2    0    0 -0.32449684364E+03 -0.11251205210E+04  0.12754508976E+04  0.17314645190E+04  0.00000000000E+00 0.  1.
<mgrwt>
<rscale>  0 0.23541488E+04</rscale>
<asrwt>0</asrwt>
<pdfrwt beam="1">  1        2 0.50666003E+00 0.23541488E+04</pdfrwt>
<pdfrwt beam="2">  1       -2 0.64723868E-01 0.23541488E+04</pdfrwt>
<totfact> 0.22413198E+00</totfact>
</mgrwt>
</event>
<event>
 6    1  0.1072514E-005  0.2858414E+04  0.7818608E-02  0.8285359E-01
         -2   -1    0    0    0  501 -0.00000000000E+00  0.00000000000E+00  0.10549020940E+04  0.10549020940E+04  0.00000000000E+00 0.  1.
          2   -1    0    0  501    0  0.00000000000E+00 -0.00000000000E+00 -0.19363239468E+04  0.19363239468E+04  0.00000000000E+00 0. -1.
         23    2    1    2    0    0  0.11050874637E+04 -0.78555091010E+03 -0.90913944999E+03  0.16351003829E+04  0.93328386719E+02 0.  0.
         13    1    3    3    0    0  0.24449323392E+03 -0.19204552012E+03 -0.16568250741E+03  0.35229123817E+03  0.00000000000E+00 0.  1.
        -13    1    3    3    0    0  0.86059422977E+03 -0.59350538998E+03 -0.74345694259E+03  0.12828091447E+04  0.00000000000E+00 0. -1.
         22    1    1    2    0    0 -0.11050874637E+04  0.78555091010E+03  0.27717597138E+02  0.13561256579E+04  0.00000000000E+00 0.  1.
<mgrwt>
<rscale>  0 0.28584137E+04</rscale>
<asrwt>0</asrwt>
<pdfrwt beam="1">  1        2 0.29789599E+00 0.28584137E+04</pdfrwt>
<pdfrwt beam="2">  1       -2 0.16229263E+00 0.28584137E+04</pdfrwt>
<totfact> 0.15211076E+00</totfact>
</mgrwt>
</event>
<event>
 6    1  0.1072514E-005  0.2011539E+04  0.7818608E-02  0.8601245E-01
         -1   -1    0    0    0  501 -0.00000000000E+00  0.00000000000E+00  0.70761659804E+03  0.70761659804E+03  0.00000000000E+00 0.  1.
          1   -1    0    0  501    0  0.00000000000E+00 -0.00000000000E+00 -0.14295481376E+04  0.14295481376E+04  0.00000000000E+00 0. -1.
         23    2    1    2    0    0 -0.24755716310E+03  0.13469845180E+03  0.66166964198E+03  0.72515182796E+03  0.92791360343E+02 0.  0.
         13    1    3    3    0    0 -0.65487346454E+02 -0.45096181480E+01  0.18363324247E+03  0.19501306865E+03  0.00000000000E+00 0.  1.
        -13    1    3    3    0    0 -0.18206981664E+03  0.13920806995E+03  0.47803639951E+03  0.53013875931E+03  0.00000000000E+00 0. -1.
         22    1    1    2    0    0  0.24755716310E+03 -0.13469845180E+03 -0.13836011816E+04  0.14120129077E+04  0.00000000000E+00 0. -1.
<mgrwt>
<rscale>  0 0.20115387E+04</rscale>
<asrwt>0</asrwt>
<pdfrwt beam="1">  1        1 0.21993048E+00 0.20115387E+04</pdfrwt>
<pdfrwt beam="2">  1       -1 0.10886409E+00 0.20115387E+04</pdfrwt>
<totfact> 0.53091799E+00</totfact>
</mgrwt>
</event>
<event>
 6    1  0.1072514E-005  0.6506367E+04  0.7818608E-02  0.7630604E-01
          2   -1    0    0  501    0  0.00000000000E+00  0.00000000000E+00  0.23437799436E+04  0.23437799436E+04  0.00000000000E+00 0. -1.
         -2   -1    0    0    0  501 -0.00000000000E+00 -0.00000000000E+00 -0.45154426144E+04  0.45154426144E+04  0.00000000000E+00 0.  1.
         23    2    1    2    0    0 -0.15417088461E+04 -0.37943197885E+03 -0.40787187916E+04  0.43777516553E+04  0.89038089900E+02 0.  0.
         11    1    3    3    0    0 -0.74170643800E+03 -0.19585250054E+03 -0.18534265406E+04  0.20059104126E+04  0.00000000000E+00 0. -1.
        -11    1    3    3    0    0 -0.80000240812E+03 -0.18357947831E+03 -0.22252922511E+04  0.23718412427E+04  0.00000000000E+00 0.  1.
         22    1    1    2    0    0  0.15417088461E+04  0.37943197885E+03  0.19070561208E+04  0.24814709027E+04  0.00000000000E+00 0. -1.
<mgrwt>
<rscale>  0 0.65063673E+04</rscale>
<asrwt>0</asrwt>
<pdfrwt beam="1">  1        2 0.36058154E+00 0.65063673E+04</pdfrwt>
<pdfrwt beam="2">  1       -2 0.69468347E+00 0.65063673E+04</pdfrwt>
<totfact> 0.67351095E-04</totfact>
</mgrwt>
</event>
<event>
 6    1  0.1072514E-005  0.2117297E+04  0.7818608E-02  0.8553662E-01
         -2   -1    0    0    0  501 -0.00000000000E+00  0.00000000000E+00  0.12103836835E+04  0.12103836835E+04  0.00000000000E+00 0.  1.
          2   -1    0    0  501    0  0.00000000000E+00 -0.00000000000E+00 -0.92593516466E+03  0.92593516466E+03  0.00000000000E+00 0. -1.
         23    2    1    2    0    0  0.37892987725E+02  0.10561891933E+04  0.15348410853E+03  0.10713666580E+04  0.85426306198E+02 0.  0.
         13    1    3    3    0    0  0.62595536687E+02  0.57073091881E+03  0.89504938633E+02  0.58108787368E+03  0.00000000000E+00 0.  1.
        -13    1    3    3    0    0 -0.24702548962E+02  0.48545827448E+03  0.63979169892E+02  0.49027878433E+03  0.00000000000E+00 0. -1.
         22    1    1    2    0    0 -0.37892987725E+02 -0.10561891933E+04  0.13096441033E+03  0.10649521902E+04  0.00000000000E+00 0. -1.
<mgrwt>
<rscale>  0 0.21172972E+04</rscale>
<asrwt>0</asrwt>
<pdfrwt beam="1">  1        2 0.14245156E+00 0.21172972E+04</pdfrwt>
<pdfrwt beam="2">  1       -2 0.18621287E+00 0.21172972E+04</pdfrwt>
<totfact> 0.42599801E+00</totfact>
</mgrwt>
</event>
<event>
 6    1  0.1072514E-005  0.2853352E+04  0.7818608E-02  0.8286893E-01
          1   -1    0    0  501    0  0.00000000000E+00  0.00000000000E+00  0.35158588761E+04  0.35158588761E+04  0.00000000000E+00 0. -1.
         -1   -1    0    0    0  501 -0.00000000000E+00 -0.00000000000E+00 -0.57892112451E+03  0.57892112451E+03  0.00000000000E+00 0.  1.
         23    2    1    2    0    0 -0.55222601663E+03  0.11542234176E+04  0.56896104897E+03  0.14032193129E+04  0.90124878598E+02 0.  0.
         11    1    3    3    0    0 -0.29224448386E+03  0.52485041732E+03  0.29450020878E+03  0.66903301255E+03  0.00000000000E+00 0.  1.
        -11    1    3    3    0    0 -0.25998153277E+03  0.62937300030E+03  0.27446084019E+03  0.73418630040E+03  0.00000000000E+00 0. -1.
         22    1    1    2    0    0  0.55222601663E+03 -0.11542234176E+04  0.23679767026E+04  0.26915606877E+04  0.00000000000E+00 0. -1.
<mgrwt>
<rscale>  0 0.28533524E+04</rscale>
<asrwt>0</asrwt>
<pdfrwt beam="1">  1        1 0.54090135E+00 0.28533524E+04</pdfrwt>
<pdfrwt beam="2">  1       -1 0.89064791E-01 0.28533524E+04</pdfrwt>
<totfact> 0.25851181E-01</totfact>
</mgrwt>
</event>
<event>
 6    1  0.1072514E-005  0.4995712E+04  0.7818608E-02  0.7829169E-01
          2   -1    0    0  501    0  0.00000000000E+00  0.00000000000E+00  0.24372095870E+04  0.24372095870E+04  0.00000000000E+00 0. -1.
         -2   -1    0    0    0  501 -0.00000000000E+00 -0.00000000000E+00 -0.25600119616E+04  0.25600119616E+04  0.00000000000E+00 0.  1.
         23    2    1    2    0    0 -0.95389679514E+03  0.21832137652E+04 -0.80919082488E+03  0.25178122349E+04  0.90814197725E+02 0.  0.
         13    1    3    3    0    0 -0.18618501348E+03  0.49736384555E+03 -0.20661622119E+03  0.56984727512E+03  0.00000000000E+00 0.  1.
        -13    1    3    3    0    0 -0.76771178166E+03  0.16858499197E+04 -0.60257460369E+03  0.19479649597E+04  0.00000000000E+00 0. -1.
         22    1    1    2    0    0  0.95389679514E+03 -0.21832137652E+04  0.68638845025E+03  0.24794093137E+04  0.00000000000E+00 0. -1.
<mgrwt>
<rscale>  0 0.49957124E+04</rscale>
<asrwt>0</asrwt>
<pdfrwt beam="1">  1        2 0.37495532E+00 0.49957124E+04</pdfrwt>
<pdfrwt beam="2">  1       -2 0.39384799E+00 0.49957124E+04</pdfrwt>
<totfact> 0.22452980E-02</totfact>
</mgrwt>
</event>
<event>
 6    1  0.1072514E-005  0.1963133E+04  0.7818608E-02  0.8624054E-01
         -1   -1    0    0    0  501 -0.00000000000E+00  0.00000000000E+00  0.29214315179E+03  0.29214315179E+03  0.00000000000E+00 0.  1.
          1   -1    0    0  501    0  0.00000000000E+00 -0.00000000000E+00 -0.32979490736E+04  0.32979490736E+04  0.00000000000E+00 0. -1.
         23    2    1    2    0    0 -0.22392910958E+02  0.72255952700E+03 -0.27147557759E+04  0.28107951704E+04  0.89871322438E+02 0.  0.
         11    1    3    3    0    0 -0.17587246199E+01  0.46931529606E+03 -0.19137611939E+04  0.19704674185E+04  0.00000000000E+00 0. -1.
        -11    1    3    3    0    0 -0.20634186338E+02  0.25324423094E+03 -0.80099458206E+03  0.84032775192E+03  0.00000000000E+00 0.  1.
         22    1    1    2    0    0  0.22392910958E+02 -0.72255952700E+03 -0.29105014592E+03  0.77929705501E+03  0.00000000000E+00 0.  1.
<mgrwt>
<rscale>  0 0.19631335E+04</rscale>
<asrwt>0</asrwt>
<pdfrwt beam="1">  1        1 0.50737676E+00 0.19631335E+04</pdfrwt>
<pdfrwt beam="2">  1       -1 0.44945102E-01 0.19631335E+04</pdfrwt>
<totfact> 0.16430083E+00</totfact>
</mgrwt>
</event>
<event>
 6    1  0.1072514E-005  0.1973302E+04  0.7818608E-02  0.8619205E-01
          2   -1    0    0  501    0  0.00000000000E+00  0.00000000000E+00  0.25111568534E+04  0.25111568534E+04  0.00000000000E+00 0. -1.
         -2   -1    0    0    0  501 -0.00000000000E+00 -0.00000000000E+00 -0.38766212202E+03  0.38766212202E+03  0.00000000000E+00 0.  1.
         23    2    1    2    0    0 -0.20098231462E+03 -0.36179690709E+03 -0.24694872801E+03  0.49251619171E+03  0.10147724901E+03 0.  0.
         13    1    3    3    0    0 -0.97574312057E+02 -0.23789710778E+03 -0.10554681637E+03  0.27794947510E+03  0.00000000000E+00 0. -1.
        -13    1    3    3    0    0 -0.10340800256E+03 -0.12389979931E+03 -0.14140191164E+03  0.21456671661E+03  0.00000000000E+00 0.  1.
         22    1    1    2    0    0  0.20098231462E+03  0.36179690709E+03  0.23704434594E+04  0.24063027838E+04  0.00000000000E+00 0. -1.
<mgrwt>
<rscale>  0 0.19733022E+04</rscale>
<asrwt>0</asrwt>
<pdfrwt beam="1">  1        2 0.38633181E+00 0.19733022E+04</pdfrwt>
<pdfrwt beam="2">  1       -2 0.59640328E-01 0.19733022E+04</pdfrwt>
<totfact> 0.83814809E+00</totfact>
</mgrwt>
</event>
<event>
 6    1  0.1072514E-005  0.2732675E+04  0.7818608E-02  0.8324480E-01
          2   -1    0    0  501    0  0.00000000000E+00  0.00000000000E+00  0.10248215629E+04  0.10248215629E+04  0.00000000000E+00 0.  1.
         -2   -1    0    0    0  501 -0.00000000000E+00 -0.00000000000E+00 -0.18216616966E+04  0.18216616966E+04  0.00000000000E+00 0. -1.
         23    2    1    2    0    0 -0.16094574021E+03  0.11791828329E+04  0.29708158671E+03  0.12299931065E+04  0.90828894951E+02 0.  0.
         13    1    3    3    0    0 -0.24276995998E+02  0.48729118126E+03  0.10544459930E+03  0.49915992567E+03  0.00000000000E+00 0.  1.
        -13    1    3    3    0    0 -0.13666874421E+03  0.69189165160E+03  0.19163698741E+03  0.73083318079E+03  0.00000000000E+00 0. -1.
         22    1    1    2    0    0  0.16094574021E+03 -0.11791828329E+04 -0.10939217204E+04  0.16164901530E+04  0.00000000000E+00 0.  1.
<mgrwt>
<rscale>  0 0.27326750E+04</rscale>
<asrwt>0</asrwt>
<pdfrwt beam="1">  1        2 0.15766486E+00 0.27326750E+04</pdfrwt>
<pdfrwt beam="2">  1       -2 0.28025564E+00 0.27326750E+04</pdfrwt>
<totfact> 0.89154343E-01</totfact>
</mgrwt>
</event>
<event>
 6    1  0.1072514E-005  0.2122234E+04  0.7818608E-02  0.8551512E-01
          2   -1    0    0  501    0  0.00000000000E+00  0.00000000000E+00  0.10312620835E+04  0.10312620835E+04  0.00000000000E+00 0. -1.
         -2   -1    0    0    0  501 -0.00000000000E+00 -0.00000000000E+00 -0.10918362214E+04  0.10918362214E+04  0.00000000000E+00 0.  1.
         23    2    1    2    0    0  0.31223804168E+03 -0.98145085556E+03  0.21678337910E+03  0.10564842374E+04  0.91790707077E+02 0.  0.
         13    1    3    3    0    0  0.75181250867E+02 -0.18528223905E+03  0.88749238464E+01  0.20015117503E+03  0.00000000000E+00 0. -1.
        -13    1    3    3    0    0  0.23705679081E+03 -0.79616861651E+03  0.20790845525E+03  0.85633306239E+03  0.00000000000E+00 0.  1.
         22    1    1    2    0    0 -0.31223804168E+03  0.98145085556E+03 -0.27735751703E+03  0.10666140674E+04  0.00000000000E+00 0.  1.
<mgrwt>
<rscale>  0 0.21222340E+04</rscale>
<asrwt>0</asrwt>
<pdfrwt beam="1">  1        2 0.15865571E+00 0.21222340E+04</pdfrwt>
<pdfrwt beam="2">  1       -2 0.16797480E+00 0.21222340E+04</pdfrwt>
<totfact> 0.48754656E+00</totfact>
</mgrwt>
</event>
<event>
 6    1  0.1072514E-005  0.1280825E+04  0.7818608E-02  0.9044911E-01
         -1   -1    0    0    0  501 -0.00000000000E+00  0.00000000000E+00  0.10499379940E+04  0.10499379940E+04  0.00000000000E+00 0.  1.
          1   -1    0    0  501    0  0.00000000000E+00 -0.00000000000E+00 -0.39062118977E+03  0.39062118977E+03  0.00000000000E+00 0. -1.
         23    2    1    2    0    0  0.31212482614E+03  0.49928220296E+03  0.58088081337E+02  0.59902451274E+03  0.93549539764E+02 0.  0.
         13    1    3    3    0    0  0.21567237663E+03  0.35619895574E+03 -0.16875106364E+01  0.41640739403E+03  0.00000000000E+00 0. -1.
        -13    1    3    3    0    0  0.96452449505E+02  0.14308324722E+03  0.59775591973E+02  0.18261711871E+03  0.00000000000E+00 0.  1.
         22    1    1    2    0    0 -0.31212482614E+03 -0.49928220296E+03  0.60122872285E+03  0.84153467098E+03  0.00000000000E+00 0.  1.
<mgrwt>
<rscale>  0 0.12808248E+04</rscale>
<asrwt>0</asrwt>
<pdfrwt beam="1">  1        1 0.60095568E-01 0.12808248E+04</pdfrwt>
<pdfrwt beam="2">  1       -1 0.16152892E+00 0.12808248E+04</pdfrwt>
<totfact> 0.17337603E+01</totfact>
</mgrwt>
</event>
<event>
 6    1  0.1072514E-005  0.2989026E+04  0.7818608E-02  0.8246871E-01
          1   -1    0    0  501    0  0.00000000000E+00  0.00000000000E+00  0.18037790644E+04  0.18037790644E+04  0.00000000000E+00 0. -1.
         -1   -1    0    0    0  501 -0.00000000000E+00 -0.00000000000E+00 -0.12382723595E+04  0.12382723595E+04  0.00000000000E+00 0.  1.
         23    2    1    2    0    0  0.41588640158E+03  0.51143330325E+03  0.16462934131E+04  0.17761029923E+04  0.98662630223E+02 0.  0.
         11    1    3    3    0    0  0.32439691006E+03  0.45043408342E+03  0.14156556008E+04  0.15205936337E+04  0.00000000000E+00 0.  1.
        -11    1    3    3    0    0  0.91489491524E+02  0.60999219823E+02  0.23063781229E+03  0.25550935860E+03  0.00000000000E+00 0. -1.
         22    1    1    2    0    0 -0.41588640158E+03 -0.51143330325E+03 -0.10807867082E+04  0.12659484315E+04  0.00000000000E+00 0.  1.
<mgrwt>
<rscale>  0 0.29890264E+04</rscale>
<asrwt>0</asrwt>
<pdfrwt beam="1">  1        1 0.27750447E+00 0.29890264E+04</pdfrwt>
<pdfrwt beam="2">  1       -1 0.19050344E+00 0.29890264E+04</pdfrwt>
<totfact> 0.60469927E-01</totfact>
</mgrwt>
</event>
<event>
 6    1  0.1126593E-005  0.3461796E+04  0.7818608E-02  0.8122904E-01
         -2   -1    0    0    0  501 -0.00000000000E+00  0.00000000000E+00  0.25660433750E+04  0.25660433750E+04  0.00000000000E+00 0.  1.
          2   -1    0    0  501    0  0.00000000000E+00 -0.00000000000E+00 -0.11675591434E+04  0.11675591434E+04  0.00000000000E+00 0. -1.
         23    2    1    2    0    0  0.16799228554E+04 -0.36125797939E+03  0.91344639363E+03  0.19481306391E+04  0.90446366513E+02 0.  0.
         11    1    3    3    0    0  0.11268595590E+04 -0.20791721725E+03  0.63813620785E+03  0.13115867698E+04  0.00000000000E+00 0.  1.
        -11    1    3    3    0    0  0.55306329636E+03 -0.15334076214E+03  0.27531018578E+03  0.63654386927E+03  0.00000000000E+00 0. -1.
         22    1    1    2    0    0 -0.16799228554E+04  0.36125797939E+03  0.48503783801E+03  0.17854718793E+04  0.00000000000E+00 0. -1.
<mgrwt>
<rscale>  0 0.34617957E+04</rscale>
<asrwt>0</asrwt>
<pdfrwt beam="1">  1        2 0.17962448E+00 0.34617957E+04</pdfrwt>
<pdfrwt beam="2">  1       -2 0.39477590E+00 0.34617957E+04</pdfrwt>
<totfact> 0.13100546E-01</totfact>
</mgrwt>
</event>
<event>
 6    1  0.1072514E-005  0.2858348E+04  0.7818608E-02  0.8285379E-01
          2   -1    0    0  501    0  0.00000000000E+00  0.00000000000E+00  0.10727007184E+04  0.10727007184E+04  0.00000000000E+00 0. -1.
         -2   -1    0    0    0  501 -0.00000000000E+00 -0.00000000000E+00 -0.19041081103E+04  0.19041081103E+04  0.00000000000E+00 0.  1.
         23    2    1    2    0    0 -0.33128199591E+03 -0.20755339062E+02 -0.18618893840E+04  0.18941862347E+04  0.10550293260E+03 0.  0.
         11    1    3    3    0    0 -0.14669205197E+03  0.58060606922E+01 -0.11025728239E+04  0.11123035109E+04  0.00000000000E+00 0. -1.
        -11    1    3    3    0    0 -0.18458994395E+03 -0.26561399754E+02 -0.75931656006E+03  0.78188272378E+03  0.00000000000E+00 0.  1.
         22    1    1    2    0    0  0.33128199591E+03  0.20755339062E+02  0.10304819921E+04  0.10826225939E+04  0.00000000000E+00 0. -1.
<mgrwt>
<rscale>  0 0.28583479E+04</rscale>
<asrwt>0</asrwt>
<pdfrwt beam="1">  1        2 0.16503088E+00 0.28583479E+04</pdfrwt>
<pdfrwt beam="2">  1       -2 0.29293970E+00 0.28583479E+04</pdfrwt>
<totfact> 0.68871616E-01</totfact>
</mgrwt>
</event>
<event>
 6    1  0.1072514E-005  0.4426760E+04  0.7818608E-02  0.7923586E-01
          2   -1    0    0  501    0  0.00000000000E+00  0.00000000000E+00  0.31708317297E+04  0.31708317297E+04  0.00000000000E+00 0. -1.
         -2   -1    0    0    0  501 -0.00000000000E+00 -0.00000000000E+00 -0.15450363281E+04  0.15450363281E+04  0.00000000000E+00 0.  1.
         23    2    1    2    0    0  0.11115445503E+03 -0.10755430113E+04 -0.12430231285E+04  0.16500455187E+04  0.91627690748E+02 0.  0.
         13    1    3    3    0    0  0.95548434479E+02 -0.80686840275E+03 -0.98914039063E+03  0.12800643871E+04  0.00000000000E+00 0.  1.
        -13    1    3    3    0    0  0.15606020554E+02 -0.26867460855E+03 -0.25388273789E+03  0.36998113162E+03  0.00000000000E+00 0. -1.
         22    1    1    2    0    0 -0.11115445503E+03  0.10755430113E+04  0.28688185302E+04  0.30658225391E+04  0.00000000000E+00 0. -1.
<mgrwt>
<rscale>  0 0.44267596E+04</rscale>
<asrwt>0</asrwt>
<pdfrwt beam="1">  1        2 0.48782026E+00 0.44267596E+04</pdfrwt>
<pdfrwt beam="2">  1       -2 0.23769790E+00 0.44267596E+04</pdfrwt>
<totfact> 0.78973129E-02</totfact>
</mgrwt>
</event>
<event>
 6    1  0.1072514E-005  0.1151337E+04  0.7818608E-02  0.9156551E-01
          1   -1    0    0  501    0  0.00000000000E+00  0.00000000000E+00  0.10304551929E+04  0.10304551929E+04  0.00000000000E+00 0. -1.
         -1   -1    0    0    0  501 -0.00000000000E+00 -0.00000000000E+00 -0.32159996045E+03  0.32159996045E+03  0.00000000000E+00 0.  1.
         23    2    1    2    0    0 -0.15667957841E+03 -0.40246532274E+03  0.79751276111E+03  0.91116176064E+03  0.87534699548E+02 0.  0.
         11    1    3    3    0    0 -0.31376323463E+02 -0.17276409978E+03  0.37706754194E+03  0.41594691852E+03  0.00000000000E+00 0. -1.
        -11    1    3    3    0    0 -0.12530325494E+03 -0.22970122296E+03  0.42044521917E+03  0.49521484212E+03  0.00000000000E+00 0.  1.
         22    1    1    2    0    0  0.15667957841E+03  0.40246532274E+03 -0.88657528697E+02  0.44089339266E+03  0.00000000000E+00 0.  1.
<mgrwt>
<rscale>  0 0.11513372E+04</rscale>
<asrwt>0</asrwt>
<pdfrwt beam="1">  1        1 0.15853157E+00 0.11513372E+04</pdfrwt>
<pdfrwt beam="2">  1       -1 0.49476917E-01 0.11513372E+04</pdfrwt>
<totfact> 0.58246675E+01</totfact>
</mgrwt>
</event>
<event>
 6    1  0.1072514E-005  0.3571057E+04  0.7818608E-02  0.8097154E-01
         -1   -1    0    0    0  501 -0.00000000000E+00  0.00000000000E+00  0.17601659093E+04  0.17601659093E+04  0.00000000000E+00 0.  1.
          1   -1    0    0  501    0  0.00000000000E+00 -0.00000000000E+00 -0.18112564725E+04  0.18112564725E+04  0.00000000000E+00 0. -1.
         23    2    1    2    0    0 -0.89601942701E+03 -0.12597141190E+04  0.86564886362E+03  0.17741628980E+04  0.92604310170E+02 0.  0.
         13    1    3    3    0    0 -0.23166056405E+03 -0.36346548474E+03  0.28215571559E+03  0.51515592142E+03  0.00000000000E+00 0. -1.
        -13    1    3    3    0    0 -0.66435886296E+03 -0.89624863430E+03  0.58349314803E+03  0.12590069766E+04  0.00000000000E+00 0.  1.
         22    1    1    2    0    0  0.89601942701E+03  0.12597141190E+04 -0.91673942690E+03  0.17972594838E+04  0.00000000000E+00 0.  1.
<mgrwt>
<rscale>  0 0.35710569E+04</rscale>
<asrwt>0</asrwt>
<pdfrwt beam="1">  1        1 0.27865484E+00 0.35710569E+04</pdfrwt>
<pdfrwt beam="2">  1       -1 0.27079476E+00 0.35710569E+04</pdfrwt>
<totfact> 0.16575833E-01</totfact>
</mgrwt>
</event>
<event>
 6    1  0.1072514E-005  0.9136723E+03  0.7818608E-02  0.9408650E-01
         -2   -1    0    0    0  501 -0.00000000000E+00  0.00000000000E+00  0.11931526776E+03  0.11931526776E+03  0.00000000000E+00 0.  1.
          2   -1    0    0  501    0  0.00000000000E+00 -0.00000000000E+00 -0.17491413946E+04  0.17491413946E+04  0.00000000000E+00 0. -1.
         23    2    1    2    0    0 -0.22085222059E+03 -0.34762076431E+03 -0.43887768360E+03  0.60830822127E+03  0.88370650015E+02 0.  0.
         13    1    3    3    0    0 -0.12334799365E+03 -0.25303075668E+03 -0.33325109879E+03  0.43622882323E+03  0.00000000000E+00 0.  1.
        -13    1    3    3    0    0 -0.97504226938E+02 -0.94590007632E+02 -0.10562658480E+03  0.17207939805E+03  0.00000000000E+00 0. -1.
         22    1    1    2    0    0  0.22085222059E+03  0.34762076431E+03 -0.11909484433E+04  0.12601484411E+04  0.00000000000E+00 0. -1.
<mgrwt>
<rscale>  0 0.91367231E+03</rscale>
<asrwt>0</asrwt>
<pdfrwt beam="1">  1        2 0.26909866E+00 0.91367231E+03</pdfrwt>
<pdfrwt beam="2">  1       -2 0.18356196E-01 0.91367231E+03</pdfrwt>
<totfact> 0.22973124E+02</totfact>
</mgrwt>
</event>
<event>
 6    1  0.1152920E-005  0.3284639E+04  0.7818608E-02  0.8166815E-01
          1   -1    0    0  501    0  0.00000000000E+00  0.00000000000E+00  0.10919053200E+04  0.10919053200E+04  0.00000000000E+00 0. -1.
         -1   -1    0    0    0  501 -0.00000000000E+00 -0.00000000000E+00 -0.24701893625E+04  0.24701893625E+04  0.00000000000E+00 0.  1.
         23    2    1    2    0    0 -0.72661148804E+03  0.82914923434E+03 -0.20079253750E+04  0.22924880840E+04  0.91019759150E+02 0.  0.
         13    1    3    3    0    0 -0.43185936315E+03  0.49759081360E+03 -0.11063579693E+04  0.12876828350E+04  0.00000000000E+00 0.  1.
        -13    1    3    3    0    0 -0.29475212489E+03  0.33155842074E+03 -0.90156740561E+03  0.10048052490E+04  0.00000000000E+00 0. -1.
         22    1    1    2    0    0  0.72661148804E+03 -0.82914923434E+03  0.62964133249E+03  0.12696065985E+04  0.00000000000E+00 0. -1.
<mgrwt>
<rscale>  0 0.32846387E+04</rscale>
<asrwt>0</asrwt>
<pdfrwt beam="1">  1        1 0.16798543E+00 0.32846387E+04</pdfrwt>
<pdfrwt beam="2">  1       -1 0.38002913E+00 0.32846387E+04</pdfrwt>
<totfact> 0.10438857E-01</totfact>
</mgrwt>
</event>
<event>
 6    1  0.1072514E-005  0.1969012E+04  0.7818608E-02  0.8621247E-01
         -1   -1    0    0    0  501 -0.00000000000E+00  0.00000000000E+00  0.84405096961E+03  0.84405096961E+03  0.00000000000E+00 0.  1.
          1   -1    0    0  501    0  0.00000000000E+00 -0.00000000000E+00 -0.11483340814E+04  0.11483340814E+04  0.00000000000E+00 0. -1.
         23    2    1    2    0    0 -0.73664195416E+03 -0.64990726677E+03 -0.13562049671E+03  0.99565645116E+03  0.88983288156E+02 0.  0.
         13    1    3    3    0    0 -0.12057957531E+03 -0.65636137732E+02 -0.16250635214E+02  0.13824478183E+03  0.00000000000E+00 0.  1.
        -13    1    3    3    0    0 -0.61606237885E+03 -0.58427112904E+03 -0.11936986150E+03  0.85741166933E+03  0.00000000000E+00 0. -1.
         22    1    1    2    0    0  0.73664195416E+03  0.64990726677E+03 -0.16866261508E+03  0.99672859985E+03  0.00000000000E+00 0. -1.
<mgrwt>
<rscale>  0 0.19690124E+04</rscale>
<asrwt>0</asrwt>
<pdfrwt beam="1">  1        1 0.17666678E+00 0.19690124E+04</pdfrwt>
<pdfrwt beam="2">  1       -1 0.12985400E+00 0.19690124E+04</pdfrwt>
<totfact> 0.55189150E+00</totfact>
</mgrwt>
</event>
<event>
 6    1  0.1072514E-005  0.1967360E+04  0.7818608E-02  0.8622035E-01
         -2   -1    0    0    0  501 -0.00000000000E+00  0.00000000000E+00  0.50491140658E+03  0.50491140658E+03  0.00000000000E+00 0. -1.
          2   -1    0    0  501    0  0.00000000000E+00 -0.00000000000E+00 -0.19164277677E+04  0.19164277677E+04  0.00000000000E+00 0.  1.
         23    2    1    2    0    0 -0.78446448502E+03  0.42909404419E+03 -0.12056437435E+04  0.15037936649E+04  0.91171944734E+02 0.  0.
         11    1    3    3    0    0 -0.54584174594E+02  0.56920488847E+02 -0.12255372224E+03  0.14573533889E+03  0.00000000000E+00 0. -1.
        -11    1    3    3    0    0 -0.72988031042E+03  0.37217355535E+03 -0.10830900212E+04  0.13580583260E+04  0.00000000000E+00 0.  1.
         22    1    1    2    0    0  0.78446448502E+03 -0.42909404419E+03 -0.20587261764E+03  0.91754550934E+03  0.00000000000E+00 0. -1.
<mgrwt>
<rscale>  0 0.19673599E+04</rscale>
<asrwt>0</asrwt>
<pdfrwt beam="1">  1        2 0.29483504E+00 0.19673599E+04</pdfrwt>
<pdfrwt beam="2">  1       -2 0.77678678E-01 0.19673599E+04</pdfrwt>
<totfact> 0.10227339E+01</totfact>
</mgrwt>
</event>
<event>
 6    1  0.1072514E-005  0.4465861E+03  0.7818608E-02  0.1028745E+00
          2   -1    0    0  501    0  0.00000000000E+00  0.00000000000E+00  0.41183211626E+03  0.41183211626E+03  0.00000000000E+00 0. -1.
         -2   -1    0    0    0  501 -0.00000000000E+00 -0.00000000000E+00 -0.12106824552E+03  0.12106824552E+03  0.00000000000E+00 0.  1.
         23    2    1    2    0    0 -0.13188615909E+03 -0.12877973229E+03  0.23272053832E+02  0.20804647074E+03  0.93613925735E+02 0.  0.
         13    1    3    3    0    0 -0.22014911850E+02 -0.71212050194E+02 -0.19142173462E+02  0.76956060459E+02  0.00000000000E+00 0. -1.
        -13    1    3    3    0    0 -0.10987124724E+03 -0.57567682098E+02  0.42414227294E+02  0.13109041028E+03  0.00000000000E+00 0.  1.
         22    1    1    2    0    0  0.13188615909E+03  0.12877973229E+03  0.26749181690E+03  0.32485389103E+03  0.00000000000E+00 0. -1.
<mgrwt>
<rscale>  0 0.44658613E+03</rscale>
<asrwt>0</asrwt>
<pdfrwt beam="1">  1        2 0.63358787E-01 0.44658613E+03</pdfrwt>
<pdfrwt beam="2">  1       -2 0.18625884E-01 0.44658613E+03</pdfrwt>
<totfact> 0.18484445E+03</totfact>
</mgrwt>
</event>
<event>
 6    1  0.1072514E-005  0.3454343E+04  0.7818608E-02  0.8124696E-01
          1   -1    0    0  501    0  0.00000000000E+00  0.00000000000E+00  0.99098140104E+03  0.99098140104E+03  0.00000000000E+00 0. -1.
         -1   -1    0    0    0  501 -0.00000000000E+00 -0.00000000000E+00 -0.30102700890E+04  0.30102700890E+04  0.00000000000E+00 0.  1.
         23    2    1    2    0    0 -0.46611479869E+03 -0.14592781805E+04 -0.19314104346E+04  0.24668205202E+04  0.90007768257E+02 0.  0.
         11    1    3    3    0    0 -0.94189558424E+02 -0.20303890131E+03 -0.25813640542E+03  0.34165899983E+03  0.00000000000E+00 0.  1.
        -11    1    3    3    0    0 -0.37192524026E+03 -0.12562392792E+04 -0.16732740292E+04  0.21251615204E+04  0.00000000000E+00 0. -1.
         22    1    1    2    0    0  0.46611479869E+03  0.14592781805E+04 -0.87878253306E+02  0.15344309698E+04  0.00000000000E+00 0. -1.
<mgrwt>
<rscale>  0 0.34543432E+04</rscale>
<asrwt>0</asrwt>
<pdfrwt beam="1">  1        1 0.15245868E+00 0.34543432E+04</pdfrwt>
<pdfrwt beam="2">  1       -1 0.46311847E+00 0.34543432E+04</pdfrwt>
<totfact> 0.33086552E-02</totfact>
</mgrwt>
</event>
<event>
 6    1  0.1072514E-005  0.3050551E+04  0.7818608E-02  0.8229441E-01
          1   -1    0    0  501    0  0.00000000000E+00  0.00000000000E+00  0.29141959005E+04  0.29141959005E+04  0.00000000000E+00 0. -1.
         -1   -1    0    0    0  501 -0.00000000000E+00 -0.00000000000E+00 -0.79832158126E+03  0.79832158126E+03  0.00000000000E+00 0.  1.
         23    2    1    2    0    0  0.97214057657E+03 -0.36537629601E+03 -0.29891712841E+03  0.10838724175E+04  0.82890466411E+02 0.  0.
         11    1    3    3    0    0  0.36269864321E+03 -0.17674867008E+03 -0.13047034842E+03  0.42404352369E+03  0.00000000000E+00 0. -1.
        -11    1    3    3    0    0  0.60944193336E+03 -0.18862762593E+03 -0.16844677999E+03  0.65982889380E+03  0.00000000000E+00 0.  1.
         22    1    1    2    0    0 -0.97214057657E+03  0.36537629601E+03  0.24147914476E+04  0.26286450642E+04  0.00000000000E+00 0. -1.
<mgrwt>
<rscale>  0 0.30505511E+04</rscale>
<asrwt>0</asrwt>
<pdfrwt beam="1">  1        1 0.44833782E+00 0.30505511E+04</pdfrwt>
<pdfrwt beam="2">  1       -1 0.12281871E+00 0.30505511E+04</pdfrwt>
<totfact> 0.34159818E-01</totfact>
</mgrwt>
</event>
<event>
 6    1  0.1072514E-005  0.9164714E+03  0.7818608E-02  0.9405222E-01
         -1   -1    0    0    0  501 -0.00000000000E+00  0.00000000000E+00  0.84186754712E+02  0.84186754712E+02  0.00000000000E+00 0.  1.
          1   -1    0    0  501    0  0.00000000000E+00 -0.00000000000E+00 -0.24942160801E+04  0.24942160801E+04  0.00000000000E+00 0. -1.
         23    2    1    2    0    0  0.35417063342E+02  0.91972099812E+02 -0.24629286105E+04  0.24665477058E+04  0.90149924716E+02 0.  0.
         11    1    3    3    0    0  0.59620832921E+02  0.32682700008E+02 -0.10810233007E+04  0.10831593508E+04  0.00000000000E+00 0. -1.
        -11    1    3    3    0    0 -0.24203769579E+02  0.59289399804E+02 -0.13819053098E+04  0.13833883549E+04  0.00000000000E+00 0.  1.
         22    1    1    2    0    0 -0.35417063342E+02 -0.91972099812E+02  0.52899285132E+02  0.11185512902E+03  0.00000000000E+00 0.  1.
<mgrwt>
<rscale>  0 0.91647140E+03</rscale>
<asrwt>0</asrwt>
<pdfrwt beam="1">  1        1 0.38372553E+00 0.91647140E+03</pdfrwt>
<pdfrwt beam="2">  1       -1 0.12951809E-01 0.91647140E+03</pdfrwt>
<totfact> 0.58457377E+01</totfact>
</mgrwt>
</event>
<event>
 6    1  0.1072514E-005  0.2921028E+04  0.7818608E-02  0.8266648E-01
          1   -1    0    0  501    0  0.00000000000E+00  0.00000000000E+00  0.11917610506E+04  0.11917610506E+04  0.00000000000E+00 0. -1.
         -1   -1    0    0    0  501 -0.00000000000E+00 -0.00000000000E+00 -0.17898733090E+04  0.17898733090E+04  0.00000000000E+00 0.  1.
         23    2    1    2    0    0 -0.78938205006E+03 -0.12267286191E+04 -0.26783255203E+03  0.14859499643E+04  0.91246341486E+02 0.  0.
         13    1    3    3    0    0 -0.25731898724E+03 -0.40054242971E+03 -0.13109580241E+03  0.49379490541E+03  0.00000000000E+00 0.  1.
        -13    1    3    3    0    0 -0.53206306281E+03 -0.82618618934E+03 -0.13673674962E+03  0.99215505893E+03  0.00000000000E+00 0. -1.
         22    1    1    2    0    0  0.78938205006E+03  0.12267286191E+04 -0.33027970636E+03  0.14956843952E+04  0.00000000000E+00 0. -1.
<mgrwt>
<rscale>  0 0.29210281E+04</rscale>
<asrwt>0</asrwt>
<pdfrwt beam="1">  1        1 0.18334785E+00 0.29210281E+04</pdfrwt>
<pdfrwt beam="2">  1       -1 0.27536512E+00 0.29210281E+04</pdfrwt>
<totfact> 0.44273708E-01</totfact>
</mgrwt>
</event>
<event>
 6    1  0.1072514E-005  0.2544200E+04  0.7818608E-02  0.8387406E-01
         -1   -1    0    0    0  501 -0.00000000000E+00  0.00000000000E+00  0.99666293578E+03  0.99666293578E+03  0.00000000000E+00 0.  1.
          1   -1    0    0  501    0  0.00000000000E+00 -0.00000000000E+00 -0.16236563455E+04  0.16236563455E+04  0.00000000000E+00 0. -1.
         23    2    1    2    0    0 -0.10433447773E+04  0.16920096518E+03  0.41202724743E+03  0.11381717796E+04  0.92039428312E+02 0.  0.
         13    1    3    3    0    0 -0.60795603224E+03  0.56288310785E+02  0.21787096493E+03  0.64826435073E+03  0.00000000000E+00 0. -1.
        -13    1    3    3    0    0 -0.43538874502E+03  0.11291265439E+03  0.19415628250E+03  0.48990742885E+03  0.00000000000E+00 0.  1.
         22    1    1    2    0    0  0.10433447773E+04 -0.16920096518E+03 -0.10390206572E+04  0.14821475017E+04  0.00000000000E+00 0. -1.
<mgrwt>
<rscale>  0 0.25441998E+04</rscale>
<asrwt>0</asrwt>
<pdfrwt beam="1">  1        1 0.24979328E+00 0.25441998E+04</pdfrwt>
<pdfrwt beam="2">  1       -1 0.15333276E+00 0.25441998E+04</pdfrwt>
<totfact> 0.15637243E+00</totfact>
</mgrwt>
</event>
<event>
 6    1  0.1072514E-005  0.2266848E+04  0.7818608E-02  0.8491108E-01
          2   -1    0    0  501    0  0.00000000000E+00  0.00000000000E+00  0.34077595741E+04  0.34077595741E+04  0.00000000000E+00 0. -1.
         -2   -1    0    0    0  501 -0.00000000000E+00 -0.00000000000E+00 -0.37697800271E+03  0.37697800271E+03  0.00000000000E+00 0.  1.
         23    2    1    2    0    0  0.11063616413E+04  0.16383102454E+03  0.18058945090E+04  0.21260558708E+04  0.89341493664E+02 0.  0.
         13    1    3    3    0    0  0.29250907562E+03  0.19894201429E+02  0.53477867033E+03  0.60987340064E+03  0.00000000000E+00 0.  1.
        -13    1    3    3    0    0  0.81385256570E+03  0.14393682311E+03  0.12711158386E+04  0.15161824702E+04  0.00000000000E+00 0. -1.
         22    1    1    2    0    0 -0.11063616413E+04 -0.16383102454E+03  0.12248870625E+04  0.16586817060E+04  0.00000000000E+00 0.  1.
<mgrwt>
<rscale>  0 0.22668484E+04</rscale>
<asrwt>0</asrwt>
<pdfrwt beam="1">  1        2 0.52427068E+00 0.22668484E+04</pdfrwt>
<pdfrwt beam="2">  1       -2 0.57996618E-01 0.22668484E+04</pdfrwt>
<totfact> 0.23880904E+00</totfact>
</mgrwt>
</event>
<event>
 6    1  0.1072514E-005  0.2001604E+04  0.7818608E-02  0.8605871E-01
         -1   -1    0    0    0  501 -0.00000000000E+00  0.00000000000E+00  0.30563889140E+03  0.30563889140E+03  0.00000000000E+00 0.  1.
          1   -1    0    0  501    0  0.00000000000E+00 -0.00000000000E+00 -0.32770834753E+04  0.32770834753E+04  0.00000000000E+00 0. -1.
         23    2    1    2    0    0  0.48295213826E+03  0.67498803055E+03 -0.24834039248E+04  0.26198956460E+04  0.87786859729E+02 0.  0.
         13    1    3    3    0    0  0.36625286400E+03  0.44246171827E+03 -0.16956145222E+04  0.17902575626E+04  0.00000000000E+00 0.  1.
        -13    1    3    3    0    0  0.11669927426E+03  0.23252631228E+03 -0.78778940267E+03  0.82963808343E+03  0.00000000000E+00 0. -1.
         22    1    1    2    0    0 -0.48295213826E+03 -0.67498803055E+03 -0.48804065908E+03  0.96282672073E+03  0.00000000000E+00 0.  1.
<mgrwt>
<rscale>  0 0.20016035E+04</rscale>
<asrwt>0</asrwt>
<pdfrwt beam="1">  1        1 0.50416668E+00 0.20016035E+04</pdfrwt>
<pdfrwt beam="2">  1       -1 0.47021369E-01 0.20016035E+04</pdfrwt>
<totfact> 0.15598573E+00</totfact>
</mgrwt>
</event>
<event>
 6    1  0.1072514E-005  0.1244456E+04  0.7818608E-02  0.9074810E-01
         -2   -1    0    0    0  501 -0.00000000000E+00  0.00000000000E+00  0.16229445964E+03  0.16229445964E+03  0.00000000000E+00 0.  1.
          2   -1    0    0  501    0  0.00000000000E+00 -0.00000000000E+00 -0.23855881634E+04  0.23855881634E+04  0.00000000000E+00 0. -1.
         23    2    1    2    0    0  0.42862887472E+03 -0.27526571971E+03 -0.39830567294E+03  0.65313323557E+03  0.91878646135E+02 0.  0.
         11    1    3    3    0    0  0.26483104724E+03 -0.21981584491E+03 -0.25110949068E+03  0.42604045062E+03  0.00000000000E+00 0. -1.
        -11    1    3    3    0    0  0.16379782748E+03 -0.55449874797E+02 -0.14719618227E+03  0.22709278495E+03  0.00000000000E+00 0.  1.
         22    1    1    2    0    0 -0.42862887472E+03  0.27526571971E+03 -0.18249880308E+04  0.18947493874E+04  0.00000000000E+00 0.  1.
<mgrwt>
<rscale>  0 0.12444561E+04</rscale>
<asrwt>0</asrwt>
<pdfrwt beam="1">  1        2 0.36701356E+00 0.12444561E+04</pdfrwt>
<pdfrwt beam="2">  1       -2 0.24968379E-01 0.12444561E+04</pdfrwt>
<totfact> 0.57568506E+01</totfact>
</mgrwt>
</event>
<event>
 6    1  0.1072514E-005  0.1546993E+04  0.7818608E-02  0.8853791E-01
          1   -1    0    0  501    0  0.00000000000E+00  0.00000000000E+00  0.97641194629E+03  0.97641194629E+03  0.00000000000E+00 0. -1.
         -1   -1    0    0    0  501 -0.00000000000E+00 -0.00000000000E+00 -0.61275031512E+03  0.61275031512E+03  0.00000000000E+00 0.  1.
         23    2    1    2    0    0 -0.16118271926E+03 -0.30992107238E+03 -0.52326864627E+03  0.63591714229E+03  0.92464023231E+02 0.  0.
         11    1    3    3    0    0 -0.12120913031E+03 -0.15289218551E+03 -0.33350812671E+03  0.38638755704E+03  0.00000000000E+00 0. -1.
        -11    1    3    3    0    0 -0.39973588949E+02 -0.15702888687E+03 -0.18976051956E+03  0.24952958524E+03  0.00000000000E+00 0.  1.
         22    1    1    2    0    0  0.16118271926E+03  0.30992107238E+03  0.88693027744E+03  0.95324511913E+03  0.00000000000E+00 0. -1.
<mgrwt>
<rscale>  0 0.15469929E+04</rscale>
<asrwt>0</asrwt>
<pdfrwt beam="1">  1        1 0.15021722E+00 0.15469929E+04</pdfrwt>
<pdfrwt beam="2">  1       -1 0.94269279E-01 0.15469929E+04</pdfrwt>
<totfact> 0.16584432E+01</totfact>
</mgrwt>
</event>
<event>
 6    1  0.1072514E-005  0.1897287E+04  0.7818608E-02  0.8656208E-01
         -2   -1    0    0    0  501 -0.00000000000E+00  0.00000000000E+00  0.21890573875E+03  0.21890573875E+03  0.00000000000E+00 0. -1.
          2   -1    0    0  501    0  0.00000000000E+00 -0.00000000000E+00 -0.41110141887E+04  0.41110141887E+04  0.00000000000E+00 0.  1.
         23    2    1    2    0    0 -0.21323425712E+03  0.73183636285E+03 -0.67027498201E+03  0.10191399279E+04  0.91237770124E+02 0.  0.
         13    1    3    3    0    0 -0.15328067956E+03  0.42785657050E+03 -0.44497559637E+03  0.63604991393E+03  0.00000000000E+00 0. -1.
        -13    1    3    3    0    0 -0.59953577560E+02  0.30397979235E+03 -0.22529938563E+03  0.38309001395E+03  0.00000000000E+00 0.  1.
         22    1    1    2    0    0  0.21323425712E+03 -0.73183636285E+03 -0.32218334679E+04  0.33107799996E+04  0.00000000000E+00 0.  1.
<mgrwt>
<rscale>  0 0.18972871E+04</rscale>
<asrwt>0</asrwt>
<pdfrwt beam="1">  1        2 0.63246360E+00 0.18972871E+04</pdfrwt>
<pdfrwt beam="2">  1       -2 0.33677813E-01 0.18972871E+04</pdfrwt>
<totfact> 0.21698841E+00</totfact>
</mgrwt>
</event>
<event>
 6    1  0.1072514E-005  0.1123727E+04  0.7818608E-02  0.9182369E-01
         -2   -1    0    0    0  501 -0.00000000000E+00  0.00000000000E+00  0.25040880186E+03  0.25040880186E+03  0.00000000000E+00 0.  1.
          2   -1    0    0  501    0  0.00000000000E+00 -0.00000000000E+00 -0.12607014852E+04  0.12607014852E+04  0.00000000000E+00 0. -1.
         23    2    1    2    0    0  0.21993241512E+03  0.17174687943E+03  0.14167053847E+03  0.32583119663E+03  0.90709257615E+02 0.  0.
         11    1    3    3    0    0  0.14145858354E+03  0.15217572886E+03  0.74580995743E+02  0.22074942410E+03  0.00000000000E+00 0. -1.
        -11    1    3    3    0    0  0.78473831574E+02  0.19571150565E+02  0.67089542724E+02  0.10508177254E+03  0.00000000000E+00 0.  1.
         22    1    1    2    0    0 -0.21993241512E+03 -0.17174687943E+03 -0.11519632218E+04  0.11852790904E+04  0.00000000000E+00 0. -1.
<mgrwt>
<rscale>  0 0.11237273E+04</rscale>
<asrwt>0</asrwt>
<pdfrwt beam="1">  1        2 0.19395407E+00 0.11237273E+04</pdfrwt>
<pdfrwt beam="2">  1       -2 0.38524431E-01 0.11237273E+04</pdfrwt>
<totfact> 0.10991987E+02</totfact>
</mgrwt>
</event>
<event>
 6    1  0.1072514E-005  0.1099833E+04  0.7818608E-02  0.9205355E-01
         -2   -1    0    0    0  501 -0.00000000000E+00  0.00000000000E+00  0.37026911209E+03  0.37026911209E+03  0.00000000000E+00 0.  1.
          2   -1    0    0  501    0  0.00000000000E+00 -0.00000000000E+00 -0.81672531202E+03  0.81672531202E+03  0.00000000000E+00 0. -1.
         23    2    1    2    0    0 -0.11635567640E+02  0.53585183287E+03 -0.33959273083E+03  0.64046686373E+03  0.87189491798E+02 0.  0.
         13    1    3    3    0    0 -0.44748788491E+02  0.17654763080E+03 -0.11864997477E+03  0.21736912505E+03  0.00000000000E+00 0. -1.
        -13    1    3    3    0    0  0.33113220851E+02  0.35930420207E+03 -0.22094275606E+03  0.42309773868E+03  0.00000000000E+00 0.  1.
         22    1    1    2    0    0  0.11635567640E+02 -0.53585183287E+03 -0.10686346911E+03  0.54652756038E+03  0.00000000000E+00 0.  1.
<mgrwt>
<rscale>  0 0.10998330E+04</rscale>
<asrwt>0</asrwt>
<pdfrwt beam="1">  1        2 0.12565005E+00 0.10998330E+04</pdfrwt>
<pdfrwt beam="2">  1       -2 0.56964479E-01 0.10998330E+04</pdfrwt>
<totfact> 0.96136657E+01</totfact>
</mgrwt>
</event>
<event>
 6    1  0.1072514E-005  0.3129399E+04  0.7818608E-02  0.8207716E-01
          2   -1    0    0  501    0  0.00000000000E+00  0.00000000000E+00  0.33127337693E+04  0.33127337693E+04  0.00000000000E+00 0. -1.
         -2   -1    0    0    0  501 -0.00000000000E+00 -0.00000000000E+00 -0.73905259518E+03  0.73905259518E+03  0.00000000000E+00 0.  1.
         23    2    1    2    0    0  0.92414580364E+03  0.12605437911E+04  0.12449234900E+04  0.20002959066E+04  0.91285826738E+02 0.  0.
         11    1    3    3    0    0  0.21989953614E+03  0.26503106849E+03  0.23446974504E+03  0.41662133238E+03  0.00000000000E+00 0.  1.
        -11    1    3    3    0    0  0.70424626750E+03  0.99551272265E+03  0.10104537450E+04  0.15836745742E+04  0.00000000000E+00 0. -1.
         22    1    1    2    0    0 -0.92414580364E+03 -0.12605437911E+04  0.13287576841E+04  0.20514904579E+04  0.00000000000E+00 0. -1.
<mgrwt>
<rscale>  0 0.31293990E+04</rscale>
<asrwt>0</asrwt>
<pdfrwt beam="1">  1        2 0.50965134E+00 0.31293990E+04</pdfrwt>
<pdfrwt beam="2">  1       -2 0.11370040E+00 0.31293990E+04</pdfrwt>
<totfact> 0.56026982E-01</totfact>
</mgrwt>
</event>
<event>
 6    1  0.1072514E-005  0.1545173E+04  0.7818608E-02  0.8854957E-01
         -1   -1    0    0    0  501 -0.00000000000E+00  0.00000000000E+00  0.28997010691E+03  0.28997010691E+03  0.00000000000E+00 0.  1.
          1   -1    0    0  501    0  0.00000000000E+00 -0.00000000000E+00 -0.20584544253E+04  0.20584544253E+04  0.00000000000E+00 0. -1.
         23    2    1    2    0    0  0.21673942385E+03  0.56366231519E+03 -0.16129728486E+04  0.17248261032E+04  0.93018776146E+02 0.  0.
         13    1    3    3    0    0  0.50847305421E+02  0.59212368090E+02 -0.25661775949E+03  0.26822421123E+03  0.00000000000E+00 0.  1.
        -13    1    3    3    0    0  0.16589211843E+03  0.50444994710E+03 -0.13563550891E+04  0.14566018920E+04  0.00000000000E+00 0. -1.
         22    1    1    2    0    0 -0.21673942385E+03 -0.56366231519E+03 -0.15551146984E+03  0.62359842901E+03  0.00000000000E+00 0.  1.
<mgrwt>
<rscale>  0 0.15451735E+04</rscale>
<asrwt>0</asrwt>
<pdfrwt beam="1">  1        1 0.31668529E+00 0.15451735E+04</pdfrwt>
<pdfrwt beam="2">  1       -1 0.44610786E-01 0.15451735E+04</pdfrwt>
<totfact> 0.13056424E+01</totfact>
</mgrwt>
</event>
<event>
 6    1  0.1072514E-005  0.3044827E+04  0.7818608E-02  0.8231045E-01
         -1   -1    0    0    0  501 -0.00000000000E+00  0.00000000000E+00  0.25267999921E+04  0.25267999921E+04  0.00000000000E+00 0.  1.
          1   -1    0    0  501    0  0.00000000000E+00 -0.00000000000E+00 -0.91726382292E+03  0.91726382292E+03  0.00000000000E+00 0. -1.
         23    2    1    2    0    0 -0.12840994311E+04 -0.58107237090E+03  0.15876350959E+03  0.14213681486E+04  0.92331536936E+02 0.  0.
         11    1    3    3    0    0 -0.99007438032E+03 -0.48041781741E+03  0.99235172637E+02  0.11049417077E+04  0.00000000000E+00 0. -1.
        -11    1    3    3    0    0 -0.29402505076E+03 -0.10065455349E+03  0.59528336951E+02  0.31642644092E+03  0.00000000000E+00 0.  1.
         22    1    1    2    0    0  0.12840994311E+04  0.58107237090E+03  0.14507726596E+04  0.20226956664E+04  0.00000000000E+00 0.  1.
<mgrwt>
<rscale>  0 0.30448266E+04</rscale>
<asrwt>0</asrwt>
<pdfrwt beam="1">  1        1 0.14111751E+00 0.30448266E+04</pdfrwt>
<pdfrwt beam="2">  1       -1 0.38873846E+00 0.30448266E+04</pdfrwt>
<totfact> 0.12740865E-01</totfact>
</mgrwt>
</event>
<event>
 6    1  0.1072514E-005  0.3201964E+04  0.7818608E-02  0.8188299E-01
          2   -1    0    0  501    0  0.00000000000E+00  0.00000000000E+00  0.11115605212E+04  0.11115605212E+04  0.00000000000E+00 0. -1.
         -2   -1    0    0    0  501 -0.00000000000E+00 -0.00000000000E+00 -0.23058965152E+04  0.23058965152E+04  0.00000000000E+00 0.  1.
         23    2    1    2    0    0  0.11696612015E+04 -0.78433222764E+03 -0.14074306871E+04  0.19931348403E+04  0.91874822245E+02 0.  0.
         13    1    3    3    0    0  0.37077472869E+03 -0.29549460405E+03 -0.44613152145E+03  0.65101789137E+03  0.00000000000E+00 0. -1.
        -13    1    3    3    0    0  0.79888647284E+03 -0.48883762359E+03 -0.96129916570E+03  0.13421169490E+04  0.00000000000E+00 0.  1.
         22    1    1    2    0    0 -0.11696612015E+04  0.78433222764E+03  0.21309469316E+03  0.14243221960E+04  0.00000000000E+00 0. -1.
<mgrwt>
<rscale>  0 0.32019641E+04</rscale>
<asrwt>0</asrwt>
<pdfrwt beam="1">  1        2 0.17100931E+00 0.32019641E+04</pdfrwt>
<pdfrwt beam="2">  1       -2 0.35475331E+00 0.32019641E+04</pdfrwt>
<totfact> 0.26185463E-01</totfact>
</mgrwt>
</event>
<event>
 6    1  0.1072514E-005  0.3860124E+04  0.7818608E-02  0.8033374E-01
          2   -1    0    0  501    0  0.00000000000E+00  0.00000000000E+00  0.31722480964E+04  0.31722480964E+04  0.00000000000E+00 0. -1.
         -2   -1    0    0    0  501 -0.00000000000E+00 -0.00000000000E+00 -0.11742902879E+04  0.11742902879E+04  0.00000000000E+00 0.  1.
         23    2    1    2    0    0 -0.17557717039E+03 -0.71178870429E+03  0.30086680844E+04  0.30979368610E+04  0.87513714218E+02 0.  0.
         13    1    3    3    0    0 -0.62219530418E+02 -0.14090679404E+03  0.53611255029E+03  0.55780163244E+03  0.00000000000E+00 0.  1.
        -13    1    3    3    0    0 -0.11335763997E+03 -0.57088191025E+03  0.24725555341E+04  0.25401352286E+04  0.00000000000E+00 0. -1.
         22    1    1    2    0    0  0.17557717039E+03  0.71178870429E+03 -0.10107102759E+04  0.12486015233E+04  0.00000000000E+00 0.  1.
<mgrwt>
<rscale>  0 0.38601244E+04</rscale>
<asrwt>0</asrwt>
<pdfrwt beam="1">  1        2 0.48803817E+00 0.38601244E+04</pdfrwt>
<pdfrwt beam="2">  1       -2 0.18066004E+00 0.38601244E+04</pdfrwt>
<totfact> 0.19335261E-01</totfact>
</mgrwt>
</event>
<event>
 6    1  0.1072514E-005  0.1416551E+04  0.7818608E-02  0.8941924E-01
         -2   -1    0    0    0  501 -0.00000000000E+00  0.00000000000E+00  0.24241861746E+03  0.24241861746E+03  0.00000000000E+00 0.  1.
          2   -1    0    0  501    0  0.00000000000E+00 -0.00000000000E+00 -0.20693729781E+04  0.20693729781E+04  0.00000000000E+00 0. -1.
         23    2    1    2    0    0  0.36416623615E+03  0.51127274650E+03 -0.39228885635E+03  0.74581522982E+03  0.91284945855E+02 0.  0.
         11    1    3    3    0    0  0.15264682057E+03  0.15027725035E+03 -0.15903920752E+03  0.26679162905E+03  0.00000000000E+00 0.  1.
        -11    1    3    3    0    0  0.21151941559E+03  0.36099549615E+03 -0.23324964883E+03  0.47902360077E+03  0.00000000000E+00 0. -1.
         22    1    1    2    0    0 -0.36416623615E+03 -0.51127274650E+03 -0.14346655043E+04  0.15659763658E+04  0.00000000000E+00 0. -1.
<mgrwt>
<rscale>  0 0.14165515E+04</rscale>
<asrwt>0</asrwt>
<pdfrwt beam="1">  1        2 0.31836507E+00 0.14165515E+04</pdfrwt>
<pdfrwt beam="2">  1       -2 0.37295172E-01 0.14165515E+04</pdfrwt>
<totfact> 0.40311196E+01</totfact>
</mgrwt>
</event>
<event>
 6    1  0.1072514E-005  0.3924776E+04  0.7818608E-02  0.8019896E-01
         -2   -1    0    0    0  501 -0.00000000000E+00  0.00000000000E+00  0.11400300126E+04  0.11400300126E+04  0.00000000000E+00 0.  1.
          2   -1    0    0  501    0  0.00000000000E+00 -0.00000000000E+00 -0.33779518268E+04  0.33779518268E+04  0.00000000000E+00 0. -1.
         23    2    1    2    0    0  0.46686104649E+03  0.13409771619E+04 -0.26770058813E+04  0.30317201521E+04  0.93742235642E+02 0.  0.
         13    1    3    3    0    0  0.32905927113E+03  0.83888418948E+03 -0.17569969991E+04  0.19745999955E+04  0.00000000000E+00 0. -1.
        -13    1    3    3    0    0  0.13780177535E+03  0.50209297239E+03 -0.92000888213E+03  0.10571201566E+04  0.00000000000E+00 0.  1.
         22    1    1    2    0    0 -0.46686104649E+03 -0.13409771619E+04  0.43908406698E+03  0.14862616873E+04  0.00000000000E+00 0.  1.
<mgrwt>
<rscale>  0 0.39247759E+04</rscale>
<asrwt>0</asrwt>
<pdfrwt beam="1">  1        2 0.51968489E+00 0.39247759E+04</pdfrwt>
<pdfrwt beam="2">  1       -2 0.17538924E+00 0.39247759E+04</pdfrwt>
<totfact> 0.15272048E-01</totfact>
</mgrwt>
</event>
<event>
 6    1  0.1072514E-005  0.1116105E+04  0.7818608E-02  0.9189635E-01
         -1   -1    0    0    0  501 -0.00000000000E+00  0.00000000000E+00  0.68691182112E+03  0.68691182112E+03  0.00000000000E+00 0.  1.
          1   -1    0    0  501    0  0.00000000000E+00 -0.00000000000E+00 -0.45336634733E+03  0.45336634733E+03  0.00000000000E+00 0. -1.
         23    2    1    2    0    0 -0.24590439447E+03  0.44371374834E+03  0.34561987693E+03  0.62074806006E+03  0.92326556586E+02 0.  0.
         11    1    3    3    0    0 -0.53331683605E+02  0.16218832387E+03  0.15169054611E+03  0.22838419966E+03  0.00000000000E+00 0.  1.
        -11    1    3    3    0    0 -0.19257271086E+03  0.28152542447E+03  0.19392933082E+03  0.39236386040E+03  0.00000000000E+00 0. -1.
         22    1    1    2    0    0  0.24590439447E+03 -0.44371374834E+03 -0.11207440314E+03  0.51953010839E+03  0.00000000000E+00 0. -1.
<mgrwt>
<rscale>  0 0.11161052E+04</rscale>
<asrwt>0</asrwt>
<pdfrwt beam="1">  1        1 0.69748669E-01 0.11161052E+04</pdfrwt>
<pdfrwt beam="2">  1       -1 0.10567874E+00 0.11161052E+04</pdfrwt>
<totfact> 0.42338244E+01</totfact>
</mgrwt>
</event>
<event>
 6    1  0.1072514E-005  0.2610413E+04  0.7818608E-02  0.8364673E-01
         -1   -1    0    0    0  501 -0.00000000000E+00  0.00000000000E+00  0.69854961063E+03  0.69854961063E+03  0.00000000000E+00 0.  1.
          1   -1    0    0  501    0  0.00000000000E+00 -0.00000000000E+00 -0.24387160217E+04  0.24387160217E+04  0.00000000000E+00 0. -1.
         23    2    1    2    0    0 -0.11246565797E+04  0.62056676625E+03 -0.11375671861E+04  0.17184346489E+04  0.94884172833E+02 0.  0.
         13    1    3    3    0    0 -0.48125072216E+03  0.21293387268E+03 -0.45510261876E+03  0.69574527330E+03  0.00000000000E+00 0. -1.
        -13    1    3    3    0    0 -0.64340585750E+03  0.40763289358E+03 -0.68246456731E+03  0.10226893756E+04  0.00000000000E+00 0.  1.
         22    1    1    2    0    0  0.11246565797E+04 -0.62056676625E+03 -0.60259922501E+03  0.14188309834E+04  0.00000000000E+00 0.  1.
<mgrwt>
<rscale>  0 0.26104131E+04</rscale>
<asrwt>0</asrwt>
<pdfrwt beam="1">  1        1 0.37518708E+00 0.26104131E+04</pdfrwt>
<pdfrwt beam="2">  1       -1 0.10746917E+00 0.26104131E+04</pdfrwt>
<totfact> 0.10594417E+00</totfact>
</mgrwt>
</event>
<event>
 6    1  0.1072514E-005  0.1019551E+04  0.7818608E-02  0.9287358E-01
          2   -1    0    0  501    0  0.00000000000E+00  0.00000000000E+00  0.62157817315E+03  0.62157817315E+03  0.00000000000E+00 0. -1.
         -2   -1    0    0    0  501 -0.00000000000E+00 -0.00000000000E+00 -0.41808281409E+03  0.41808281409E+03  0.00000000000E+00 0.  1.
         23    2    1    2    0    0  0.28267812161E+03 -0.16562392994E+03 -0.29008203484E+03  0.44724487471E+03  0.92423938537E+02 0.  0.
         11    1    3    3    0    0  0.62290205193E+02 -0.31696468460E+01 -0.28478934503E+02  0.68565049657E+02  0.00000000000E+00 0.  1.
        -11    1    3    3    0    0  0.22038791642E+03 -0.16245428310E+03 -0.26160310034E+03  0.37867982506E+03  0.00000000000E+00 0. -1.
         22    1    1    2    0    0 -0.28267812161E+03  0.16562392994E+03  0.49357739390E+03  0.59241611252E+03  0.00000000000E+00 0. -1.
<mgrwt>
<rscale>  0 0.10195512E+04</rscale>
<asrwt>0</asrwt>
<pdfrwt beam="1">  1        2 0.95627411E-01 0.10195512E+04</pdfrwt>
<pdfrwt beam="2">  1       -2 0.64320433E-01 0.10195512E+04</pdfrwt>
<totfact> 0.10587735E+02</totfact>
</mgrwt>
</event>
<event>
 6    1  0.1072514E-005  0.1192246E+04  0.7818608E-02  0.9119670E-01
         -1   -1    0    0    0  501 -0.00000000000E+00  0.00000000000E+00  0.32102474765E+03  0.32102474765E+03  0.00000000000E+00 0.  1.
          1   -1    0    0  501    0  0.00000000000E+00 -0.00000000000E+00 -0.11069639903E+04  0.11069639903E+04  0.00000000000E+00 0. -1.
         23    2    1    2    0    0  0.24424256799E+03  0.51162057985E+03 -0.60161235251E+03  0.83184575831E+03  0.92843379820E+02 0.  0.
         13    1    3    3    0    0  0.19252592449E+02  0.22102975461E+02 -0.83746092859E+01  0.30485044217E+02  0.00000000000E+00 0.  1.
        -13    1    3    3    0    0  0.22498997554E+03  0.48951760438E+03 -0.59323774323E+03  0.80136071409E+03  0.00000000000E+00 0. -1.
         22    1    1    2    0    0 -0.24424256799E+03 -0.51162057985E+03 -0.18432689012E+03  0.59614297963E+03  0.00000000000E+00 0.  1.
<mgrwt>
<rscale>  0 0.11922463E+04</rscale>
<asrwt>0</asrwt>
<pdfrwt beam="1">  1        1 0.17030215E+00 0.11922463E+04</pdfrwt>
<pdfrwt beam="2">  1       -1 0.49388423E-01 0.11922463E+04</pdfrwt>
<totfact> 0.50955193E+01</totfact>
</mgrwt>
</event>
<event>
 6    1  0.1072514E-005  0.2067975E+04  0.7818608E-02  0.8575483E-01
         -1   -1    0    0    0  501 -0.00000000000E+00  0.00000000000E+00  0.49402066656E+03  0.49402066656E+03  0.00000000000E+00 0.  1.
          1   -1    0    0  501    0  0.00000000000E+00 -0.00000000000E+00 -0.21641405111E+04  0.21641405111E+04  0.00000000000E+00 0. -1.
         23    2    1    2    0    0 -0.78174905510E+03  0.52540413299E+03 -0.29471873341E+03  0.99115508750E+03  0.91368416554E+02 0.  0.
         13    1    3    3    0    0 -0.50636204210E+03  0.29512484773E+03 -0.20744081526E+03  0.62171768936E+03  0.00000000000E+00 0. -1.
        -13    1    3    3    0    0 -0.27538701300E+03  0.23027928526E+03 -0.87277918151E+02  0.36943739814E+03  0.00000000000E+00 0.  1.
         22    1    1    2    0    0  0.78174905510E+03 -0.52540413299E+03 -0.13754011111E+04  0.16670060901E+04  0.00000000000E+00 0.  1.
<mgrwt>
<rscale>  0 0.20679750E+04</rscale>
<asrwt>0</asrwt>
<pdfrwt beam="1">  1        1 0.33294470E+00 0.20679750E+04</pdfrwt>
<pdfrwt beam="2">  1       -1 0.76003179E-01 0.20679750E+04</pdfrwt>
<totfact> 0.36954698E+00</totfact>
</mgrwt>
</event>
<event>
 6    1  0.1072514E-005  0.4850832E+04  0.7818608E-02  0.7851939E-01
          2   -1    0    0  501    0  0.00000000000E+00  0.00000000000E+00  0.19245510507E+04  0.19245510507E+04  0.00000000000E+00 0.  1.
         -2   -1    0    0    0  501 -0.00000000000E+00 -0.00000000000E+00 -0.30566311546E+04  0.30566311546E+04  0.00000000000E+00 0. -1.
         23    2    1    2    0    0  0.19686760628E+04  0.49190424549E+03  0.79655321983E+03  0.21816676537E+04  0.86726538470E+02 0.  0.
         13    1    3    3    0    0  0.99135232846E+03  0.29178363268E+03  0.39762414138E+03  0.11072588158E+04  0.00000000000E+00 0.  1.
        -13    1    3    3    0    0  0.97732373430E+03  0.20012061281E+03  0.39892907845E+03  0.10744088379E+04  0.00000000000E+00 0. -1.
         22    1    1    2    0    0 -0.19686760628E+04 -0.49190424549E+03 -0.19286333237E+04  0.27995145515E+04  0.00000000000E+00 0. -1.
<mgrwt>
<rscale>  0 0.48508320E+04</rscale>
<asrwt>0</asrwt>
<pdfrwt beam="1">  1        2 0.29608478E+00 0.48508320E+04</pdfrwt>
<pdfrwt beam="2">  1       -2 0.47025095E+00 0.48508320E+04</pdfrwt>
<totfact> 0.13897742E-02</totfact>
</mgrwt>
</event>
<event>
 6    1  0.1072514E-005  0.1362527E+04  0.7818608E-02  0.8981399E-01
          2   -1    0    0  501    0  0.00000000000E+00  0.00000000000E+00  0.11735135569E+04  0.11735135569E+04  0.00000000000E+00 0. -1.
         -2   -1    0    0    0  501 -0.00000000000E+00 -0.00000000000E+00 -0.39549626569E+03  0.39549626569E+03  0.00000000000E+00 0.  1.
         23    2    1    2    0    0 -0.22679119830E+03 -0.58645321555E+02 -0.34324027417E+03  0.42354395697E+03  0.81866209813E+02 0.  0.
         13    1    3    3    0    0 -0.19501427206E+03 -0.46133884295E+02 -0.22897106261E+03  0.30428054342E+03  0.00000000000E+00 0. -1.
        -13    1    3    3    0    0 -0.31776926240E+02 -0.12511437260E+02 -0.11426921155E+03  0.11926341355E+03  0.00000000000E+00 0.  1.
         22    1    1    2    0    0  0.22679119830E+03  0.58645321555E+02  0.11212575654E+04  0.11454658656E+04  0.00000000000E+00 0. -1.
<mgrwt>
<rscale>  0 0.13625274E+04</rscale>
<asrwt>0</asrwt>
<pdfrwt beam="1">  1        2 0.18054055E+00 0.13625274E+04</pdfrwt>
<pdfrwt beam="2">  1       -2 0.60845580E-01 0.13625274E+04</pdfrwt>
<totfact> 0.48209732E+01</totfact>
</mgrwt>
</event>
<event>
 6    1  0.1072514E-005  0.1163351E+04  0.7818608E-02  0.9145555E-01
          1   -1    0    0  501    0  0.00000000000E+00  0.00000000000E+00  0.37178152853E+03  0.37178152853E+03  0.00000000000E+00 0. -1.
         -1   -1    0    0    0  501 -0.00000000000E+00 -0.00000000000E+00 -0.91006709518E+03  0.91006709518E+03  0.00000000000E+00 0.  1.
         23    2    1    2    0    0 -0.15454663417E+03 -0.47046260763E+03  0.57421873738E+02  0.50719574542E+03  0.93437279870E+02 0.  0.
         11    1    3    3    0    0 -0.13363185816E+02 -0.51381956243E+02 -0.22756621776E+02  0.57762825391E+02  0.00000000000E+00 0.  1.
        -11    1    3    3    0    0 -0.14118344836E+03 -0.41908065139E+03  0.80178495513E+02  0.44943292002E+03  0.00000000000E+00 0. -1.
         22    1    1    2    0    0  0.15454663417E+03  0.47046260763E+03 -0.59570744039E+03  0.77465287829E+03  0.00000000000E+00 0. -1.
<mgrwt>
<rscale>  0 0.11633506E+04</rscale>
<asrwt>0</asrwt>
<pdfrwt beam="1">  1        1 0.57197159E-01 0.11633506E+04</pdfrwt>
<pdfrwt beam="2">  1       -1 0.14001032E+00 0.11633506E+04</pdfrwt>
<totfact> 0.27501921E+01</totfact>
</mgrwt>
</event>
<event>
 6    1  0.1072514E-005  0.1873428E+04  0.7818608E-02  0.8668197E-01
         -1   -1    0    0    0  501 -0.00000000000E+00  0.00000000000E+00  0.48837125190E+03  0.48837125190E+03  0.00000000000E+00 0.  1.
          1   -1    0    0  501    0  0.00000000000E+00 -0.00000000000E+00 -0.17966509426E+04  0.17966509426E+04  0.00000000000E+00 0. -1.
         23    2    1    2    0    0 -0.88633900640E+03 -0.41714263762E+01 -0.29520341181E+03  0.93893981149E+03  0.94067423643E+02 0.  0.
         11    1    3    3    0    0 -0.21998970619E+03  0.39653083389E+02 -0.73023334278E+02  0.23516004167E+03  0.00000000000E+00 0. -1.
        -11    1    3    3    0    0 -0.66634930021E+03 -0.43824509765E+02 -0.22218007754E+03  0.70377976982E+03  0.00000000000E+00 0.  1.
         22    1    1    2    0    0  0.88633900640E+03  0.41714263762E+01 -0.10130762789E+04  0.13460823831E+04  0.00000000000E+00 0.  1.
<mgrwt>
<rscale>  0 0.18734275E+04</rscale>
<asrwt>0</asrwt>
<pdfrwt beam="1">  1        1 0.27640784E+00 0.18734275E+04</pdfrwt>
<pdfrwt beam="2">  1       -1 0.75134038E-01 0.18734275E+04</pdfrwt>
<totfact> 0.68401415E+00</totfact>
</mgrwt>
</event>
<event>
 6    1  0.1072514E-005  0.2653549E+04  0.7818608E-02  0.8350236E-01
         -2   -1    0    0    0  501 -0.00000000000E+00  0.00000000000E+00  0.48139779737E+03  0.48139779737E+03  0.00000000000E+00 0.  1.
          2   -1    0    0  501    0  0.00000000000E+00 -0.00000000000E+00 -0.36567064508E+04  0.36567064508E+04  0.00000000000E+00 0. -1.
         23    2    1    2    0    0  0.23354243013E+03 -0.11998634345E+04 -0.23898197681E+04  0.26851048962E+04  0.65844143615E+02 0.  0.
         11    1    3    3    0    0  0.99153658818E+02 -0.43463630484E+03 -0.93411187565E+03  0.10350387248E+04  0.00000000000E+00 0.  1.
        -11    1    3    3    0    0  0.13438877131E+03 -0.76522712962E+03 -0.14557078925E+04  0.16500661714E+04  0.00000000000E+00 0. -1.
         22    1    1    2    0    0 -0.23354243013E+03  0.11998634345E+04 -0.78548888531E+03  0.14529993520E+04  0.00000000000E+00 0.  1.
<mgrwt>
<rscale>  0 0.26535489E+04</rscale>
<asrwt>0</asrwt>
<pdfrwt beam="1">  1        2 0.56257023E+00 0.26535489E+04</pdfrwt>
<pdfrwt beam="2">  1       -2 0.74061199E-01 0.26535489E+04</pdfrwt>
<totfact> 0.90892723E-01</totfact>
</mgrwt>
</event>
<event>
 6    1  0.1072514E-005  0.1707011E+04  0.7818608E-02  0.8757376E-01
         -2   -1    0    0    0  501 -0.00000000000E+00  0.00000000000E+00  0.65499205801E+03  0.65499205801E+03  0.00000000000E+00 0. -1.
          2   -1    0    0  501    0  0.00000000000E+00 -0.00000000000E+00 -0.11121837743E+04  0.11121837743E+04  0.00000000000E+00 0.  1.
         23    2    1    2    0    0 -0.44711232610E+03 -0.31396876671E+03 -0.90485788833E+03  0.10608537951E+04  0.90316985974E+02 0.  0.
         11    1    3    3    0    0 -0.18376894768E+03 -0.18404771338E+03 -0.42054392256E+03  0.49447121022E+03  0.00000000000E+00 0.  1.
        -11    1    3    3    0    0 -0.26334337842E+03 -0.12992105333E+03 -0.48431396577E+03  0.56638258492E+03  0.00000000000E+00 0. -1.
         22    1    1    2    0    0  0.44711232610E+03  0.31396876671E+03  0.44766617203E+03  0.70632203718E+03  0.00000000000E+00 0. -1.
<mgrwt>
<rscale>  0 0.17070109E+04</rscale>
<asrwt>0</asrwt>
<pdfrwt beam="1">  1        2 0.17110519E+00 0.17070109E+04</pdfrwt>
<pdfrwt beam="2">  1       -2 0.10076801E+00 0.17070109E+04</pdfrwt>
<totfact> 0.16520448E+01</totfact>
</mgrwt>
</event>
<event>
 6    1  0.1072514E-005  0.2207411E+04  0.7818608E-02  0.8515350E-01
          2   -1    0    0  501    0  0.00000000000E+00  0.00000000000E+00  0.12327534173E+04  0.12327534173E+04  0.00000000000E+00 0. -1.
         -2   -1    0    0    0  501 -0.00000000000E+00 -0.00000000000E+00 -0.98816682714E+03  0.98816682714E+03  0.00000000000E+00 0.  1.
         23    2    1    2    0    0  0.26087936101E+03 -0.61028659342E+03 -0.76247390957E+03  0.10148196611E+04  0.89357230167E+02 0.  0.
         13    1    3    3    0    0  0.22752356880E+03 -0.43719174230E+03 -0.57964547409E+03  0.76084983376E+03  0.00000000000E+00 0.  1.
        -13    1    3    3    0    0  0.33355792204E+02 -0.17309485112E+03 -0.18282843548E+03  0.25396982729E+03  0.00000000000E+00 0. -1.
         22    1    1    2    0    0 -0.26087936101E+03  0.61028659342E+03  0.10070604997E+04  0.12061005834E+04  0.00000000000E+00 0. -1.
<mgrwt>
<rscale>  0 0.22074112E+04</rscale>
<asrwt>0</asrwt>
<pdfrwt beam="1">  1        2 0.18965437E+00 0.22074112E+04</pdfrwt>
<pdfrwt beam="2">  1       -2 0.15202567E+00 0.22074112E+04</pdfrwt>
<totfact> 0.47830088E+00</totfact>
</mgrwt>
</event>
<event>
 6    1  0.1072514E-005  0.2707141E+04  0.7818608E-02  0.8332692E-01
         -2   -1    0    0    0  501 -0.00000000000E+00  0.00000000000E+00  0.11107417371E+04  0.11107417371E+04  0.00000000000E+00 0.  1.
          2   -1    0    0  501    0  0.00000000000E+00 -0.00000000000E+00 -0.16494862360E+04  0.16494862360E+04  0.00000000000E+00 0. -1.
         23    2    1    2    0    0  0.11619452713E+04 -0.16385612454E+03 -0.95443768799E+03  0.15153318046E+04  0.91178586156E+02 0.  0.
         13    1    3    3    0    0  0.62033153910E+03 -0.41732053639E+02 -0.50991639189E+03  0.80409421676E+03  0.00000000000E+00 0. -1.
        -13    1    3    3    0    0  0.54161373221E+03 -0.12212407090E+03 -0.44452129610E+03  0.71123758780E+03  0.00000000000E+00 0.  1.
         22    1    1    2    0    0 -0.11619452713E+04  0.16385612454E+03  0.41569318910E+03  0.12448961686E+04  0.00000000000E+00 0.  1.
<mgrwt>
<rscale>  0 0.27071411E+04</rscale>
<asrwt>0</asrwt>
<pdfrwt beam="1">  1        2 0.25376711E+00 0.27071411E+04</pdfrwt>
<pdfrwt beam="2">  1       -2 0.17088334E+00 0.27071411E+04</pdfrwt>
<totfact> 0.19276262E+00</totfact>
</mgrwt>
</event>
<event>
 6    1  0.1072514E-005  0.2912749E+04  0.7818608E-02  0.8269094E-01
          2   -1    0    0  501    0  0.00000000000E+00  0.00000000000E+00  0.55255966367E+03  0.55255966367E+03  0.00000000000E+00 0. -1.
         -2   -1    0    0    0  501 -0.00000000000E+00 -0.00000000000E+00 -0.38385483987E+04  0.38385483987E+04  0.00000000000E+00 0.  1.
         23    2    1    2    0    0 -0.13014048525E+04  0.44532998097E+02 -0.66649074987E+03  0.14658033821E+04  0.93444407578E+02 0.  0.
         13    1    3    3    0    0 -0.62811401689E+03 -0.18948715061E+02 -0.29478806740E+03  0.69410826007E+03  0.00000000000E+00 0.  1.
        -13    1    3    3    0    0 -0.67329083561E+03  0.63481713158E+02 -0.37170268247E+03  0.77169512204E+03  0.00000000000E+00 0. -1.
         22    1    1    2    0    0  0.13014048525E+04 -0.44532998097E+02 -0.26194979852E+04  0.29253046803E+04  0.00000000000E+00 0.  1.
<mgrwt>
<rscale>  0 0.29127492E+04</rscale>
<asrwt>0</asrwt>
<pdfrwt beam="1">  1        2 0.85009180E-01 0.29127492E+04</pdfrwt>
<pdfrwt beam="2">  1       -2 0.59054590E+00 0.29127492E+04</pdfrwt>
<totfact> 0.25826749E-02</totfact>
</mgrwt>
</event>
<event>
 6    1  0.1072514E-005  0.2293768E+04  0.7818608E-02  0.8480382E-01
          1   -1    0    0  501    0  0.00000000000E+00  0.00000000000E+00  0.17911007080E+04  0.17911007080E+04  0.00000000000E+00 0. -1.
         -1   -1    0    0    0  501 -0.00000000000E+00 -0.00000000000E+00 -0.73437671610E+03  0.73437671610E+03  0.00000000000E+00 0.  1.
         23    2    1    2    0    0 -0.76674708985E+02 -0.11065833965E+04  0.21677727867E+03  0.11341053295E+04  0.93790647700E+02 0.  0.
         11    1    3    3    0    0 -0.45184537849E+01 -0.62736916338E+03  0.96244248207E+02  0.63472469535E+03  0.00000000000E+00 0.  1.
        -11    1    3    3    0    0 -0.72156255200E+02 -0.47921423311E+03  0.12053303046E+03  0.49938063419E+03  0.00000000000E+00 0. -1.
         22    1    1    2    0    0  0.76674708985E+02  0.11065833965E+04  0.83994671319E+03  0.13913720945E+04  0.00000000000E+00 0.  1.
<mgrwt>
<rscale>  0 0.22937678E+04</rscale>
<asrwt>0</asrwt>
<pdfrwt beam="1">  1        1 0.27555396E+00 0.22937678E+04</pdfrwt>
<pdfrwt beam="2">  1       -1 0.11298103E+00 0.22937678E+04</pdfrwt>
<totfact> 0.26753503E+00</totfact>
</mgrwt>
</event>
<event>
 6    1  0.1072514E-005  0.1476227E+04  0.7818608E-02  0.8900418E-01
          1   -1    0    0  501    0  0.00000000000E+00  0.00000000000E+00  0.14214872264E+04  0.14214872264E+04  0.00000000000E+00 0. -1.
         -1   -1    0    0    0  501 -0.00000000000E+00 -0.00000000000E+00 -0.38326848352E+03  0.38326848352E+03  0.00000000000E+00 0.  1.
         23    2    1    2    0    0 -0.38461111335E+03 -0.29720119609E+03  0.11956821572E+04  0.12938261783E+04  0.89867118792E+02 0.  0.
         11    1    3    3    0    0 -0.24407403762E+03 -0.13688427834E+03  0.72405767697E+03  0.77625315528E+03  0.00000000000E+00 0. -1.
        -11    1    3    3    0    0 -0.14053707573E+03 -0.16031691774E+03  0.47162448023E+03  0.51757302298E+03  0.00000000000E+00 0.  1.
         22    1    1    2    0    0  0.38461111335E+03  0.29720119609E+03 -0.15746341432E+03  0.51092953166E+03  0.00000000000E+00 0.  1.
<mgrwt>
<rscale>  0 0.14762266E+04</rscale>
<asrwt>0</asrwt>
<pdfrwt beam="1">  1        1 0.21869034E+00 0.14762266E+04</pdfrwt>
<pdfrwt beam="2">  1       -1 0.58964383E-01 0.14762266E+04</pdfrwt>
<totfact> 0.20965208E+01</totfact>
</mgrwt>
</event>
<event>
 6    1  0.1072514E-005  0.3097144E+04  0.7818608E-02  0.8216522E-01
         -1   -1    0    0    0  501 -0.00000000000E+00  0.00000000000E+00  0.12227664301E+04  0.12227664301E+04  0.00000000000E+00 0.  1.
          1   -1    0    0  501    0  0.00000000000E+00 -0.00000000000E+00 -0.19611885200E+04  0.19611885200E+04  0.00000000000E+00 0. -1.
         23    2    1    2    0    0  0.12300179400E+04 -0.64012697394E+03 -0.10753147699E+04  0.17569989755E+04  0.89648591740E+02 0.  0.
         13    1    3    3    0    0  0.53171740159E+03 -0.30935853926E+03 -0.51956795940E+03  0.80521858237E+03  0.00000000000E+00 0. -1.
        -13    1    3    3    0    0  0.69830053845E+03 -0.33076843467E+03 -0.55574681051E+03  0.95178039314E+03  0.00000000000E+00 0.  1.
         22    1    1    2    0    0 -0.12300179400E+04  0.64012697394E+03  0.33689268007E+03  0.14269559746E+04  0.00000000000E+00 0.  1.
<mgrwt>
<rscale>  0 0.30971442E+04</rscale>
<asrwt>0</asrwt>
<pdfrwt beam="1">  1        1 0.30172131E+00 0.30971442E+04</pdfrwt>
<pdfrwt beam="2">  1       -1 0.18811791E+00 0.30971442E+04</pdfrwt>
<totfact> 0.48687030E-01</totfact>
</mgrwt>
</event>
<event>
 6    1  0.1072514E-005  0.1573022E+04  0.7818608E-02  0.8837295E-01
         -2   -1    0    0    0  501 -0.00000000000E+00  0.00000000000E+00  0.32289482912E+03  0.32289482912E+03  0.00000000000E+00 0.  1.
          2   -1    0    0  501    0  0.00000000000E+00 -0.00000000000E+00 -0.19157919907E+04  0.19157919907E+04  0.00000000000E+00 0. -1.
         23    2    1    2    0    0  0.48188737556E+03 -0.54652403235E+03 -0.12105650699E+04  0.14158370225E+04  0.90679242570E+02 0.  0.
         11    1    3    3    0    0  0.32960725272E+03 -0.31100555721E+03 -0.71928640157E+03  0.85014017970E+03  0.00000000000E+00 0. -1.
        -11    1    3    3    0    0  0.15228012284E+03 -0.23551847514E+03 -0.49127866835E+03  0.56569684277E+03  0.00000000000E+00 0.  1.
         22    1    1    2    0    0 -0.48188737556E+03  0.54652403235E+03 -0.38233209162E+03  0.82284979732E+03  0.00000000000E+00 0.  1.
<mgrwt>
<rscale>  0 0.15730217E+04</rscale>
<asrwt>0</asrwt>
<pdfrwt beam="1">  1        2 0.29473723E+00 0.15730217E+04</pdfrwt>
<pdfrwt beam="2">  1       -2 0.49676128E-01 0.15730217E+04</pdfrwt>
<totfact> 0.27424204E+01</totfact>
</mgrwt>
</event>
<event>
 6    1  0.1072514E-005  0.3716239E+04  0.7818608E-02  0.8064373E-01
         -2   -1    0    0    0  501 -0.00000000000E+00  0.00000000000E+00  0.11891962534E+04  0.11891962534E+04  0.00000000000E+00 0.  1.
          2   -1    0    0  501    0  0.00000000000E+00 -0.00000000000E+00 -0.29033124926E+04  0.29033124926E+04  0.00000000000E+00 0. -1.
         23    2    1    2    0    0 -0.10286363563E+04  0.15452163729E+04 -0.91606365876E+03  0.20719458754E+04  0.89446583043E+02 0.  0.
         11    1    3    3    0    0 -0.18339370172E+03  0.32538610165E+03 -0.15901669255E+03  0.40595033377E+03  0.00000000000E+00 0. -1.
        -11    1    3    3    0    0 -0.84524265454E+03  0.12198302713E+04 -0.75704696620E+03  0.16659955416E+04  0.00000000000E+00 0.  1.
         22    1    1    2    0    0  0.10286363563E+04 -0.15452163729E+04 -0.79805258049E+03  0.20205628705E+04  0.00000000000E+00 0. -1.
<mgrwt>
<rscale>  0 0.37162391E+04</rscale>
<asrwt>0</asrwt>
<pdfrwt beam="1">  1        2 0.44666346E+00 0.37162391E+04</pdfrwt>
<pdfrwt beam="2">  1       -2 0.18295327E+00 0.37162391E+04</pdfrwt>
<totfact> 0.27919939E-01</totfact>
</mgrwt>
</event>
<event>
 6    1  0.1072514E-005  0.1458419E+04  0.7818608E-02  0.8912584E-01
         -1   -1    0    0    0  501 -0.00000000000E+00  0.00000000000E+00  0.32291165439E+03  0.32291165439E+03  0.00000000000E+00 0.  1.
          1   -1    0    0  501    0  0.00000000000E+00 -0.00000000000E+00 -0.16467252730E+04  0.16467252730E+04  0.00000000000E+00 0. -1.
         23    2    1    2    0    0 -0.54320537813E+03  0.88075937360E+02 -0.13049657428E+04  0.14190148283E+04  0.88532703078E+02 0.  0.
         11    1    3    3    0    0 -0.35011892750E+03  0.90269823347E+02 -0.91532778089E+03  0.98415285951E+03  0.00000000000E+00 0.  1.
        -11    1    3    3    0    0 -0.19308645063E+03 -0.21938859873E+01 -0.38963796188E+03  0.43486196878E+03  0.00000000000E+00 0. -1.
         22    1    1    2    0    0  0.54320537813E+03 -0.88075937360E+02 -0.18847875815E+02  0.55062209908E+03  0.00000000000E+00 0.  1.
<mgrwt>
<rscale>  0 0.14584194E+04</rscale>
<asrwt>0</asrwt>
<pdfrwt beam="1">  1        1 0.25334235E+00 0.14584194E+04</pdfrwt>
<pdfrwt beam="2">  1       -1 0.49678716E-01 0.14584194E+04</pdfrwt>
<totfact> 0.20442408E+01</totfact>
</mgrwt>
</event>
<event>
 6    1  0.1072514E-005  0.4244939E+04  0.7818608E-02  0.7956879E-01
          2   -1    0    0  501    0  0.00000000000E+00  0.00000000000E+00  0.16013931592E+04  0.16013931592E+04  0.00000000000E+00 0. -1.
         -2   -1    0    0    0  501 -0.00000000000E+00 -0.00000000000E+00 -0.28130986737E+04  0.28130986737E+04  0.00000000000E+00 0.  1.
         23    2    1    2    0    0 -0.13455959900E+04 -0.15616812846E+04 -0.85585349917E+02  0.20655295879E+04  0.98033787906E+02 0.  0.
         11    1    3    3    0    0 -0.37855568326E+03 -0.39087380275E+03  0.68417981807E+01  0.54418153700E+03  0.00000000000E+00 0. -1.
        -11    1    3    3    0    0 -0.96704030674E+03 -0.11708074818E+04 -0.92427148097E+02  0.15213480509E+04  0.00000000000E+00 0.  1.
         22    1    1    2    0    0  0.13455959900E+04  0.15616812846E+04 -0.11261201646E+04  0.23489622449E+04  0.00000000000E+00 0.  1.
<mgrwt>
<rscale>  0 0.42449391E+04</rscale>
<asrwt>0</asrwt>
<pdfrwt beam="1">  1        2 0.24636818E+00 0.42449391E+04</pdfrwt>
<pdfrwt beam="2">  1       -2 0.43278440E+00 0.42449391E+04</pdfrwt>
<totfact> 0.38862383E-02</totfact>
</mgrwt>
</event>
<event>
 6    1  0.1072514E-005  0.2333375E+04  0.7818608E-02  0.8464877E-01
          1   -1    0    0  501    0  0.00000000000E+00  0.00000000000E+00  0.95675187180E+03  0.95675187180E+03  0.00000000000E+00 0. -1.
         -1   -1    0    0    0  501 -0.00000000000E+00 -0.00000000000E+00 -0.14226882712E+04  0.14226882712E+04  0.00000000000E+00 0.  1.
         23    2    1    2    0    0  0.38222325049E+03 -0.63131285668E+03 -0.11514214423E+04  0.13721962399E+04  0.11180629212E+03 0.  0.
         11    1    3    3    0    0  0.35283703707E+03 -0.53272498349E+03 -0.93388682197E+03  0.11315628480E+04  0.00000000000E+00 0.  1.
        -11    1    3    3    0    0  0.29386213426E+02 -0.98587873184E+02 -0.21753462029E+03  0.24063339191E+03  0.00000000000E+00 0. -1.
         22    1    1    2    0    0 -0.38222325049E+03  0.63131285668E+03  0.68548504288E+03  0.10072439031E+04  0.00000000000E+00 0. -1.
<mgrwt>
<rscale>  0 0.23333750E+04</rscale>
<asrwt>0</asrwt>
<pdfrwt beam="1">  1        1 0.14719260E+00 0.23333750E+04</pdfrwt>
<pdfrwt beam="2">  1       -1 0.21887512E+00 0.23333750E+04</pdfrwt>
<totfact> 0.16520740E+00</totfact>
</mgrwt>
</event>
<event>
 6    1  0.1072514E-005  0.2650991E+04  0.7818608E-02  0.8351084E-01
         -2   -1    0    0    0  501 -0.00000000000E+00  0.00000000000E+00  0.59360217927E+03  0.59360217927E+03  0.00000000000E+00 0.  1.
          2   -1    0    0  501    0  0.00000000000E+00 -0.00000000000E+00 -0.29597907380E+04  0.29597907380E+04  0.00000000000E+00 0. -1.
         23    2    1    2    0    0  0.69707824915E+03  0.69291782062E+03  0.43998184255E+01  0.98712277455E+03  0.91317150963E+02 0.  0.
         13    1    3    3    0    0  0.34903411088E+03  0.41048594910E+03 -0.36452406564E+01  0.53882911275E+03  0.00000000000E+00 0. -1.
        -13    1    3    3    0    0  0.34804413826E+03  0.28243187152E+03  0.80450590818E+01  0.44829366179E+03  0.00000000000E+00 0.  1.
         22    1    1    2    0    0 -0.69707824915E+03 -0.69291782062E+03 -0.23705883772E+04  0.25662701428E+04  0.00000000000E+00 0. -1.
<mgrwt>
<rscale>  0 0.26509909E+04</rscale>
<asrwt>0</asrwt>
<pdfrwt beam="1">  1        2 0.45535242E+00 0.26509909E+04</pdfrwt>
<pdfrwt beam="2">  1       -2 0.91323412E-01 0.26509909E+04</pdfrwt>
<totfact> 0.16599721E+00</totfact>
</mgrwt>
</event>
<event>
 6    1  0.1072514E-005  0.2658808E+04  0.7818608E-02  0.8348495E-01
          1   -1    0    0  501    0  0.00000000000E+00  0.00000000000E+00  0.13811983732E+04  0.13811983732E+04  0.00000000000E+00 0. -1.
         -1   -1    0    0    0  501 -0.00000000000E+00 -0.00000000000E+00 -0.12795519621E+04  0.12795519621E+04  0.00000000000E+00 0.  1.
         23    2    1    2    0    0 -0.73022682397E+03  0.54437160849E+03 -0.91522292162E+03  0.12956148466E+04  0.10683244754E+03 0.  0.
         13    1    3    3    0    0 -0.57090001609E+03  0.36737909748E+03 -0.68118256345E+03  0.96171924925E+03  0.00000000000E+00 0. -1.
        -13    1    3    3    0    0 -0.15932680788E+03  0.17699251101E+03 -0.23404035817E+03  0.33389559733E+03  0.00000000000E+00 0.  1.
         22    1    1    2    0    0  0.73022682397E+03 -0.54437160849E+03  0.10168693328E+04  0.13651354887E+04  0.00000000000E+00 0. -1.
<mgrwt>
<rscale>  0 0.26588081E+04</rscale>
<asrwt>0</asrwt>
<pdfrwt beam="1">  1        1 0.21249206E+00 0.26588081E+04</pdfrwt>
<pdfrwt beam="2">  1       -1 0.19685415E+00 0.26588081E+04</pdfrwt>
<totfact> 0.10983775E+00</totfact>
</mgrwt>
</event>
<event>
 6    1  0.1072514E-005  0.2753799E+04  0.7818608E-02  0.8317757E-01
          2   -1    0    0  501    0  0.00000000000E+00  0.00000000000E+00  0.16622142355E+04  0.16622142355E+04  0.00000000000E+00 0. -1.
         -2   -1    0    0    0  501 -0.00000000000E+00 -0.00000000000E+00 -0.11405581783E+04  0.11405581783E+04  0.00000000000E+00 0.  1.
         23    2    1    2    0    0 -0.97435553076E+03  0.17239950422E+03  0.12333466183E+04  0.15839230613E+04  0.92617999690E+02 0.  0.
         11    1    3    3    0    0 -0.22926550816E+03  0.14236966701E+02  0.24075685619E+03  0.33276001601E+03  0.00000000000E+00 0. -1.
        -11    1    3    3    0    0 -0.74509002260E+03  0.15816253752E+03  0.99258976207E+03  0.12511630453E+04  0.00000000000E+00 0.  1.
         22    1    1    2    0    0  0.97435553076E+03 -0.17239950422E+03 -0.71169056114E+03  0.12188493525E+04  0.00000000000E+00 0.  1.
<mgrwt>
<rscale>  0 0.27537989E+04</rscale>
<asrwt>0</asrwt>
<pdfrwt beam="1">  1        2 0.25572527E+00 0.27537989E+04</pdfrwt>
<pdfrwt beam="2">  1       -2 0.17547049E+00 0.27537989E+04</pdfrwt>
<totfact> 0.17534957E+00</totfact>
</mgrwt>
</event>
<event>
 6    1  0.1072514E-005  0.2987447E+04  0.7818608E-02  0.8247325E-01
         -2   -1    0    0    0  501 -0.00000000000E+00  0.00000000000E+00  0.10848509475E+04  0.10848509475E+04  0.00000000000E+00 0.  1.
          2   -1    0    0  501    0  0.00000000000E+00 -0.00000000000E+00 -0.20566974877E+04  0.20566974877E+04  0.00000000000E+00 0. -1.
         23    2    1    2    0    0 -0.12175232494E+04  0.75362096790E+02 -0.13904018967E+04  0.18518853417E+04  0.90661877499E+02 0.  0.
         13    1    3    3    0    0 -0.48286839229E+03  0.65109163089E+02 -0.51365142730E+03  0.70798225695E+03  0.00000000000E+00 0.  1.
        -13    1    3    3    0    0 -0.73465485706E+03  0.10252933701E+02 -0.87675046941E+03  0.11439030847E+04  0.00000000000E+00 0. -1.
         22    1    1    2    0    0  0.12175232494E+04 -0.75362096790E+02  0.41855535655E+03  0.12896630935E+04  0.00000000000E+00 0.  1.
<mgrwt>
<rscale>  0 0.29874472E+04</rscale>
<asrwt>0</asrwt>
<pdfrwt beam="1">  1        2 0.31641500E+00 0.29874472E+04</pdfrwt>
<pdfrwt beam="2">  1       -2 0.16690014E+00 0.29874472E+04</pdfrwt>
<totfact> 0.11941664E+00</totfact>
</mgrwt>
</event>
<event>
 6    1  0.1072514E-005  0.7951672E+03  0.7818608E-02  0.9567039E-01
          1   -1    0    0  501    0  0.00000000000E+00  0.00000000000E+00  0.41315782637E+03  0.41315782637E+03  0.00000000000E+00 0. -1.
         -1   -1    0    0    0  501 -0.00000000000E+00 -0.00000000000E+00 -0.38259646770E+03  0.38259646770E+03  0.00000000000E+00 0.  1.
         23    2    1    2    0    0 -0.70452394775E+02  0.34511902007E+03  0.18870628897E+03  0.40964485761E+03  0.90156352650E+02 0.  0.
         11    1    3    3    0    0 -0.10368522219E+02  0.18149514074E+03  0.54894005163E+02  0.18989824688E+03  0.00000000000E+00 0. -1.
        -11    1    3    3    0    0 -0.60083872557E+02  0.16362387933E+03  0.13381228381E+03  0.21974661073E+03  0.00000000000E+00 0.  1.
         22    1    1    2    0    0  0.70452394775E+02 -0.34511902007E+03 -0.15814493030E+03  0.38610943646E+03  0.00000000000E+00 0.  1.
<mgrwt>
<rscale>  0 0.79516722E+03</rscale>
<asrwt>0</asrwt>
<pdfrwt beam="1">  1        1 0.63562742E-01 0.79516722E+03</pdfrwt>
<pdfrwt beam="2">  1       -1 0.58860995E-01 0.79516722E+03</pdfrwt>
<totfact> 0.17012655E+02</totfact>
</mgrwt>
</event>
<event>
 6    1  0.1072514E-005  0.4613271E+04  0.7818608E-02  0.7891101E-01
         -2   -1    0    0    0  501 -0.00000000000E+00  0.00000000000E+00  0.16400688190E+04  0.16400688190E+04  0.00000000000E+00 0.  1.
          2   -1    0    0  501    0  0.00000000000E+00 -0.00000000000E+00 -0.32441115724E+04  0.32441115724E+04  0.00000000000E+00 0. -1.
         23    2    1    2    0    0 -0.11636284704E+04  0.89672369630E+03  0.10791680245E+04  0.18251340232E+04  0.91465692934E+02 0.  0.
         11    1    3    3    0    0 -0.82384935914E+03  0.66194889465E+03  0.73176604275E+03  0.12854515343E+04  0.00000000000E+00 0. -1.
        -11    1    3    3    0    0 -0.33977911127E+03  0.23477480166E+03  0.34740198172E+03  0.53968248892E+03  0.00000000000E+00 0.  1.
         22    1    1    2    0    0  0.11636284704E+04 -0.89672369630E+03 -0.26832107778E+04  0.30590463682E+04  0.00000000000E+00 0. -1.
<mgrwt>
<rscale>  0 0.46132705E+04</rscale>
<asrwt>0</asrwt>
<pdfrwt beam="1">  1        2 0.49909408E+00 0.46132705E+04</pdfrwt>
<pdfrwt beam="2">  1       -2 0.25231828E+00 0.46132705E+04</pdfrwt>
<totfact> 0.56579681E-02</totfact>
</mgrwt>
</event>
<event>
 6    1  0.1072514E-005  0.7306860E+03  0.7818608E-02  0.9666148E-01
         -2   -1    0    0    0  501 -0.00000000000E+00  0.00000000000E+00  0.28307336600E+03  0.28307336600E+03  0.00000000000E+00 0.  1.
          2   -1    0    0  501    0  0.00000000000E+00 -0.00000000000E+00 -0.47152260035E+03  0.47152260035E+03  0.00000000000E+00 0. -1.
         23    2    1    2    0    0 -0.17452580092E+03 -0.27381970545E+03  0.64023989993E+02  0.34328195578E+03  0.91142435722E+02 0.  0.
         13    1    3    3    0    0 -0.17760716128E+03 -0.22145399766E+03  0.44674955593E+02  0.28737089009E+03  0.00000000000E+00 0. -1.
        -13    1    3    3    0    0  0.30813603520E+01 -0.52365707795E+02  0.19349034400E+02  0.55911065691E+02  0.00000000000E+00 0.  1.
         22    1    1    2    0    0  0.17452580092E+03  0.27381970545E+03 -0.25247322434E+03  0.41131401057E+03  0.00000000000E+00 0. -1.
<mgrwt>
<rscale>  0 0.73068595E+03</rscale>
<asrwt>0</asrwt>
<pdfrwt beam="1">  1        2 0.72541938E-01 0.73068595E+03</pdfrwt>
<pdfrwt beam="2">  1       -2 0.43549749E-01 0.73068595E+03</pdfrwt>
<totfact> 0.33220430E+02</totfact>
</mgrwt>
</event>
<event>
 6    1  0.1072514E-005  0.3739316E+04  0.7818608E-02  0.8059304E-01
          2   -1    0    0  501    0  0.00000000000E+00  0.00000000000E+00  0.36750584504E+04  0.36750584504E+04  0.00000000000E+00 0. -1.
         -2   -1    0    0    0  501 -0.00000000000E+00 -0.00000000000E+00 -0.95117428499E+03  0.95117428499E+03  0.00000000000E+00 0.  1.
         23    2    1    2    0    0 -0.85495940572E+03 -0.16409502870E+04  0.10405796757E+04  0.21247956614E+04  0.90978633664E+02 0.  0.
         13    1    3    3    0    0 -0.62318733626E+03 -0.11158536278E+04  0.74077705241E+03  0.14772414887E+04  0.00000000000E+00 0.  1.
        -13    1    3    3    0    0 -0.23177206946E+03 -0.52509665920E+03  0.29980262327E+03  0.64755417272E+03  0.00000000000E+00 0. -1.
         22    1    1    2    0    0  0.85495940572E+03  0.16409502870E+04  0.16833044897E+04  0.25014370739E+04  0.00000000000E+00 0. -1.
<mgrwt>
<rscale>  0 0.37393160E+04</rscale>
<asrwt>0</asrwt>
<pdfrwt beam="1">  1        2 0.56539360E+00 0.37393160E+04</pdfrwt>
<pdfrwt beam="2">  1       -2 0.14633451E+00 0.37393160E+04</pdfrwt>
<totfact> 0.15660492E-01</totfact>
</mgrwt>
</event>
<event>
 6    1  0.1072514E-005  0.3199288E+04  0.7818608E-02  0.8189005E-01
          1   -1    0    0  501    0  0.00000000000E+00  0.00000000000E+00  0.37168837967E+04  0.37168837967E+04  0.00000000000E+00 0. -1.
         -1   -1    0    0    0  501 -0.00000000000E+00 -0.00000000000E+00 -0.68844243578E+03  0.68844243578E+03  0.00000000000E+00 0.  1.
         23    2    1    2    0    0 -0.47747843562E+03 -0.37701217639E+03  0.35506540593E+04  0.36035594709E+04  0.91502861953E+02 0.  0.
         13    1    3    3    0    0 -0.19945006276E+02 -0.24858558233E+02  0.33247179918E+03  0.33399588088E+03  0.00000000000E+00 0.  1.
        -13    1    3    3    0    0 -0.45753342935E+03 -0.35215361815E+03  0.32181822601E+04  0.32695635900E+04  0.00000000000E+00 0. -1.
         22    1    1    2    0    0  0.47747843562E+03  0.37701217639E+03 -0.52221269838E+03  0.80176676159E+03  0.00000000000E+00 0.  1.
<mgrwt>
<rscale>  0 0.31992878E+04</rscale>
<asrwt>0</asrwt>
<pdfrwt beam="1">  1        1 0.57182826E+00 0.31992878E+04</pdfrwt>
<pdfrwt beam="2">  1       -1 0.10591422E+00 0.31992878E+04</pdfrwt>
<totfact> 0.11647834E-01</totfact>
</mgrwt>
</event>
<event>
 6    1  0.1072514E-005  0.5493564E+04  0.7818608E-02  0.7756575E-01
         -2   -1    0    0    0  501 -0.00000000000E+00  0.00000000000E+00  0.17009529359E+04  0.17009529359E+04  0.00000000000E+00 0.  1.
          2   -1    0    0  501    0  0.00000000000E+00 -0.00000000000E+00 -0.44356382208E+04  0.44356382208E+04  0.00000000000E+00 0. -1.
         23    2    1    2    0    0  0.13710759467E+04  0.17762335135E+04 -0.31359776398E+04  0.38571415959E+04  0.91273147760E+02 0.  0.
         13    1    3    3    0    0  0.95595623867E+03  0.12499041749E+04 -0.22688843530E+04  0.27611499387E+04  0.00000000000E+00 0. -1.
        -13    1    3    3    0    0  0.41511970801E+03  0.52632933865E+03 -0.86709328672E+03  0.10959916572E+04  0.00000000000E+00 0.  1.
         22    1    1    2    0    0 -0.13710759467E+04 -0.17762335135E+04  0.40129235487E+03  0.22794495608E+04  0.00000000000E+00 0.  1.
<mgrwt>
<rscale>  0 0.54935642E+04</rscale>
<asrwt>0</asrwt>
<pdfrwt beam="1">  1        2 0.68240588E+00 0.54935642E+04</pdfrwt>
<pdfrwt beam="2">  1       -2 0.26168507E+00 0.54935642E+04</pdfrwt>
<totfact> 0.53642351E-03</totfact>
</mgrwt>
</event>
<event>
 6    1  0.1072514E-005  0.2940337E+04  0.7818608E-02  0.8260976E-01
          1   -1    0    0  501    0  0.00000000000E+00  0.00000000000E+00  0.13814891762E+04  0.13814891762E+04  0.00000000000E+00 0. -1.
         -1   -1    0    0    0  501 -0.00000000000E+00 -0.00000000000E+00 -0.15645405391E+04  0.15645405391E+04  0.00000000000E+00 0.  1.
         23    2    1    2    0    0  0.10850344969E+03 -0.74030534979E+03  0.11746579614E+04  0.13958040483E+04  0.92857984736E+02 0.  0.
         11    1    3    3    0    0 -0.10628584892E+02 -0.10599829216E+03  0.20445289594E+03  0.23054195153E+03  0.00000000000E+00 0.  1.
        -11    1    3    3    0    0  0.11913203459E+03 -0.63430705763E+03  0.97020506550E+03  0.11652620968E+04  0.00000000000E+00 0. -1.
         22    1    1    2    0    0 -0.10850344969E+03  0.74030534979E+03 -0.13577093242E+04  0.15502256670E+04  0.00000000000E+00 0.  1.
<mgrwt>
<rscale>  0 0.29403373E+04</rscale>
<asrwt>0</asrwt>
<pdfrwt beam="1">  1        1 0.21253680E+00 0.29403373E+04</pdfrwt>
<pdfrwt beam="2">  1       -1 0.24069855E+00 0.29403373E+04</pdfrwt>
<totfact> 0.54327503E-01</totfact>
</mgrwt>
</event>
<event>
 6    1  0.1072514E-005  0.2496102E+04  0.7818608E-02  0.8404376E-01
          2   -1    0    0  501    0  0.00000000000E+00  0.00000000000E+00  0.25082682509E+04  0.25082682509E+04  0.00000000000E+00 0. -1.
         -2   -1    0    0    0  501 -0.00000000000E+00 -0.00000000000E+00 -0.62099865377E+03  0.62099865377E+03  0.00000000000E+00 0.  1.
         23    2    1    2    0    0 -0.10710217311E+04 -0.20710806397E+03  0.17006240103E+04  0.20225520029E+04  0.92807766384E+02 0.  0.
         11    1    3    3    0    0 -0.81498653374E+03 -0.11931056502E+03  0.12543510747E+04  0.15006114353E+04  0.00000000000E+00 0. -1.
        -11    1    3    3    0    0 -0.25603519737E+03 -0.87797498944E+02  0.44627293553E+03  0.52194056760E+03  0.00000000000E+00 0.  1.
         22    1    1    2    0    0  0.10710217311E+04  0.20710806397E+03  0.18664558686E+03  0.11067149018E+04  0.00000000000E+00 0.  1.
<mgrwt>
<rscale>  0 0.24961019E+04</rscale>
<asrwt>0</asrwt>
<pdfrwt beam="1">  1        2 0.38588742E+00 0.24961019E+04</pdfrwt>
<pdfrwt beam="2">  1       -2 0.95538256E-01 0.24961019E+04</pdfrwt>
<totfact> 0.28246690E+00</totfact>
</mgrwt>
</event>
<event>
 6    1  0.1072514E-005  0.7979119E+03  0.7818608E-02  0.9563044E-01
         -2   -1    0    0    0  501 -0.00000000000E+00  0.00000000000E+00  0.15650595597E+03  0.15650595597E+03  0.00000000000E+00 0.  1.
          2   -1    0    0  501    0  0.00000000000E+00 -0.00000000000E+00 -0.10169955475E+04  0.10169955475E+04  0.00000000000E+00 0. -1.
         23    2    1    2    0    0  0.26443812157E+03 -0.28615349131E+03 -0.35180123647E+03  0.53274009445E+03  0.90755482068E+02 0.  0.
         13    1    3    3    0    0  0.18472102185E+03 -0.24246826022E+03 -0.23586215641E+03  0.38541363489E+03  0.00000000000E+00 0. -1.
        -13    1    3    3    0    0  0.79717099721E+02 -0.43685231086E+02 -0.11593908006E+03  0.14732645957E+03  0.00000000000E+00 0.  1.
         22    1    1    2    0    0 -0.26443812157E+03  0.28615349131E+03 -0.50868835510E+03  0.64076140906E+03  0.00000000000E+00 0.  1.
<mgrwt>
<rscale>  0 0.79791193E+03</rscale>
<asrwt>0</asrwt>
<pdfrwt beam="1">  1        2 0.15646086E+00 0.79791193E+03</pdfrwt>
<pdfrwt beam="2">  1       -2 0.24077839E-01 0.79791193E+03</pdfrwt>
<totfact> 0.37865900E+02</totfact>
</mgrwt>
</event>
<event>
 6    1  0.1072514E-005  0.2321448E+04  0.7818608E-02  0.8469512E-01
          1   -1    0    0  501    0  0.00000000000E+00  0.00000000000E+00  0.16050990681E+04  0.16050990681E+04  0.00000000000E+00 0. -1.
         -1   -1    0    0    0  501 -0.00000000000E+00 -0.00000000000E+00 -0.83937503443E+03  0.83937503443E+03  0.00000000000E+00 0.  1.
         23    2    1    2    0    0  0.53322200785E+03  0.18316882125E+03  0.14496315538E+04  0.15581299128E+04  0.91981827156E+02 0.  0.
         13    1    3    3    0    0  0.32775377382E+03  0.70279539561E+02  0.79464444996E+03  0.86245089819E+03  0.00000000000E+00 0. -1.
        -13    1    3    3    0    0  0.20546823402E+03  0.11288928169E+03  0.65498710384E+03  0.69567901457E+03  0.00000000000E+00 0.  1.
         22    1    1    2    0    0 -0.53322200785E+03 -0.18316882125E+03 -0.68390752011E+03  0.88634418980E+03  0.00000000000E+00 0.  1.
<mgrwt>
<rscale>  0 0.23214479E+04</rscale>
<asrwt>0</asrwt>
<pdfrwt beam="1">  1        1 0.24693832E+00 0.23214479E+04</pdfrwt>
<pdfrwt beam="2">  1       -1 0.12913462E+00 0.23214479E+04</pdfrwt>
<totfact> 0.25757295E+00</totfact>
</mgrwt>
</event>
<event>
 6    1  0.1072514E-005  0.1289745E+04  0.7818608E-02  0.9037737E-01
          2   -1    0    0  501    0  0.00000000000E+00  0.00000000000E+00  0.18492430218E+04  0.18492430218E+04  0.00000000000E+00 0. -1.
         -2   -1    0    0    0  501 -0.00000000000E+00 -0.00000000000E+00 -0.22488159827E+03  0.22488159827E+03  0.00000000000E+00 0.  1.
         23    2    1    2    0    0 -0.25218521727E+03 -0.11092841942E+03  0.17474880575E+04  0.17723587074E+04  0.10788131769E+03 0.  0.
         11    1    3    3    0    0 -0.95485143817E+02 -0.23691611717E+02  0.35539937912E+03  0.36876472694E+03  0.00000000000E+00 0.  1.
        -11    1    3    3    0    0 -0.15670007345E+03 -0.87236807705E+02  0.13920886784E+04  0.14035939805E+04  0.00000000000E+00 0. -1.
         22    1    1    2    0    0  0.25218521727E+03  0.11092841942E+03 -0.12312663396E+03  0.30176591264E+03  0.00000000000E+00 0.  1.
<mgrwt>
<rscale>  0 0.12897453E+04</rscale>
<asrwt>0</asrwt>
<pdfrwt beam="1">  1        2 0.28449892E+00 0.12897453E+04</pdfrwt>
<pdfrwt beam="2">  1       -2 0.34597170E-01 0.12897453E+04</pdfrwt>
<totfact> 0.62263532E+01</totfact>
</mgrwt>
</event>
<event>
 6    1  0.1072514E-005  0.1242372E+04  0.7818608E-02  0.9076556E-01
         -2   -1    0    0    0  501 -0.00000000000E+00  0.00000000000E+00  0.50707829607E+03  0.50707829607E+03  0.00000000000E+00 0.  1.
          2   -1    0    0  501    0  0.00000000000E+00 -0.00000000000E+00 -0.76097113251E+03  0.76097113251E+03  0.00000000000E+00 0. -1.
         23    2    1    2    0    0  0.26370150252E+03 -0.60140448058E+02 -0.69431809083E+03  0.75120345479E+03  0.95255778384E+02 0.  0.
         13    1    3    3    0    0  0.10786566541E+03 -0.66272790933E+02 -0.24841358904E+03  0.27881247428E+03  0.00000000000E+00 0.  1.
        -13    1    3    3    0    0  0.15583583711E+03  0.61323428749E+01 -0.44590450179E+03  0.47239098052E+03  0.00000000000E+00 0. -1.
         22    1    1    2    0    0 -0.26370150252E+03  0.60140448058E+02  0.44042525438E+03  0.51684597379E+03  0.00000000000E+00 0.  1.
<mgrwt>
<rscale>  0 0.12423718E+04</rscale>
<asrwt>0</asrwt>
<pdfrwt beam="1">  1        2 0.11707248E+00 0.12423718E+04</pdfrwt>
<pdfrwt beam="2">  1       -2 0.78012046E-01 0.12423718E+04</pdfrwt>
<totfact> 0.52984163E+01</totfact>
</mgrwt>
</event>
<event>
 6    1  0.1072514E-005  0.1012316E+04  0.7818608E-02  0.9295139E-01
          2   -1    0    0  501    0  0.00000000000E+00  0.00000000000E+00  0.14404614487E+03  0.14404614487E+03  0.00000000000E+00 0. -1.
         -2   -1    0    0    0  501 -0.00000000000E+00 -0.00000000000E+00 -0.17785694757E+04  0.17785694757E+04  0.00000000000E+00 0.  1.
         23    2    1    2    0    0 -0.71504183813E+02  0.34740132631E+03 -0.14879109111E+03  0.39513376538E+03  0.90506209283E+02 0.  0.
         11    1    3    3    0    0  0.91834866107E+01  0.17601669198E+03 -0.62914002661E+02  0.18714802700E+03  0.00000000000E+00 0. -1.
        -11    1    3    3    0    0 -0.80687670424E+02  0.17138463434E+03 -0.85877088454E+02  0.20798573837E+03  0.00000000000E+00 0.  1.
         22    1    1    2    0    0  0.71504183813E+02 -0.34740132631E+03 -0.14857322397E+04  0.15274818552E+04  0.00000000000E+00 0.  1.
<mgrwt>
<rscale>  0 0.10123163E+04</rscale>
<asrwt>0</asrwt>
<pdfrwt beam="1">  1        2 0.22160944E-01 0.10123163E+04</pdfrwt>
<pdfrwt beam="2">  1       -2 0.27362609E+00 0.10123163E+04</pdfrwt>
<totfact> 0.11711514E+01</totfact>
</mgrwt>
</event>
<event>
 6    1  0.1072514E-005  0.2109328E+04  0.7818608E-02  0.8557145E-01
         -1   -1    0    0    0  501 -0.00000000000E+00  0.00000000000E+00  0.50860970280E+03  0.50860970280E+03  0.00000000000E+00 0.  1.
          1   -1    0    0  501    0  0.00000000000E+00 -0.00000000000E+00 -0.21869743379E+04  0.21869743379E+04  0.00000000000E+00 0. -1.
         23    2    1    2    0    0  0.59123467492E+03 -0.18262267637E+03  0.24742491748E+03  0.67281987164E+03  0.92509497517E+02 0.  0.
         11    1    3    3    0    0  0.44677968832E+03 -0.10212658176E+03  0.15769055874E+03  0.48467333423E+03  0.00000000000E+00 0.  1.
        -11    1    3    3    0    0  0.14445498660E+03 -0.80496094616E+02  0.89734358736E+02  0.18814653741E+03  0.00000000000E+00 0. -1.
         22    1    1    2    0    0 -0.59123467492E+03  0.18262267637E+03 -0.19257895526E+04  0.20227641690E+04  0.00000000000E+00 0. -1.
<mgrwt>
<rscale>  0 0.21093282E+04</rscale>
<asrwt>0</asrwt>
<pdfrwt beam="1">  1        1 0.33645759E+00 0.21093282E+04</pdfrwt>
<pdfrwt beam="2">  1       -1 0.78247646E-01 0.21093282E+04</pdfrwt>
<totfact> 0.33408208E+00</totfact>
</mgrwt>
</event>
<event>
 6    1  0.1072514E-005  0.2361175E+04  0.7818608E-02  0.8454184E-01
         -2   -1    0    0    0  501 -0.00000000000E+00  0.00000000000E+00  0.12292848009E+04  0.12292848009E+04  0.00000000000E+00 0.  1.
          2   -1    0    0  501    0  0.00000000000E+00 -0.00000000000E+00 -0.11338197291E+04  0.11338197291E+04  0.00000000000E+00 0. -1.
         23    2    1    2    0    0 -0.11141791138E+04  0.37567488939E+03 -0.40306120515E+02  0.11794827420E+04  0.83834570507E+02 0.  0.
         11    1    3    3    0    0 -0.52589001045E+03  0.13404407222E+03 -0.26598018609E+02  0.54335584195E+03  0.00000000000E+00 0. -1.
        -11    1    3    3    0    0 -0.58828910337E+03  0.24163081717E+03 -0.13708101905E+02  0.63612690008E+03  0.00000000000E+00 0.  1.
         22    1    1    2    0    0  0.11141791138E+04 -0.37567488939E+03  0.13577119235E+03  0.11836217879E+04  0.00000000000E+00 0.  1.
<mgrwt>
<rscale>  0 0.23611754E+04</rscale>
<asrwt>0</asrwt>
<pdfrwt beam="1">  1        2 0.17443380E+00 0.23611754E+04</pdfrwt>
<pdfrwt beam="2">  1       -2 0.18912074E+00 0.23611754E+04</pdfrwt>
<totfact> 0.29435386E+00</totfact>
</mgrwt>
</event>
<event>
 6    1  0.1072514E-005  0.2494173E+04  0.7818608E-02  0.8405065E-01
          2   -1    0    0  501    0  0.00000000000E+00  0.00000000000E+00  0.27854888667E+04  0.27854888667E+04  0.00000000000E+00 0. -1.
         -2   -1    0    0    0  501 -0.00000000000E+00 -0.00000000000E+00 -0.55833076077E+03  0.55833076077E+03  0.00000000000E+00 0.  1.
         23    2    1    2    0    0 -0.12103526885E+04 -0.28222217209E+03  0.12238894782E+04  0.17465873574E+04  0.89771694670E+02 0.  0.
         11    1    3    3    0    0 -0.22856941503E+03 -0.80440597775E+02  0.27243731518E+03  0.36460493408E+03  0.00000000000E+00 0. -1.
        -11    1    3    3    0    0 -0.98178327351E+03 -0.20178157431E+03  0.95145216299E+03  0.13819824233E+04  0.00000000000E+00 0.  1.
         22    1    1    2    0    0  0.12103526885E+04  0.28222217209E+03  0.10032686277E+04  0.15972322700E+04  0.00000000000E+00 0.  1.
<mgrwt>
<rscale>  0 0.24941725E+04</rscale>
<asrwt>0</asrwt>
<pdfrwt beam="1">  1        2 0.42853674E+00 0.24941725E+04</pdfrwt>
<pdfrwt beam="2">  1       -2 0.85897042E-01 0.24941725E+04</pdfrwt>
<totfact> 0.24767628E+00</totfact>
</mgrwt>
</event>
<event>
 6    1  0.1110460E-005  0.3005905E+04  0.7818608E-02  0.8242047E-01
          1   -1    0    0  501    0  0.00000000000E+00  0.00000000000E+00  0.98107424510E+03  0.98107424510E+03  0.00000000000E+00 0. -1.
         -1   -1    0    0    0  501 -0.00000000000E+00 -0.00000000000E+00 -0.23024410083E+04  0.23024410083E+04  0.00000000000E+00 0.  1.
         23    2    1    2    0    0  0.13686846481E+04  0.47947696658E+03 -0.23499765923E+03  0.14715015511E+04  0.83048706846E+02 0.  0.
         13    1    3    3    0    0  0.92057187949E+03  0.35535016706E+03 -0.18321637410E+03  0.10036406559E+04  0.00000000000E+00 0. -1.
        -13    1    3    3    0    0  0.44811276857E+03  0.12412679953E+03 -0.51781285129E+02  0.46786089514E+03  0.00000000000E+00 0.  1.
         22    1    1    2    0    0 -0.13686846481E+04 -0.47947696658E+03 -0.10863691040E+04  0.18120137023E+04  0.00000000000E+00 0. -1.
<mgrwt>
<rscale>  0 0.30059046E+04</rscale>
<asrwt>0</asrwt>
<pdfrwt beam="1">  1        1 0.15093450E+00 0.30059046E+04</pdfrwt>
<pdfrwt beam="2">  1       -1 0.35422169E+00 0.30059046E+04</pdfrwt>
<totfact> 0.19395575E-01</totfact>
</mgrwt>
</event>
<event>
 6    1  0.1072514E-005  0.1937437E+04  0.7818608E-02  0.8636443E-01
         -2   -1    0    0    0  501 -0.00000000000E+00  0.00000000000E+00  0.10033953274E+04  0.10033953274E+04  0.00000000000E+00 0.  1.
          2   -1    0    0  501    0  0.00000000000E+00 -0.00000000000E+00 -0.93523999709E+03  0.93523999709E+03  0.00000000000E+00 0. -1.
         23    2    1    2    0    0  0.84233408064E+03  0.17494445741E+03 -0.40628879933E+03  0.95617438444E+03  0.95218687253E+02 0.  0.
         13    1    3    3    0    0  0.65172398660E+03  0.10500208753E+03 -0.27993168727E+03  0.71702952703E+03  0.00000000000E+00 0.  1.
        -13    1    3    3    0    0  0.19061009404E+03  0.69942369887E+02 -0.12635711206E+03  0.23914485741E+03  0.00000000000E+00 0. -1.
         22    1    1    2    0    0 -0.84233408064E+03 -0.17494445741E+03  0.47444412966E+03  0.98246094007E+03  0.00000000000E+00 0.  1.
<mgrwt>
<rscale>  0 0.19374369E+04</rscale>
<asrwt>0</asrwt>
<pdfrwt beam="1">  1        2 0.14388308E+00 0.19374369E+04</pdfrwt>
<pdfrwt beam="2">  1       -2 0.15436851E+00 0.19374369E+04</pdfrwt>
<totfact> 0.71947092E+00</totfact>
</mgrwt>
</event>
<event>
 6    1  0.1072514E-005  0.3780789E+04  0.7818608E-02  0.8050290E-01
          1   -1    0    0  501    0  0.00000000000E+00  0.00000000000E+00  0.15794755846E+04  0.15794755846E+04  0.00000000000E+00 0. -1.
         -1   -1    0    0    0  501 -0.00000000000E+00 -0.00000000000E+00 -0.22625174743E+04  0.22625174743E+04  0.00000000000E+00 0.  1.
         23    2    1    2    0    0  0.48648036909E+03 -0.27479559441E+03 -0.21756956687E+04  0.22481953704E+04  0.92493308423E+02 0.  0.
         13    1    3    3    0    0  0.24154620850E+03 -0.14314073214E+03 -0.12750823708E+04  0.13056296919E+04  0.00000000000E+00 0. -1.
        -13    1    3    3    0    0  0.24493416060E+03 -0.13165486228E+03 -0.90061329795E+03  0.94256567847E+03  0.00000000000E+00 0.  1.
         22    1    1    2    0    0 -0.48648036909E+03  0.27479559441E+03  0.14926537790E+04  0.15937976886E+04  0.00000000000E+00 0. -1.
<mgrwt>
<rscale>  0 0.37807889E+04</rscale>
<asrwt>0</asrwt>
<pdfrwt beam="1">  1        1 0.24299624E+00 0.37807889E+04</pdfrwt>
<pdfrwt beam="2">  1       -1 0.34807961E+00 0.37807889E+04</pdfrwt>
<totfact> 0.73472845E-02</totfact>
</mgrwt>
</event>
<event>
 6    1  0.1072514E-005  0.2112295E+04  0.7818608E-02  0.8555847E-01
         -3   -1    0    0    0  501 -0.00000000000E+00  0.00000000000E+00  0.37921810696E+03  0.37921810696E+03  0.00000000000E+00 0.  1.
          3   -1    0    0  501    0  0.00000000000E+00 -0.00000000000E+00 -0.29414408151E+04  0.29414408151E+04  0.00000000000E+00 0. -1.
         23    2    1    2    0    0  0.97177550101E+03 -0.32440385773E+03 -0.89279919712E+03  0.13619449699E+04  0.90654328742E+02 0.  0.
         11    1    3    3    0    0  0.47979451031E+03 -0.20333376224E+03 -0.47839837819E+03  0.70739833138E+03  0.00000000000E+00 0. -1.
        -11    1    3    3    0    0  0.49198099070E+03 -0.12107009549E+03 -0.41440081893E+03  0.65454663850E+03  0.00000000000E+00 0.  1.
         22    1    1    2    0    0 -0.97177550101E+03  0.32440385773E+03 -0.16694235110E+04  0.19587139521E+04  0.00000000000E+00 0.  1.
<mgrwt>
<rscale>  0 0.21122951E+04</rscale>
<asrwt>0</asrwt>
<pdfrwt beam="1">  1        3 0.45252935E+00 0.21122951E+04</pdfrwt>
<pdfrwt beam="2">  1       -3 0.58341249E-01 0.21122951E+04</pdfrwt>
<totfact> 0.41140555E-02</totfact>
</mgrwt>
</event>
<event>
 6    1  0.1072514E-005  0.1685527E+04  0.7818608E-02  0.8769662E-01
          2   -1    0    0  501    0  0.00000000000E+00  0.00000000000E+00  0.71827479040E+03  0.71827479040E+03  0.00000000000E+00 0. -1.
         -2   -1    0    0    0  501 -0.00000000000E+00 -0.00000000000E+00 -0.98882817841E+03  0.98882817841E+03  0.00000000000E+00 0.  1.
         23    2    1    2    0    0  0.70890330782E+03  0.43107296600E+03 -0.27961424751E+03  0.87737415707E+03  0.56863716283E+02 0.  0.
         11    1    3    3    0    0  0.12146520769E+03  0.59736065246E+02 -0.64032309912E+02  0.14974087913E+03  0.00000000000E+00 0. -1.
        -11    1    3    3    0    0  0.58743810013E+03  0.37133690075E+03 -0.21558193760E+03  0.72763327794E+03  0.00000000000E+00 0.  1.
         22    1    1    2    0    0 -0.70890330782E+03 -0.43107296600E+03  0.90608595040E+01  0.82972881174E+03  0.00000000000E+00 0.  1.
<mgrwt>
<rscale>  0 0.16855270E+04</rscale>
<asrwt>0</asrwt>
<pdfrwt beam="1">  1        2 0.11050381E+00 0.16855270E+04</pdfrwt>
<pdfrwt beam="2">  1       -2 0.15212741E+00 0.16855270E+04</pdfrwt>
<totfact> 0.10894871E+01</totfact>
</mgrwt>
</event>
<event>
 6    1  0.1072514E-005  0.1840573E+04  0.7818608E-02  0.8685016E-01
         -1   -1    0    0    0  501 -0.00000000000E+00  0.00000000000E+00  0.43809528737E+03  0.43809528737E+03  0.00000000000E+00 0.  1.
          1   -1    0    0  501    0  0.00000000000E+00 -0.00000000000E+00 -0.19332026943E+04  0.19332026943E+04  0.00000000000E+00 0. -1.
         23    2    1    2    0    0  0.46827245324E+03  0.26416063168E+03 -0.17081037612E+04  0.17930010193E+04  0.90411649801E+02 0.  0.
         13    1    3    3    0    0  0.10215834433E+03  0.73066571992E+02 -0.29105747531E+03  0.31700079683E+03  0.00000000000E+00 0.  1.
        -13    1    3    3    0    0  0.36611410891E+03  0.19109405969E+03 -0.14170462859E+04  0.14760002225E+04  0.00000000000E+00 0. -1.
         22    1    1    2    0    0 -0.46827245324E+03 -0.26416063168E+03  0.21299635425E+03  0.57829696239E+03  0.00000000000E+00 0.  1.
<mgrwt>
<rscale>  0 0.18405727E+04</rscale>
<asrwt>0</asrwt>
<pdfrwt beam="1">  1        1 0.29741580E+00 0.18405727E+04</pdfrwt>
<pdfrwt beam="2">  1       -1 0.67399274E-01 0.18405727E+04</pdfrwt>
<totfact> 0.69351974E+00</totfact>
</mgrwt>
</event>
<event>
 6    1  0.1072514E-005  0.2094881E+04  0.7818608E-02  0.8563502E-01
         -2   -1    0    0    0  501 -0.00000000000E+00  0.00000000000E+00  0.43634265161E+03  0.43634265161E+03  0.00000000000E+00 0.  1.
          2   -1    0    0  501    0  0.00000000000E+00 -0.00000000000E+00 -0.25143811442E+04  0.25143811442E+04  0.00000000000E+00 0. -1.
         23    2    1    2    0    0  0.33082944700E+03  0.79176791714E+03 -0.19940835153E+03  0.88539191824E+03  0.88377602436E+02 0.  0.
         13    1    3    3    0    0  0.14447327706E+03  0.24443161915E+03 -0.51307471335E+02  0.28853388162E+03  0.00000000000E+00 0. -1.
        -13    1    3    3    0    0  0.18635616995E+03  0.54733629799E+03 -0.14810088019E+03  0.59685803663E+03  0.00000000000E+00 0.  1.
         22    1    1    2    0    0 -0.33082944700E+03 -0.79176791714E+03 -0.18786301410E+04  0.20653318776E+04  0.00000000000E+00 0. -1.
<mgrwt>
<rscale>  0 0.20948811E+04</rscale>
<asrwt>0</asrwt>
<pdfrwt beam="1">  1        2 0.38682786E+00 0.20948811E+04</pdfrwt>
<pdfrwt beam="2">  1       -2 0.67129641E-01 0.20948811E+04</pdfrwt>
<totfact> 0.64130136E+00</totfact>
</mgrwt>
</event>
<event>
 6    1  0.1072514E-005  0.1427311E+04  0.7818608E-02  0.8934283E-01
          2   -1    0    0  501    0  0.00000000000E+00  0.00000000000E+00  0.73558410277E+03  0.73558410277E+03  0.00000000000E+00 0. -1.
         -2   -1    0    0    0  501 -0.00000000000E+00 -0.00000000000E+00 -0.69238036554E+03  0.69238036554E+03  0.00000000000E+00 0.  1.
         23    2    1    2    0    0 -0.71102872940E+02  0.69618145146E+03  0.14566377220E+03  0.72070052135E+03  0.92016710723E+02 0.  0.
         11    1    3    3    0    0 -0.68276600766E+01  0.25399205039E+02  0.24688145230E+02  0.36072719244E+02  0.00000000000E+00 0. -1.
        -11    1    3    3    0    0 -0.64275212864E+02  0.67078224642E+03  0.12097562697E+03  0.68462780211E+03  0.00000000000E+00 0.  1.
         22    1    1    2    0    0  0.71102872940E+02 -0.69618145146E+03 -0.10246003496E+03  0.70726394695E+03  0.00000000000E+00 0.  1.
<mgrwt>
<rscale>  0 0.14273107E+04</rscale>
<asrwt>0</asrwt>
<pdfrwt beam="1">  1        2 0.11316679E+00 0.14273107E+04</pdfrwt>
<pdfrwt beam="2">  1       -2 0.10652006E+00 0.14273107E+04</pdfrwt>
<totfact> 0.26528561E+01</totfact>
</mgrwt>
</event>
<event>
 6    1  0.1072514E-005  0.2296755E+04  0.7818608E-02  0.8479202E-01
          2   -1    0    0  501    0  0.00000000000E+00  0.00000000000E+00  0.14902595230E+04  0.14902595230E+04  0.00000000000E+00 0. -1.
         -2   -1    0    0    0  501 -0.00000000000E+00 -0.00000000000E+00 -0.88492721656E+03  0.88492721656E+03  0.00000000000E+00 0.  1.
         23    2    1    2    0    0 -0.69542747333E+03 -0.78877021615E+03 -0.16994773450E+03  0.10687270324E+04  0.86703015013E+02 0.  0.
         13    1    3    3    0    0 -0.19135913505E+03 -0.21341109701E+03 -0.85648498759E+02  0.29916263175E+03  0.00000000000E+00 0.  1.
        -13    1    3    3    0    0 -0.50406833828E+03 -0.57535911914E+03 -0.84299235742E+02  0.76956440067E+03  0.00000000000E+00 0. -1.
         22    1    1    2    0    0  0.69542747333E+03  0.78877021615E+03  0.77528004099E+03  0.13064597072E+04  0.00000000000E+00 0.  1.
<mgrwt>
<rscale>  0 0.22967553E+04</rscale>
<asrwt>0</asrwt>
<pdfrwt beam="1">  1        2 0.22927070E+00 0.22967553E+04</pdfrwt>
<pdfrwt beam="2">  1       -2 0.13614265E+00 0.22967553E+04</pdfrwt>
<totfact> 0.45019978E+00</totfact>
</mgrwt>
</event>
<event>
 6    1  0.1072514E-005  0.2935183E+04  0.7818608E-02  0.8262486E-01
         -2   -1    0    0    0  501 -0.00000000000E+00  0.00000000000E+00  0.65957809946E+03  0.65957809946E+03  0.00000000000E+00 0.  1.
          2   -1    0    0  501    0  0.00000000000E+00 -0.00000000000E+00 -0.32654581636E+04  0.32654581636E+04  0.00000000000E+00 0. -1.
         23    2    1    2    0    0 -0.11247085841E+04  0.93808343570E+03 -0.13923844192E+04  0.20230526638E+04  0.95067230926E+02 0.  0.
         13    1    3    3    0    0 -0.65459555171E+03  0.49196720504E+03 -0.80823793064E+03  0.11505544836E+04  0.00000000000E+00 0.  1.
        -13    1    3    3    0    0 -0.47011303237E+03  0.44611623066E+03 -0.58414648853E+03  0.87249818025E+03  0.00000000000E+00 0. -1.
         22    1    1    2    0    0  0.11247085841E+04 -0.93808343570E+03 -0.12134956450E+04  0.19019835993E+04  0.00000000000E+00 0. -1.
<mgrwt>
<rscale>  0 0.29351829E+04</rscale>
<asrwt>0</asrwt>
<pdfrwt beam="1">  1        2 0.50237818E+00 0.29351829E+04</pdfrwt>
<pdfrwt beam="2">  1       -2 0.10147355E+00 0.29351829E+04</pdfrwt>
<totfact> 0.80571072E-01</totfact>
</mgrwt>
</event>
<event>
 6    1  0.1072514E-005  0.1196372E+04  0.7818608E-02  0.9116038E-01
          1   -1    0    0  501    0  0.00000000000E+00  0.00000000000E+00  0.13803013337E+04  0.13803013337E+04  0.00000000000E+00 0. -1.
         -1   -1    0    0    0  501 -0.00000000000E+00 -0.00000000000E+00 -0.25923815567E+03  0.25923815567E+03  0.00000000000E+00 0.  1.
         23    2    1    2    0    0 -0.32810763923E+03  0.39469424964E+03  0.97584677123E+03  0.11061297234E+04  0.88362155337E+02 0.  0.
         11    1    3    3    0    0 -0.12373271933E+03  0.10865077720E+03  0.38279369736E+03  0.41670828160E+03  0.00000000000E+00 0.  1.
        -11    1    3    3    0    0 -0.20437491990E+03  0.28604347245E+03  0.59305307387E+03  0.68942144182E+03  0.00000000000E+00 0. -1.
         22    1    1    2    0    0  0.32810763923E+03 -0.39469424964E+03  0.14521640682E+03  0.53340976597E+03  0.00000000000E+00 0.  1.
<mgrwt>
<rscale>  0 0.11963725E+04</rscale>
<asrwt>0</asrwt>
<pdfrwt beam="1">  1        1 0.21235405E+00 0.11963725E+04</pdfrwt>
<pdfrwt beam="2">  1       -1 0.39882794E-01 0.11963725E+04</pdfrwt>
<totfact> 0.48069659E+01</totfact>
</mgrwt>
</event>
<event>
 6    1  0.1072514E-005  0.1635951E+04  0.7818608E-02  0.8798761E-01
         -1   -1    0    0    0  501 -0.00000000000E+00  0.00000000000E+00  0.27681442017E+03  0.27681442017E+03  0.00000000000E+00 0.  1.
          1   -1    0    0  501    0  0.00000000000E+00 -0.00000000000E+00 -0.24170839397E+04  0.24170839397E+04  0.00000000000E+00 0. -1.
         23    2    1    2    0    0 -0.51594940714E+03 -0.10878682027E+03 -0.20975662181E+04  0.21648785729E+04  0.94216947988E+02 0.  0.
         11    1    3    3    0    0 -0.25397866142E+03 -0.22653472610E+02 -0.86264237705E+03  0.89953888797E+03  0.00000000000E+00 0.  1.
        -11    1    3    3    0    0 -0.26197074572E+03 -0.86133347659E+02 -0.12349238410E+04  0.12653396850E+04  0.00000000000E+00 0. -1.
         22    1    1    2    0    0  0.51594940714E+03  0.10878682027E+03 -0.42703301419E+02  0.52901978691E+03  0.00000000000E+00 0.  1.
<mgrwt>
<rscale>  0 0.16359507E+04</rscale>
<asrwt>0</asrwt>
<pdfrwt beam="1">  1        1 0.37185906E+00 0.16359507E+04</pdfrwt>
<pdfrwt beam="2">  1       -1 0.42586835E-01 0.16359507E+04</pdfrwt>
<totfact> 0.80391858E+00</totfact>
</mgrwt>
</event>
<event>
 6    1  0.1072514E-005  0.1902542E+04  0.7818608E-02  0.8653592E-01
         -1   -1    0    0    0  501 -0.00000000000E+00  0.00000000000E+00  0.12676303926E+04  0.12676303926E+04  0.00000000000E+00 0.  1.
          1   -1    0    0  501    0  0.00000000000E+00 -0.00000000000E+00 -0.71386444254E+03  0.71386444254E+03  0.00000000000E+00 0. -1.
         23    2    1    2    0    0  0.30408917734E+03  0.15248680324E+03  0.12003661773E+04  0.12508688660E+04  0.89841567950E+02 0.  0.
         11    1    3    3    0    0  0.19580423559E+03  0.14433313572E+03  0.82886914987E+03  0.86382603593E+03  0.00000000000E+00 0.  1.
        -11    1    3    3    0    0  0.10828494175E+03  0.81536675176E+01  0.37149702742E+03  0.38704283004E+03  0.00000000000E+00 0. -1.
         22    1    1    2    0    0 -0.30408917734E+03 -0.15248680324E+03 -0.64660022724E+03  0.73062596916E+03  0.00000000000E+00 0. -1.
<mgrwt>
<rscale>  0 0.19025417E+04</rscale>
<asrwt>0</asrwt>
<pdfrwt beam="1">  1        1 0.10982530E+00 0.19025417E+04</pdfrwt>
<pdfrwt beam="2">  1       -1 0.19502006E+00 0.19025417E+04</pdfrwt>
<totfact> 0.40298593E+00</totfact>
</mgrwt>
</event>
<event>
 6    1  0.1072514E-005  0.2050773E+04  0.7818608E-02  0.8583244E-01
          1   -1    0    0  501    0  0.00000000000E+00  0.00000000000E+00  0.10631717539E+04  0.10631717539E+04  0.00000000000E+00 0. -1.
         -1   -1    0    0    0  501 -0.00000000000E+00 -0.00000000000E+00 -0.98894452404E+03  0.98894452404E+03  0.00000000000E+00 0.  1.
         23    2    1    2    0    0 -0.81946257121E+03  0.57141298979E+03  0.26214030519E+03  0.10355814608E+04  0.75363862968E+02 0.  0.
         11    1    3    3    0    0 -0.78494125217E+03  0.52799607301E+03  0.24093539500E+03  0.97619797533E+03  0.00000000000E+00 0. -1.
        -11    1    3    3    0    0 -0.34521319035E+02  0.43416916778E+02  0.21204910191E+02  0.59383485471E+02  0.00000000000E+00 0.  1.
         22    1    1    2    0    0  0.81946257121E+03 -0.57141298979E+03 -0.18791307537E+03  0.10165348171E+04  0.00000000000E+00 0.  1.
<mgrwt>
<rscale>  0 0.20507734E+04</rscale>
<asrwt>0</asrwt>
<pdfrwt beam="1">  1        1 0.16356488E+00 0.20507734E+04</pdfrwt>
<pdfrwt beam="2">  1       -1 0.15214531E+00 0.20507734E+04</pdfrwt>
<totfact> 0.41931552E+00</totfact>
</mgrwt>
</event>
<event>
 6    1  0.1072514E-005  0.2369610E+04  0.7818608E-02  0.8450969E-01
          2   -1    0    0  501    0  0.00000000000E+00  0.00000000000E+00  0.17181662375E+04  0.17181662375E+04  0.00000000000E+00 0. -1.
         -2   -1    0    0    0  501 -0.00000000000E+00 -0.00000000000E+00 -0.81701247533E+03  0.81701247533E+03  0.00000000000E+00 0.  1.
         23    2    1    2    0    0 -0.31592498762E+03 -0.85215411443E+02  0.16675524598E+04  0.17018497094E+04  0.92146421657E+02 0.  0.
         11    1    3    3    0    0 -0.24922601367E+03 -0.38537722038E+02  0.11033328309E+04  0.11317871256E+04  0.00000000000E+00 0.  1.
        -11    1    3    3    0    0 -0.66698973949E+02 -0.46677689404E+02  0.56421962897E+03  0.57006258387E+03  0.00000000000E+00 0. -1.
         22    1    1    2    0    0  0.31592498762E+03  0.85215411443E+02 -0.76639869766E+03  0.83332900341E+03  0.00000000000E+00 0.  1.
<mgrwt>
<rscale>  0 0.23696103E+04</rscale>
<asrwt>0</asrwt>
<pdfrwt beam="1">  1        2 0.26433327E+00 0.23696103E+04</pdfrwt>
<pdfrwt beam="2">  1       -2 0.12569423E+00 0.23696103E+04</pdfrwt>
<totfact> 0.40846280E+00</totfact>
</mgrwt>
</event>
<event>
 6    1  0.1072514E-005  0.3248840E+04  0.7818608E-02  0.8176036E-01
         -3   -1    0    0    0  501 -0.00000000000E+00  0.00000000000E+00  0.19694051178E+04  0.19694051178E+04  0.00000000000E+00 0.  1.
          3   -1    0    0  501    0  0.00000000000E+00 -0.00000000000E+00 -0.13398669092E+04  0.13398669092E+04  0.00000000000E+00 0. -1.
         23    2    1    2    0    0  0.38885256940E+03  0.31397377460E+03 -0.12580932933E+04  0.13565973129E+04  0.88157148920E+02 0.  0.
         11    1    3    3    0    0  0.34539961588E+03  0.26624971125E+03 -0.10077227831E+04  0.10980414432E+04  0.00000000000E+00 0.  1.
        -11    1    3    3    0    0  0.43452953519E+02  0.47724063351E+02 -0.25037051017E+03  0.25855586970E+03  0.00000000000E+00 0. -1.
         22    1    1    2    0    0 -0.38885256940E+03 -0.31397377460E+03  0.18876315019E+04  0.19526747140E+04  0.00000000000E+00 0.  1.
<mgrwt>
<rscale>  0 0.32488403E+04</rscale>
<asrwt>0</asrwt>
<pdfrwt beam="1">  1        3 0.20613337E+00 0.32488403E+04</pdfrwt>
<pdfrwt beam="2">  1       -3 0.30298540E+00 0.32488403E+04</pdfrwt>
<totfact> 0.10701866E-02</totfact>
</mgrwt>
</event>
<event>
 6    1  0.1072514E-005  0.2744019E+04  0.7818608E-02  0.8320862E-01
          2   -1    0    0  501    0  0.00000000000E+00  0.00000000000E+00  0.70622156386E+03  0.70622156386E+03  0.00000000000E+00 0. -1.
         -2   -1    0    0    0  501 -0.00000000000E+00 -0.00000000000E+00 -0.26654666892E+04  0.26654666892E+04  0.00000000000E+00 0.  1.
         23    2    1    2    0    0 -0.53516614058E+03  0.12082463271E+04 -0.53388541482E+03  0.14280030189E+04  0.88865070937E+02 0.  0.
         13    1    3    3    0    0 -0.30115429878E+03  0.58027978439E+03 -0.28369049640E+03  0.71267021657E+03  0.00000000000E+00 0.  1.
        -13    1    3    3    0    0 -0.23401184180E+03  0.62796654274E+03 -0.25019491841E+03  0.71533280234E+03  0.00000000000E+00 0. -1.
         22    1    1    2    0    0  0.53516614058E+03 -0.12082463271E+04 -0.14253597105E+04  0.19436852341E+04  0.00000000000E+00 0. -1.
<mgrwt>
<rscale>  0 0.27440190E+04</rscale>
<asrwt>0</asrwt>
<pdfrwt beam="1">  1        2 0.10864947E+00 0.27440190E+04</pdfrwt>
<pdfrwt beam="2">  1       -2 0.41007180E+00 0.27440190E+04</pdfrwt>
<totfact> 0.22566565E-01</totfact>
</mgrwt>
</event>
<event>
 6    1  0.1072514E-005  0.1423480E+04  0.7818608E-02  0.8936996E-01
         -2   -1    0    0    0  501 -0.00000000000E+00  0.00000000000E+00  0.86520792286E+03  0.86520792286E+03  0.00000000000E+00 0. -1.
          2   -1    0    0  501    0  0.00000000000E+00 -0.00000000000E+00 -0.58549355055E+03  0.58549355055E+03  0.00000000000E+00 0.  1.
         23    2    1    2    0    0  0.54160369553E+03 -0.45726494972E+03  0.14108067292E+03  0.72845144755E+03  0.91169939774E+02 0.  0.
         11    1    3    3    0    0  0.27486168046E+03 -0.28319147829E+03  0.54623420043E+02  0.39840943108E+03  0.00000000000E+00 0. -1.
        -11    1    3    3    0    0  0.26674201507E+03 -0.17407347143E+03  0.86457252881E+02  0.33004201647E+03  0.00000000000E+00 0.  1.
         22    1    1    2    0    0 -0.54160369553E+03  0.45726494972E+03  0.13863369938E+03  0.72225002586E+03  0.00000000000E+00 0.  1.
<mgrwt>
<rscale>  0 0.14234798E+04</rscale>
<asrwt>0</asrwt>
<pdfrwt beam="1">  1        2 0.90075930E-01 0.14234798E+04</pdfrwt>
<pdfrwt beam="2">  1       -2 0.13310891E+00 0.14234798E+04</pdfrwt>
<totfact> 0.20290815E+01</totfact>
</mgrwt>
</event>
<event>
 6    1  0.1072514E-005  0.2481301E+04  0.7818608E-02  0.8409678E-01
          2   -1    0    0  501    0  0.00000000000E+00  0.00000000000E+00  0.23828671654E+04  0.23828671654E+04  0.00000000000E+00 0. -1.
         -2   -1    0    0    0  501 -0.00000000000E+00 -0.00000000000E+00 -0.64595010875E+03  0.64595010875E+03  0.00000000000E+00 0.  1.
         23    2    1    2    0    0  0.81721888674E+03  0.66978606947E+03  0.16593959622E+04  0.19693506122E+04  0.91031789307E+02 0.  0.
         11    1    3    3    0    0  0.37564033195E+03  0.35177478873E+03  0.86286444482E+03  0.10046821443E+04  0.00000000000E+00 0. -1.
        -11    1    3    3    0    0  0.44157855479E+03  0.31801128074E+03  0.79653151735E+03  0.96466846784E+03  0.00000000000E+00 0.  1.
         22    1    1    2    0    0 -0.81721888674E+03 -0.66978606947E+03  0.77521094438E+02  0.10594666619E+04  0.00000000000E+00 0. -1.
<mgrwt>
<rscale>  0 0.24813007E+04</rscale>
<asrwt>0</asrwt>
<pdfrwt beam="1">  1        2 0.36659495E+00 0.24813007E+04</pdfrwt>
<pdfrwt beam="2">  1       -2 0.99376941E-01 0.24813007E+04</pdfrwt>
<totfact> 0.30445468E+00</totfact>
</mgrwt>
</event>
<event>
 6    1  0.1072514E-005  0.1646089E+04  0.7818608E-02  0.8792724E-01
         -1   -1    0    0    0  501 -0.00000000000E+00  0.00000000000E+00  0.45378753573E+03  0.45378753573E+03  0.00000000000E+00 0.  1.
          1   -1    0    0  501    0  0.00000000000E+00 -0.00000000000E+00 -0.14927732042E+04  0.14927732042E+04  0.00000000000E+00 0. -1.
         23    2    1    2    0    0  0.43714258571E+03 -0.23152746843E+03  0.25345466184E+03  0.56268913595E+03  0.87642394066E+02 0.  0.
         13    1    3    3    0    0  0.15489500518E+03 -0.12029088899E+03  0.12921191702E+03  0.23485757408E+03  0.00000000000E+00 0. -1.
        -13    1    3    3    0    0  0.28224758053E+03 -0.11123657944E+03  0.12424274482E+03  0.32783156187E+03  0.00000000000E+00 0.  1.
         22    1    1    2    0    0 -0.43714258571E+03  0.23152746843E+03 -0.12924403303E+04  0.13838716039E+04  0.00000000000E+00 0. -1.
<mgrwt>
<rscale>  0 0.16460885E+04</rscale>
<asrwt>0</asrwt>
<pdfrwt beam="1">  1        1 0.22965742E+00 0.16460885E+04</pdfrwt>
<pdfrwt beam="2">  1       -1 0.69813467E-01 0.16460885E+04</pdfrwt>
<totfact> 0.13122869E+01</totfact>
</mgrwt>
</event>
<event>
 6    1  0.1072514E-005  0.1006057E+04  0.7818608E-02  0.9301926E-01
         -2   -1    0    0    0  501 -0.00000000000E+00  0.00000000000E+00  0.72119407687E+02  0.72119407687E+02  0.00000000000E+00 0.  1.
          2   -1    0    0  501    0  0.00000000000E+00 -0.00000000000E+00 -0.35085941319E+04  0.35085941319E+04  0.00000000000E+00 0. -1.
         23    2    1    2    0    0  0.44665712340E+03 -0.18778262172E+03 -0.13124637817E+04  0.14021389177E+04  0.93099234975E+02 0.  0.
         11    1    3    3    0    0  0.93495888753E+02 -0.80419568966E+02 -0.29233944870E+03  0.31728715946E+03  0.00000000000E+00 0. -1.
        -11    1    3    3    0    0  0.35316123464E+03 -0.10736305276E+03 -0.10201243330E+04  0.10848517583E+04  0.00000000000E+00 0.  1.
         22    1    1    2    0    0 -0.44665712340E+03  0.18778262172E+03 -0.21240109426E+04  0.21785746219E+04  0.00000000000E+00 0. -1.
<mgrwt>
<rscale>  0 0.10060571E+04</rscale>
<asrwt>0</asrwt>
<pdfrwt beam="1">  1        2 0.53978364E+00 0.10060571E+04</pdfrwt>
<pdfrwt beam="2">  1       -2 0.11095295E-01 0.10060571E+04</pdfrwt>
<totfact> 0.48301423E+01</totfact>
</mgrwt>
</event>
<event>
 6    1  0.1072514E-005  0.2221295E+04  0.7818608E-02  0.8509616E-01
         -1   -1    0    0    0  501 -0.00000000000E+00  0.00000000000E+00  0.78735271751E+03  0.78735271751E+03  0.00000000000E+00 0.  1.
          1   -1    0    0  501    0  0.00000000000E+00 -0.00000000000E+00 -0.15666908622E+04  0.15666908622E+04  0.00000000000E+00 0. -1.
         23    2    1    2    0    0  0.99136884889E+02  0.95739693600E+03  0.19247766762E+03  0.98624864331E+03  0.95925590408E+02 0.  0.
         13    1    3    3    0    0  0.48940273500E+02  0.27922002841E+03  0.17236894151E+02  0.28400014992E+03  0.00000000000E+00 0. -1.
        -13    1    3    3    0    0  0.50196611389E+02  0.67817690758E+03  0.17524077347E+03  0.70224849338E+03  0.00000000000E+00 0.  1.
         22    1    1    2    0    0 -0.99136884889E+02 -0.95739693600E+03 -0.97181581232E+03  0.13677949364E+04  0.00000000000E+00 0. -1.
<mgrwt>
<rscale>  0 0.22212954E+04</rscale>
<asrwt>0</asrwt>
<pdfrwt beam="1">  1        1 0.24102936E+00 0.22212954E+04</pdfrwt>
<pdfrwt beam="2">  1       -1 0.12113119E+00 0.22212954E+04</pdfrwt>
<totfact> 0.32385136E+00</totfact>
</mgrwt>
</event>
<event>
 6    1  0.1072514E-005  0.3636993E+03  0.7818608E-02  0.1057129E+00
         -2   -1    0    0    0  501 -0.00000000000E+00  0.00000000000E+00  0.18592435033E+03  0.18592435033E+03  0.00000000000E+00 0.  1.
          2   -1    0    0  501    0  0.00000000000E+00 -0.00000000000E+00 -0.17786421746E+03  0.17786421746E+03  0.00000000000E+00 0. -1.
         23    2    1    2    0    0 -0.10215776530E+03 -0.41280408703E+02  0.13494891099E+03  0.19573785174E+03  0.89229013620E+02 0.  0.
         11    1    3    3    0    0 -0.64198412109E+02  0.14454414814E+02  0.10020270794E+03  0.11987889265E+03  0.00000000000E+00 0.  1.
        -11    1    3    3    0    0 -0.37959353193E+02 -0.55734823517E+02  0.34746203049E+02  0.75858959086E+02  0.00000000000E+00 0. -1.
         22    1    1    2    0    0  0.10215776530E+03  0.41280408703E+02 -0.12688877811E+03  0.16805071605E+03  0.00000000000E+00 0. -1.
<mgrwt>
<rscale>  0 0.36369927E+03</rscale>
<asrwt>0</asrwt>
<pdfrwt beam="1">  1        2 0.27363726E-01 0.36369927E+03</pdfrwt>
<pdfrwt beam="2">  1       -2 0.28603746E-01 0.36369927E+03</pdfrwt>
<totfact> 0.21792609E+03</totfact>
</mgrwt>
</event>
<event>
 6    1  0.1072514E-005  0.1941862E+04  0.7818608E-02  0.8634295E-01
          3   -1    0    0  501    0  0.00000000000E+00  0.00000000000E+00  0.45081860862E+03  0.45081860862E+03  0.00000000000E+00 0. -1.
         -3   -1    0    0    0  501 -0.00000000000E+00 -0.00000000000E+00 -0.20911001702E+04  0.20911001702E+04  0.00000000000E+00 0.  1.
         23    2    1    2    0    0 -0.38096866329E+03 -0.57968564376E+03  0.62747607138E+02  0.70303843539E+03  0.95672417335E+02 0.  0.
         11    1    3    3    0    0 -0.20882440731E+03 -0.23854979710E+03  0.47937095632E+02  0.32064248614E+03  0.00000000000E+00 0.  1.
        -11    1    3    3    0    0 -0.17214425598E+03 -0.34113584667E+03  0.14810511506E+02  0.38239594924E+03  0.00000000000E+00 0. -1.
         22    1    1    2    0    0  0.38096866329E+03  0.57968564376E+03 -0.17030291688E+04  0.18388803435E+04  0.00000000000E+00 0.  1.
<mgrwt>
<rscale>  0 0.19418619E+04</rscale>
<asrwt>0</asrwt>
<pdfrwt beam="1">  1        3 0.69356708E-01 0.19418619E+04</pdfrwt>
<pdfrwt beam="2">  1       -3 0.32170772E+00 0.19418619E+04</pdfrwt>
<totfact> 0.13994378E-01</totfact>
</mgrwt>
</event>
<event>
 6    1  0.1072514E-005  0.3180748E+04  0.7818608E-02  0.8193920E-01
          1   -1    0    0  501    0  0.00000000000E+00  0.00000000000E+00  0.14322738901E+04  0.14322738901E+04  0.00000000000E+00 0. -1.
         -1   -1    0    0    0  501 -0.00000000000E+00 -0.00000000000E+00 -0.17659260987E+04  0.17659260987E+04  0.00000000000E+00 0.  1.
         23    2    1    2    0    0 -0.10021124466E+04 -0.40592103470E+03  0.10039537581E+04  0.14782607561E+04  0.91271421603E+02 0.  0.
         11    1    3    3    0    0 -0.41341113812E+03 -0.21414477540E+03  0.44862341494E+03  0.64655218072E+03  0.00000000000E+00 0.  1.
        -11    1    3    3    0    0 -0.58870130848E+03 -0.19177625930E+03  0.55533034317E+03  0.83170857533E+03  0.00000000000E+00 0. -1.
         22    1    1    2    0    0  0.10021124466E+04  0.40592103470E+03 -0.13376059667E+04  0.17199392327E+04  0.00000000000E+00 0.  1.
<mgrwt>
<rscale>  0 0.31807482E+04</rscale>
<asrwt>0</asrwt>
<pdfrwt beam="1">  1        1 0.22034983E+00 0.31807482E+04</pdfrwt>
<pdfrwt beam="2">  1       -1 0.27168094E+00 0.31807482E+04</pdfrwt>
<totfact> 0.30792318E-01</totfact>
</mgrwt>
</event>
<event>
 6    1  0.1072514E-005  0.2560859E+04  0.7818608E-02  0.8381619E-01
          2   -1    0    0  501    0  0.00000000000E+00  0.00000000000E+00  0.20622708277E+04  0.20622708277E+04  0.00000000000E+00 0.  1.
         -2   -1    0    0    0  501 -0.00000000000E+00 -0.00000000000E+00 -0.79499704052E+03  0.79499704052E+03  0.00000000000E+00 0. -1.
         23    2    1    2    0    0 -0.48270351863E+03  0.14840442424E+03 -0.67641683826E+03  0.84904482099E+03  0.91163638191E+02 0.  0.
         11    1    3    3    0    0 -0.42241442105E+03  0.14466463102E+03 -0.54602072135E+03  0.70533710148E+03  0.00000000000E+00 0.  1.
        -11    1    3    3    0    0 -0.60289097582E+02  0.37397932161E+01 -0.13039611691E+03  0.14370771951E+03  0.00000000000E+00 0. -1.
         22    1    1    2    0    0  0.48270351863E+03 -0.14840442424E+03  0.19436906254E+04  0.20082230472E+04  0.00000000000E+00 0.  1.
<mgrwt>
<rscale>  0 0.25608586E+04</rscale>
<asrwt>0</asrwt>
<pdfrwt beam="1">  1        2 0.31727243E+00 0.25608586E+04</pdfrwt>
<pdfrwt beam="2">  1       -2 0.12230724E+00 0.25608586E+04</pdfrwt>
<totfact> 0.27716733E+00</totfact>
</mgrwt>
</event>
<event>
 6    1  0.1072514E-005  0.2134376E+04  0.7818608E-02  0.8546250E-01
         -2   -1    0    0    0  501 -0.00000000000E+00  0.00000000000E+00  0.10402826166E+04  0.10402826166E+04  0.00000000000E+00 0.  1.
          2   -1    0    0  501    0  0.00000000000E+00 -0.00000000000E+00 -0.10947897566E+04  0.10947897566E+04  0.00000000000E+00 0. -1.
         23    2    1    2    0    0 -0.97347353815E+03  0.27472444324E+03 -0.36153673441E+03  0.10780050050E+04  0.90894066002E+02 0.  0.
         11    1    3    3    0    0 -0.21309612240E+03  0.98637613942E+02 -0.73496739165E+02  0.24605102506E+03  0.00000000000E+00 0.  1.
        -11    1    3    3    0    0 -0.76037741575E+03  0.17608682930E+03 -0.28803999525E+03  0.83195397991E+03  0.00000000000E+00 0. -1.
         22    1    1    2    0    0  0.97347353815E+03 -0.27472444324E+03  0.30702959436E+03  0.10570673682E+04  0.00000000000E+00 0. -1.
<mgrwt>
<rscale>  0 0.21343765E+04</rscale>
<asrwt>0</asrwt>
<pdfrwt beam="1">  1        2 0.16842919E+00 0.21343765E+04</pdfrwt>
<pdfrwt beam="2">  1       -2 0.16004348E+00 0.21343765E+04</pdfrwt>
<totfact> 0.50766683E+00</totfact>
</mgrwt>
</event>
<event>
 6    1  0.1072514E-005  0.3541506E+04  0.7818608E-02  0.8104023E-01
         -1   -1    0    0    0  501 -0.00000000000E+00  0.00000000000E+00  0.35081945016E+04  0.35081945016E+04  0.00000000000E+00 0.  1.
          1   -1    0    0  501    0  0.00000000000E+00 -0.00000000000E+00 -0.89378363353E+03  0.89378363353E+03  0.00000000000E+00 0. -1.
         23    2    1    2    0    0 -0.15415376507E+04  0.80483133800E+03  0.90094318378E+03  0.19606540443E+04  0.91508741953E+02 0.  0.
         11    1    3    3    0    0 -0.95845707723E+03  0.49778027772E+03  0.50931586102E+03  0.11940803240E+04  0.00000000000E+00 0.  1.
        -11    1    3    3    0    0 -0.58308057350E+03  0.30705106027E+03  0.39162732276E+03  0.76657372036E+03  0.00000000000E+00 0. -1.
         22    1    1    2    0    0  0.15415376507E+04 -0.80483133800E+03  0.17134676843E+04  0.24413240908E+04  0.00000000000E+00 0.  1.
<mgrwt>
<rscale>  0 0.35415064E+04</rscale>
<asrwt>0</asrwt>
<pdfrwt beam="1">  1        1 0.13750518E+00 0.35415064E+04</pdfrwt>
<pdfrwt beam="2">  1       -1 0.53972223E+00 0.35415064E+04</pdfrwt>
<totfact> 0.12772358E-02</totfact>
</mgrwt>
</event>
<event>
 6    1  0.1072514E-005  0.1451984E+04  0.7818608E-02  0.8917026E-01
         -1   -1    0    0    0  501 -0.00000000000E+00  0.00000000000E+00  0.17440783678E+03  0.17440783678E+03  0.00000000000E+00 0.  1.
          1   -1    0    0  501    0  0.00000000000E+00 -0.00000000000E+00 -0.30220212335E+04  0.30220212335E+04  0.00000000000E+00 0. -1.
         23    2    1    2    0    0  0.17568663515E+03  0.40752289803E+03 -0.17273557491E+03  0.48498811245E+03  0.91843258799E+02 0.  0.
         11    1    3    3    0    0  0.13014952831E+03  0.23990893741E+03 -0.14511087489E+03  0.30911545412E+03  0.00000000000E+00 0.  1.
        -11    1    3    3    0    0  0.45537106839E+02  0.16761396062E+03 -0.27624700024E+02  0.17587265832E+03  0.00000000000E+00 0. -1.
         22    1    1    2    0    0 -0.17568663515E+03 -0.40752289803E+03 -0.26748778218E+04  0.27114409579E+04  0.00000000000E+00 0. -1.
<mgrwt>
<rscale>  0 0.14519837E+04</rscale>
<asrwt>0</asrwt>
<pdfrwt beam="1">  1        1 0.46492632E+00 0.14519837E+04</pdfrwt>
<pdfrwt beam="2">  1       -1 0.26831976E-01 0.14519837E+04</pdfrwt>
<totfact> 0.69849445E+00</totfact>
</mgrwt>
</event>
<event>
 6    1  0.1072514E-005  0.2368892E+04  0.7818608E-02  0.8451243E-01
         -2   -1    0    0    0  501 -0.00000000000E+00  0.00000000000E+00  0.82051797920E+03  0.82051797920E+03  0.00000000000E+00 0. -1.
          2   -1    0    0  501    0  0.00000000000E+00 -0.00000000000E+00 -0.17097887896E+04  0.17097887896E+04  0.00000000000E+00 0.  1.
         23    2    1    2    0    0  0.26029495763E+03 -0.11517417862E+03  0.78128237111E+03  0.83567805176E+03  0.83289293396E+02 0.  0.
         11    1    3    3    0    0  0.25111438869E+03 -0.86894117913E+02  0.67837301519E+03  0.72855951828E+03  0.00000000000E+00 0. -1.
        -11    1    3    3    0    0  0.91805689495E+01 -0.28280060706E+02  0.10290935592E+03  0.10711853348E+03  0.00000000000E+00 0.  1.
         22    1    1    2    0    0 -0.26029495763E+03  0.11517417862E+03 -0.16705531815E+04  0.16946287170E+04  0.00000000000E+00 0.  1.
<mgrwt>
<rscale>  0 0.23688921E+04</rscale>
<asrwt>0</asrwt>
<pdfrwt beam="1">  1        2 0.26304443E+00 0.23688921E+04</pdfrwt>
<pdfrwt beam="2">  1       -2 0.12623354E+00 0.23688921E+04</pdfrwt>
<totfact> 0.40847156E+00</totfact>
</mgrwt>
</event>
<event>
 6    1  0.1072514E-005  0.2535823E+04  0.7818608E-02  0.8390333E-01
         -1   -1    0    0    0  501 -0.00000000000E+00  0.00000000000E+00  0.52920005886E+03  0.52920005886E+03  0.00000000000E+00 0.  1.
          1   -1    0    0  501    0  0.00000000000E+00 -0.00000000000E+00 -0.30377922531E+04  0.30377922531E+04  0.00000000000E+00 0. -1.
         23    2    1    2    0    0 -0.35141591999E+03 -0.33835171637E+03  0.38780471006E+03  0.62980146695E+03  0.91007482260E+02 0.  0.
         11    1    3    3    0    0 -0.27363306214E+03 -0.20579418863E+03  0.26006047544E+03  0.42995087121E+03  0.00000000000E+00 0.  1.
        -11    1    3    3    0    0 -0.77782857851E+02 -0.13255752774E+03  0.12774423463E+03  0.19985059573E+03  0.00000000000E+00 0. -1.
         22    1    1    2    0    0  0.35141591999E+03  0.33835171637E+03 -0.28963969043E+04  0.29371908450E+04  0.00000000000E+00 0. -1.
<mgrwt>
<rscale>  0 0.25358232E+04</rscale>
<asrwt>0</asrwt>
<pdfrwt beam="1">  1        1 0.46735265E+00 0.25358232E+04</pdfrwt>
<pdfrwt beam="2">  1       -1 0.81415394E-01 0.25358232E+04</pdfrwt>
<totfact> 0.74625696E-01</totfact>
</mgrwt>
</event>
<event>
 6    1  0.1072514E-005  0.5387183E+04  0.7818608E-02  0.7771406E-01
         -2   -1    0    0    0  501 -0.00000000000E+00  0.00000000000E+00  0.22963221003E+04  0.22963221003E+04  0.00000000000E+00 0.  1.
          2   -1    0    0  501    0  0.00000000000E+00 -0.00000000000E+00 -0.31595890756E+04  0.31595890756E+04  0.00000000000E+00 0. -1.
         23    2    1    2    0    0  0.17193284423E+04 -0.16759931818E+04  0.80295685098E+03  0.25333531736E+04  0.89973103914E+02 0.  0.
         13    1    3    3    0    0  0.11326328588E+04 -0.11011619688E+04  0.48314576533E+03  0.16519215190E+04  0.00000000000E+00 0.  1.
        -13    1    3    3    0    0  0.58669558353E+03 -0.57483121303E+03  0.31981108564E+03  0.88143165459E+03  0.00000000000E+00 0. -1.
         22    1    1    2    0    0 -0.17193284423E+04  0.16759931818E+04 -0.16662238262E+04  0.29225580024E+04  0.00000000000E+00 0. -1.
<mgrwt>
<rscale>  0 0.53871826E+04</rscale>
<asrwt>0</asrwt>
<pdfrwt beam="1">  1        2 0.48609062E+00 0.53871826E+04</pdfrwt>
<pdfrwt beam="2">  1       -2 0.35328033E+00 0.53871826E+04</pdfrwt>
<totfact> 0.14418748E-02</totfact>
</mgrwt>
</event>
<event>
 6    1  0.1072514E-005  0.3762980E+04  0.7818608E-02  0.8054146E-01
         -2   -1    0    0    0  501 -0.00000000000E+00  0.00000000000E+00  0.13907740880E+04  0.13907740880E+04  0.00000000000E+00 0.  1.
          2   -1    0    0  501    0  0.00000000000E+00 -0.00000000000E+00 -0.25453479017E+04  0.25453479017E+04  0.00000000000E+00 0. -1.
         23    2    1    2    0    0 -0.10723511226E+04 -0.10586554145E+04 -0.17541608687E+04  0.23143350575E+04  0.91532444570E+02 0.  0.
         11    1    3    3    0    0 -0.56420513366E+03 -0.53817445407E+03 -0.97446723145E+03  0.12480166509E+04  0.00000000000E+00 0. -1.
        -11    1    3    3    0    0 -0.50814598892E+03 -0.52048096040E+03 -0.77969363727E+03  0.10663184066E+04  0.00000000000E+00 0.  1.
         22    1    1    2    0    0  0.10723511226E+04  0.10586554145E+04  0.59958705506E+03  0.16217869321E+04  0.00000000000E+00 0.  1.
<mgrwt>
<rscale>  0 0.37629796E+04</rscale>
<asrwt>0</asrwt>
<pdfrwt beam="1">  1        2 0.39159198E+00 0.37629796E+04</pdfrwt>
<pdfrwt beam="2">  1       -2 0.21396525E+00 0.37629796E+04</pdfrwt>
<totfact> 0.28448107E-01</totfact>
</mgrwt>
</event>
<event>
 6    1  0.1072514E-005  0.7236819E+03  0.7818608E-02  0.9677569E-01
          2   -1    0    0  501    0  0.00000000000E+00  0.00000000000E+00  0.14234008709E+04  0.14234008709E+04  0.00000000000E+00 0. -1.
         -2   -1    0    0    0  501 -0.00000000000E+00 -0.00000000000E+00 -0.91983129025E+02  0.91983129025E+02  0.00000000000E+00 0.  1.
         23    2    1    2    0    0 -0.32954555871E+03  0.12538468651E+03  0.57599202103E+03  0.68172362867E+03  0.93052150554E+02 0.  0.
         11    1    3    3    0    0 -0.25207676085E+03  0.13326020412E+03  0.47769387187E+03  0.55632042079E+03  0.00000000000E+00 0.  1.
        -11    1    3    3    0    0 -0.77468797860E+02 -0.78755176085E+01  0.98298149153E+02  0.12540320788E+03  0.00000000000E+00 0. -1.
         22    1    1    2    0    0  0.32954555871E+03 -0.12538468651E+03  0.75542572081E+03  0.83366037122E+03  0.00000000000E+00 0. -1.
<mgrwt>
<rscale>  0 0.72368188E+03</rscale>
<asrwt>0</asrwt>
<pdfrwt beam="1">  1        2 0.21898473E+00 0.72368188E+03</pdfrwt>
<pdfrwt beam="2">  1       -2 0.14151252E-01 0.72368188E+03</pdfrwt>
<totfact> 0.54905945E+02</totfact>
</mgrwt>
</event>
<event>
 6    1  0.1072514E-005  0.5984737E+04  0.7818608E-02  0.7692297E-01
          2   -1    0    0  501    0  0.00000000000E+00  0.00000000000E+00  0.39398664818E+04  0.39398664818E+04  0.00000000000E+00 0. -1.
         -2   -1    0    0    0  501 -0.00000000000E+00 -0.00000000000E+00 -0.22727341780E+04  0.22727341780E+04  0.00000000000E+00 0.  1.
         23    2    1    2    0    0 -0.19307432321E+04 -0.21283328454E+04  0.16978735851E+04  0.33388374205E+04  0.86547558632E+02 0.  0.
         11    1    3    3    0    0 -0.13601833609E+04 -0.15130406492E+04  0.12462327018E+04  0.23858932768E+04  0.00000000000E+00 0.  1.
        -11    1    3    3    0    0 -0.57055987120E+03 -0.61529219624E+03  0.45164088331E+03  0.95294414362E+03  0.00000000000E+00 0. -1.
         22    1    1    2    0    0  0.19307432321E+04  0.21283328454E+04 -0.30741281396E+02  0.28737632393E+04  0.00000000000E+00 0.  1.
<mgrwt>
<rscale>  0 0.59847370E+04</rscale>
<asrwt>0</asrwt>
<pdfrwt beam="1">  1        2 0.60613331E+00 0.59847370E+04</pdfrwt>
<pdfrwt beam="2">  1       -2 0.34965141E+00 0.59847370E+04</pdfrwt>
<totfact> 0.40096769E-03</totfact>
</mgrwt>
</event>
<event>
 6    1  0.1072514E-005  0.1405275E+04  0.7818608E-02  0.8950009E-01
          2   -1    0    0  501    0  0.00000000000E+00  0.00000000000E+00  0.14244119621E+04  0.14244119621E+04  0.00000000000E+00 0. -1.
         -2   -1    0    0    0  501 -0.00000000000E+00 -0.00000000000E+00 -0.34659884597E+03  0.34659884597E+03  0.00000000000E+00 0.  1.
         23    2    1    2    0    0 -0.24978430864E+03  0.57870830716E+03  0.92381866447E+03  0.11221581308E+04  0.92208677099E+02 0.  0.
         13    1    3    3    0    0 -0.14410017159E+02  0.92456872195E+02  0.99469458745E+02  0.13656535078E+03  0.00000000000E+00 0. -1.
        -13    1    3    3    0    0 -0.23537429148E+03  0.48625143497E+03  0.82434920572E+03  0.98559278004E+03  0.00000000000E+00 0.  1.
         22    1    1    2    0    0  0.24978430864E+03 -0.57870830716E+03  0.15399445166E+03  0.64885267724E+03  0.00000000000E+00 0.  1.
<mgrwt>
<rscale>  0 0.14052751E+04</rscale>
<asrwt>0</asrwt>
<pdfrwt beam="1">  1        2 0.21914030E+00 0.14052751E+04</pdfrwt>
<pdfrwt beam="2">  1       -2 0.53322900E-01 0.14052751E+04</pdfrwt>
<totfact> 0.45191215E+01</totfact>
</mgrwt>
</event>
<event>
 6    1  0.1072514E-005  0.5400094E+04  0.7818608E-02  0.7769588E-01
          1   -1    0    0  501    0  0.00000000000E+00  0.00000000000E+00  0.25412416197E+04  0.25412416197E+04  0.00000000000E+00 0. -1.
         -1   -1    0    0    0  501 -0.00000000000E+00 -0.00000000000E+00 -0.28687760195E+04  0.28687760195E+04  0.00000000000E+00 0.  1.
         23    2    1    2    0    0 -0.54068016531E+03 -0.13768511848E+03 -0.28096470884E+04  0.28659705422E+04  0.91532259851E+02 0.  0.
         13    1    3    3    0    0 -0.29688612612E+03 -0.28727084587E+02 -0.14573500514E+04  0.14875603482E+04  0.00000000000E+00 0.  1.
        -13    1    3    3    0    0 -0.24379403919E+03 -0.10895803389E+03 -0.13522970370E+04  0.13784101940E+04  0.00000000000E+00 0. -1.
         22    1    1    2    0    0  0.54068016531E+03  0.13768511848E+03  0.24821126886E+04  0.25440470970E+04  0.00000000000E+00 0. -1.
<mgrwt>
<rscale>  0 0.54000937E+04</rscale>
<asrwt>0</asrwt>
<pdfrwt beam="1">  1        1 0.39096025E+00 0.54000937E+04</pdfrwt>
<pdfrwt beam="2">  1       -1 0.44135016E+00 0.54000937E+04</pdfrwt>
<totfact> 0.33023726E-03</totfact>
</mgrwt>
</event>
<event>
 6    1  0.1072514E-005  0.1003261E+04  0.7818608E-02  0.9304975E-01
          2   -1    0    0  501    0  0.00000000000E+00  0.00000000000E+00  0.13799247025E+04  0.13799247025E+04  0.00000000000E+00 0. -1.
         -2   -1    0    0    0  501 -0.00000000000E+00 -0.00000000000E+00 -0.18235294030E+03  0.18235294030E+03  0.00000000000E+00 0.  1.
         23    2    1    2    0    0  0.11159799074E+03 -0.34004012255E+03  0.65719532876E+02  0.37519261405E+03  0.91482480026E+02 0.  0.
         13    1    3    3    0    0  0.36190237424E+02 -0.17873883044E+03  0.74318369783E+02  0.19692770978E+03  0.00000000000E+00 0. -1.
        -13    1    3    3    0    0  0.75407753319E+02 -0.16130129211E+03 -0.85988369073E+01  0.17826490427E+03  0.00000000000E+00 0.  1.
         22    1    1    2    0    0 -0.11159799074E+03  0.34004012255E+03  0.11318522293E+04  0.11870850288E+04  0.00000000000E+00 0. -1.
<mgrwt>
<rscale>  0 0.10032613E+04</rscale>
<asrwt>0</asrwt>
<pdfrwt beam="1">  1        2 0.21229610E+00 0.10032613E+04</pdfrwt>
<pdfrwt beam="2">  1       -2 0.28054300E-01 0.10032613E+04</pdfrwt>
<totfact> 0.17207827E+02</totfact>
</mgrwt>
</event>
<event>
 6    1  0.1072514E-005  0.1799298E+04  0.7818608E-02  0.8706673E-01
          2   -1    0    0  501    0  0.00000000000E+00  0.00000000000E+00  0.17315640837E+04  0.17315640837E+04  0.00000000000E+00 0.  1.
         -2   -1    0    0    0  501 -0.00000000000E+00 -0.00000000000E+00 -0.46742040294E+03  0.46742040294E+03  0.00000000000E+00 0. -1.
         23    2    1    2    0    0  0.36189312107E+03  0.60131949500E+03 -0.52934312749E+02  0.70658835722E+03  0.62556366138E+02 0.  0.
         13    1    3    3    0    0  0.20521983072E+03  0.39490123293E+03 -0.21707261480E+02  0.44557083376E+03  0.00000000000E+00 0. -1.
        -13    1    3    3    0    0  0.15667329034E+03  0.20641826207E+03 -0.31227051269E+02  0.26101752346E+03  0.00000000000E+00 0.  1.
         22    1    1    2    0    0 -0.36189312107E+03 -0.60131949500E+03  0.13170779936E+04  0.14923961295E+04  0.00000000000E+00 0.  1.
<mgrwt>
<rscale>  0 0.17992981E+04</rscale>
<asrwt>0</asrwt>
<pdfrwt beam="1">  1        2 0.26639447E+00 0.17992981E+04</pdfrwt>
<pdfrwt beam="2">  1       -2 0.71910832E-01 0.17992981E+04</pdfrwt>
<totfact> 0.15579910E+01</totfact>
</mgrwt>
</event>
<event>
 6    1  0.1072514E-005  0.3346089E+04  0.7818608E-02  0.8151266E-01
         -2   -1    0    0    0  501 -0.00000000000E+00  0.00000000000E+00  0.11553296681E+04  0.11553296681E+04  0.00000000000E+00 0.  1.
          2   -1    0    0  501    0  0.00000000000E+00 -0.00000000000E+00 -0.24227528067E+04  0.24227528067E+04  0.00000000000E+00 0. -1.
         23    2    1    2    0    0  0.11158719152E+04 -0.59207556522E+03 -0.18052621684E+04  0.22051314821E+04  0.88936779439E+02 0.  0.
         13    1    3    3    0    0  0.86187665104E+03 -0.47982620537E+03 -0.14609248095E+04  0.17627722054E+04  0.00000000000E+00 0. -1.
        -13    1    3    3    0    0  0.25399526420E+03 -0.11224935985E+03 -0.34433735883E+03  0.44235927672E+03  0.00000000000E+00 0.  1.
         22    1    1    2    0    0 -0.11158719152E+04  0.59207556522E+03  0.53783902976E+03  0.13729509926E+04  0.00000000000E+00 0.  1.
<mgrwt>
<rscale>  0 0.33460892E+04</rscale>
<asrwt>0</asrwt>
<pdfrwt beam="1">  1        2 0.37273120E+00 0.33460892E+04</pdfrwt>
<pdfrwt beam="2">  1       -2 0.17774303E+00 0.33460892E+04</pdfrwt>
<totfact> 0.60336032E-01</totfact>
</mgrwt>
</event>
<event>
 6    1  0.1072514E-005  0.4427284E+03  0.7818608E-02  0.1029913E+00
         -2   -1    0    0    0  501 -0.00000000000E+00  0.00000000000E+00  0.77836790156E+02  0.77836790156E+02  0.00000000000E+00 0.  1.
          2   -1    0    0  501    0  0.00000000000E+00 -0.00000000000E+00 -0.62954957780E+03  0.62954957780E+03  0.00000000000E+00 0. -1.
         23    2    1    2    0    0 -0.92481624748E+02  0.15236116924E+03 -0.47190816943E+03  0.51210310217E+03  0.88235424123E+02 0.  0.
         11    1    3    3    0    0 -0.12291822306E+02  0.94348391276E+02 -0.28718158375E+03  0.30253259308E+03  0.00000000000E+00 0. -1.
        -11    1    3    3    0    0 -0.80189802442E+02  0.58012777962E+02 -0.18472658569E+03  0.20957050909E+03  0.00000000000E+00 0.  1.
         22    1    1    2    0    0  0.92481624748E+02 -0.15236116924E+03 -0.79804618215E+02  0.19528326579E+03  0.00000000000E+00 0.  1.
<mgrwt>
<rscale>  0 0.44272844E+03</rscale>
<asrwt>0</asrwt>
<pdfrwt beam="1">  1        2 0.96853781E-01 0.44272844E+03</pdfrwt>
<pdfrwt beam="2">  1       -2 0.11974891E-01 0.44272844E+03</pdfrwt>
<totfact> 0.23777119E+03</totfact>
</mgrwt>
</event>
<event>
 6    1  0.1072514E-005  0.1092622E+04  0.7818608E-02  0.9212413E-01
          1   -1    0    0  501    0  0.00000000000E+00  0.00000000000E+00  0.97081780455E+03  0.97081780455E+03  0.00000000000E+00 0. -1.
         -1   -1    0    0    0  501 -0.00000000000E+00 -0.00000000000E+00 -0.30742731009E+03  0.30742731009E+03  0.00000000000E+00 0.  1.
         23    2    1    2    0    0 -0.74830271633E+02  0.31552461693E+03  0.84292871181E+03  0.90758445457E+03  0.89584460364E+02 0.  0.
         11    1    3    3    0    0 -0.74062013976E+02  0.16972421048E+03  0.38926919377E+03  0.43107075377E+03  0.00000000000E+00 0. -1.
        -11    1    3    3    0    0 -0.76825765708E+00  0.14580040645E+03  0.45365951804E+03  0.47651370080E+03  0.00000000000E+00 0.  1.
         22    1    1    2    0    0  0.74830271633E+02 -0.31552461693E+03 -0.17953821735E+03  0.37066066008E+03  0.00000000000E+00 0.  1.
<mgrwt>
<rscale>  0 0.10926224E+04</rscale>
<asrwt>0</asrwt>
<pdfrwt beam="1">  1        1 0.14935658E+00 0.10926224E+04</pdfrwt>
<pdfrwt beam="2">  1       -1 0.47296509E-01 0.10926224E+04</pdfrwt>
<totfact> 0.70906936E+01</totfact>
</mgrwt>
</event>
<event>
 6    1  0.1072514E-005  0.3766055E+04  0.7818608E-02  0.8053479E-01
          2   -1    0    0  501    0  0.00000000000E+00  0.00000000000E+00  0.20070256024E+04  0.20070256024E+04  0.00000000000E+00 0. -1.
         -2   -1    0    0    0  501 -0.00000000000E+00 -0.00000000000E+00 -0.17666903238E+04  0.17666903238E+04  0.00000000000E+00 0.  1.
         23    2    1    2    0    0 -0.80081379861E+03 -0.14887116833E+04  0.94868476727E+03  0.19408699931E+04  0.96996528011E+02 0.  0.
         11    1    3    3    0    0 -0.55258251972E+03 -0.97755256717E+03  0.58448601001E+03  0.12659306295E+04  0.00000000000E+00 0.  1.
        -11    1    3    3    0    0 -0.24823127889E+03 -0.51115911616E+03  0.36419875726E+03  0.67493936368E+03  0.00000000000E+00 0. -1.
         22    1    1    2    0    0  0.80081379861E+03  0.14887116833E+04 -0.70834948864E+03  0.18328459330E+04  0.00000000000E+00 0.  1.
<mgrwt>
<rscale>  0 0.37660551E+04</rscale>
<asrwt>0</asrwt>
<pdfrwt beam="1">  1        2 0.30877317E+00 0.37660551E+04</pdfrwt>
<pdfrwt beam="2">  1       -2 0.27179851E+00 0.37660551E+04</pdfrwt>
<totfact> 0.25160050E-01</totfact>
</mgrwt>
</event>
<event>
 6    1  0.1072514E-005  0.1350890E+04  0.7818608E-02  0.8990154E-01
          1   -1    0    0  501    0  0.00000000000E+00  0.00000000000E+00  0.57747832189E+03  0.57747832189E+03  0.00000000000E+00 0. -1.
         -1   -1    0    0    0  501 -0.00000000000E+00 -0.00000000000E+00 -0.79003168555E+03  0.79003168555E+03  0.00000000000E+00 0.  1.
         23    2    1    2    0    0  0.59399746455E+03 -0.25325841499E+03 -0.29676437971E+03  0.71630780545E+03  0.89749442468E+02 0.  0.
         13    1    3    3    0    0  0.53542199986E+03 -0.19690794817E+03 -0.26525115325E+03  0.62913244415E+03  0.00000000000E+00 0.  1.
        -13    1    3    3    0    0  0.58575464694E+02 -0.56350466824E+02 -0.31513226465E+02  0.87175361299E+02  0.00000000000E+00 0. -1.
         22    1    1    2    0    0 -0.59399746455E+03  0.25325841499E+03  0.84211016055E+02  0.65120220200E+03  0.00000000000E+00 0. -1.
<mgrwt>
<rscale>  0 0.13508903E+04</rscale>
<asrwt>0</asrwt>
<pdfrwt beam="1">  1        1 0.88842818E-01 0.13508903E+04</pdfrwt>
<pdfrwt beam="2">  1       -1 0.12154334E+00 0.13508903E+04</pdfrwt>
<totfact> 0.21257211E+01</totfact>
</mgrwt>
</event>
<event>
 6    1  0.1072514E-005  0.2394275E+03  0.7818608E-02  0.1120175E+00
         -3   -1    0    0    0  501 -0.00000000000E+00  0.00000000000E+00  0.15467133669E+04  0.15467133669E+04  0.00000000000E+00 0.  1.
          3   -1    0    0  501    0  0.00000000000E+00 -0.00000000000E+00 -0.92657035112E+01  0.92657035112E+01  0.00000000000E+00 0. -1.
         23    2    1    2    0    0  0.75581003201E+02 -0.59599675737E+02  0.11028823714E+04  0.11108817750E+04  0.91892238285E+02 0.  0.
         11    1    3    3    0    0 -0.19895449107E+02 -0.14911649758E+02  0.31476565931E+03  0.31574611078E+03  0.00000000000E+00 0. -1.
        -11    1    3    3    0    0  0.95476452308E+02 -0.44688025979E+02  0.78811671214E+03  0.79513566425E+03  0.00000000000E+00 0.  1.
         22    1    1    2    0    0 -0.75581003201E+02  0.59599675737E+02  0.43456529190E+03  0.44509729534E+03  0.00000000000E+00 0. -1.
<mgrwt>
<rscale>  0 0.23942755E+03</rscale>
<asrwt>0</asrwt>
<pdfrwt beam="1">  1        3 0.14254941E-02 0.23942755E+03</pdfrwt>
<pdfrwt beam="2">  1       -3 0.23795570E+00 0.23942755E+03</pdfrwt>
<totfact> 0.38332832E+02</totfact>
</mgrwt>
</event>
<event>
 6    1  0.1072514E-005  0.2468144E+04  0.7818608E-02  0.8414423E-01
         -2   -1    0    0    0  501 -0.00000000000E+00  0.00000000000E+00  0.10199551565E+04  0.10199551565E+04  0.00000000000E+00 0.  1.
          2   -1    0    0  501    0  0.00000000000E+00 -0.00000000000E+00 -0.14931382996E+04  0.14931382996E+04  0.00000000000E+00 0. -1.
         23    2    1    2    0    0 -0.51450260393E+03  0.73847054882E+03  0.62006834969E+03  0.10970247757E+04  0.94482375686E+02 0.  0.
         11    1    3    3    0    0 -0.16592170553E+03  0.29499224545E+03  0.19392305897E+03  0.39007254459E+03  0.00000000000E+00 0. -1.
        -11    1    3    3    0    0 -0.34858089840E+03  0.44347830337E+03  0.42614529071E+03  0.70695223112E+03  0.00000000000E+00 0.  1.
         22    1    1    2    0    0  0.51450260393E+03 -0.73847054882E+03 -0.10932514928E+04  0.14160686804E+04  0.00000000000E+00 0. -1.
<mgrwt>
<rscale>  0 0.24681443E+04</rscale>
<asrwt>0</asrwt>
<pdfrwt beam="1">  1        2 0.22971358E+00 0.24681443E+04</pdfrwt>
<pdfrwt beam="2">  1       -2 0.15691618E+00 0.24681443E+04</pdfrwt>
<totfact> 0.30420002E+00</totfact>
</mgrwt>
</event>
<event>
 6    1  0.1072514E-005  0.2863150E+04  0.7818608E-02  0.8283927E-01
         -1   -1    0    0    0  501 -0.00000000000E+00  0.00000000000E+00  0.10997986879E+04  0.10997986879E+04  0.00000000000E+00 0.  1.
          1   -1    0    0  501    0  0.00000000000E+00 -0.00000000000E+00 -0.18634385119E+04  0.18634385119E+04  0.00000000000E+00 0. -1.
         23    2    1    2    0    0 -0.55266219762E+03  0.12927326099E+04 -0.65359311449E+03  0.15530232502E+04  0.90023059424E+02 0.  0.
         11    1    3    3    0    0 -0.38054102131E+03  0.90465400412E+03 -0.50086147899E+03  0.11018496073E+04  0.00000000000E+00 0. -1.
        -11    1    3    3    0    0 -0.17212117632E+03  0.38807860574E+03 -0.15273163550E+03  0.45117364290E+03  0.00000000000E+00 0.  1.
         22    1    1    2    0    0  0.55266219762E+03 -0.12927326099E+04 -0.11004670958E+03  0.14102139496E+04  0.00000000000E+00 0. -1.
<mgrwt>
<rscale>  0 0.28631502E+04</rscale>
<asrwt>0</asrwt>
<pdfrwt beam="1">  1        1 0.28668285E+00 0.28631502E+04</pdfrwt>
<pdfrwt beam="2">  1       -1 0.16919980E+00 0.28631502E+04</pdfrwt>
<totfact> 0.79230635E-01</totfact>
</mgrwt>
</event>
<event>
 6    1  0.1072514E-005  0.3121927E+04  0.7818608E-02  0.8209746E-01
         -2   -1    0    0    0  501 -0.00000000000E+00  0.00000000000E+00  0.80806799002E+03  0.80806799002E+03  0.00000000000E+00 0.  1.
          2   -1    0    0  501    0  0.00000000000E+00 -0.00000000000E+00 -0.30153497729E+04  0.30153497729E+04  0.00000000000E+00 0. -1.
         23    2    1    2    0    0  0.47876644316E+03 -0.63036444852E+03 -0.27503817877E+04  0.28634520030E+04  0.90447503186E+02 0.  0.
         13    1    3    3    0    0  0.61764006768E+02 -0.44640857198E+02 -0.31979348483E+03  0.32874834084E+03  0.00000000000E+00 0.  1.
        -13    1    3    3    0    0  0.41700243640E+03 -0.58572359133E+03 -0.24305883028E+04  0.25347036622E+04  0.00000000000E+00 0. -1.
         22    1    1    2    0    0 -0.47876644316E+03  0.63036444852E+03  0.54310000473E+03  0.95996575991E+03  0.00000000000E+00 0.  1.
<mgrwt>
<rscale>  0 0.31219274E+04</rscale>
<asrwt>0</asrwt>
<pdfrwt beam="1">  1        2 0.46389997E+00 0.31219274E+04</pdfrwt>
<pdfrwt beam="2">  1       -2 0.12431815E+00 0.31219274E+04</pdfrwt>
<totfact> 0.70107022E-01</totfact>
</mgrwt>
</event>
<event>
 6    1  0.1072514E-005  0.2419716E+04  0.7818608E-02  0.8432159E-01
         -2   -1    0    0    0  501 -0.00000000000E+00  0.00000000000E+00  0.12470168996E+04  0.12470168996E+04  0.00000000000E+00 0.  1.
          2   -1    0    0  501    0  0.00000000000E+00 -0.00000000000E+00 -0.11738059072E+04  0.11738059072E+04  0.00000000000E+00 0. -1.
         23    2    1    2    0    0  0.85222492605E+03  0.34490874598E+02  0.89278784123E+03  0.12379520800E+04  0.89321206614E+02 0.  0.
         13    1    3    3    0    0  0.56438281986E+03 -0.94653530611E+01  0.62782009779E+03  0.84426040737E+03  0.00000000000E+00 0. -1.
        -13    1    3    3    0    0  0.28784210619E+03  0.43956227659E+02  0.26496774343E+03  0.39369167264E+03  0.00000000000E+00 0.  1.
         22    1    1    2    0    0 -0.85222492605E+03 -0.34490874598E+02 -0.81957684884E+03  0.11828707267E+04  0.00000000000E+00 0. -1.
<mgrwt>
<rscale>  0 0.24197155E+04</rscale>
<asrwt>0</asrwt>
<pdfrwt beam="1">  1        2 0.18058553E+00 0.24197155E+04</pdfrwt>
<pdfrwt beam="2">  1       -2 0.19184875E+00 0.24197155E+04</pdfrwt>
<totfact> 0.26560424E+00</totfact>
</mgrwt>
</event>
<event>
 6    1  0.1072514E-005  0.2048410E+04  0.7818608E-02  0.8584316E-01
          1   -1    0    0  501    0  0.00000000000E+00  0.00000000000E+00  0.16336598384E+04  0.16336598384E+04  0.00000000000E+00 0. -1.
         -1   -1    0    0    0  501 -0.00000000000E+00 -0.00000000000E+00 -0.64211375273E+03  0.64211375273E+03  0.00000000000E+00 0.  1.
         23    2    1    2    0    0  0.58822629099E+02  0.10146108882E+04  0.61813379977E+03  0.11930307355E+04  0.91310377741E+02 0.  0.
         11    1    3    3    0    0  0.38250318206E+02  0.91798289109E+03  0.53029106201E+03  0.10608318838E+04  0.00000000000E+00 0.  1.
        -11    1    3    3    0    0  0.20572310894E+02  0.96627997160E+02  0.87842737760E+02  0.13219885169E+03  0.00000000000E+00 0. -1.
         22    1    1    2    0    0 -0.58822629099E+02 -0.10146108882E+04  0.37341228588E+03  0.10827428557E+04  0.00000000000E+00 0.  1.
<mgrwt>
<rscale>  0 0.20484096E+04</rscale>
<asrwt>0</asrwt>
<pdfrwt beam="1">  1        1 0.25133228E+00 0.20484096E+04</pdfrwt>
<pdfrwt beam="2">  1       -1 0.98786732E-01 0.20484096E+04</pdfrwt>
<totfact> 0.47900068E+00</totfact>
</mgrwt>
</event>
<event>
 6    1  0.1072514E-005  0.2693877E+04  0.7818608E-02  0.8336995E-01
         -2   -1    0    0    0  501 -0.00000000000E+00  0.00000000000E+00  0.12276902714E+04  0.12276902714E+04  0.00000000000E+00 0.  1.
          2   -1    0    0  501    0  0.00000000000E+00 -0.00000000000E+00 -0.14777690756E+04  0.14777690756E+04  0.00000000000E+00 0. -1.
         23    2    1    2    0    0 -0.10586252193E+04 -0.24032301650E+01 -0.95906672569E+03  0.14313490679E+04  0.90873755300E+02 0.  0.
         13    1    3    3    0    0 -0.71273334787E+03  0.15074971494E+02 -0.69731736780E+03  0.99722995912E+03  0.00000000000E+00 0. -1.
        -13    1    3    3    0    0 -0.34589187139E+03 -0.17478201659E+02 -0.26174935789E+03  0.43411910875E+03  0.00000000000E+00 0.  1.
         22    1    1    2    0    0  0.10586252193E+04  0.24032301650E+01  0.70898792152E+03  0.12741102791E+04  0.00000000000E+00 0.  1.
<mgrwt>
<rscale>  0 0.26938766E+04</rscale>
<asrwt>0</asrwt>
<pdfrwt beam="1">  1        2 0.22734909E+00 0.26938766E+04</pdfrwt>
<pdfrwt beam="2">  1       -2 0.18887543E+00 0.26938766E+04</pdfrwt>
<totfact> 0.18092212E+00</totfact>
</mgrwt>
</event>
<event>
 6    1  0.1072514E-005  0.2288753E+04  0.7818608E-02  0.8482369E-01
         -1   -1    0    0    0  501 -0.00000000000E+00  0.00000000000E+00  0.73876461403E+03  0.73876461403E+03  0.00000000000E+00 0.  1.
          1   -1    0    0  501    0  0.00000000000E+00 -0.00000000000E+00 -0.17726853610E+04  0.17726853610E+04  0.00000000000E+00 0. -1.
         23    2    1    2    0    0 -0.88175770318E+03 -0.25979774607E+03 -0.12625943066E+04  0.15641996846E+04  0.87090493593E+02 0.  0.
         13    1    3    3    0    0 -0.75752843813E+03 -0.19969828177E+03 -0.10354071547E+04  0.12983823452E+04  0.00000000000E+00 0. -1.
        -13    1    3    3    0    0 -0.12422926505E+03 -0.60099464302E+02 -0.22718715197E+03  0.26581733939E+03  0.00000000000E+00 0.  1.
         22    1    1    2    0    0  0.88175770318E+03  0.25979774607E+03  0.22867355963E+03  0.94725029050E+03  0.00000000000E+00 0.  1.
<mgrwt>
<rscale>  0 0.22887527E+04</rscale>
<asrwt>0</asrwt>
<pdfrwt beam="1">  1        1 0.27272082E+00 0.22887527E+04</pdfrwt>
<pdfrwt beam="2">  1       -1 0.11365609E+00 0.22887527E+04</pdfrwt>
<totfact> 0.27159145E+00</totfact>
</mgrwt>
</event>
<event>
 6    1  0.1072514E-005  0.2508567E+04  0.7818608E-02  0.8399940E-01
          1   -1    0    0  501    0  0.00000000000E+00  0.00000000000E+00  0.12056125595E+04  0.12056125595E+04  0.00000000000E+00 0. -1.
         -1   -1    0    0    0  501 -0.00000000000E+00 -0.00000000000E+00 -0.13049195933E+04  0.13049195933E+04  0.00000000000E+00 0.  1.
         23    2    1    2    0    0 -0.11368244942E+04 -0.46139679312E+03 -0.30339621822E+03  0.12667840567E+04  0.86230213419E+02 0.  0.
         11    1    3    3    0    0 -0.46863663678E+03 -0.22617999090E+03 -0.10120076879E+03  0.53011251751E+03  0.00000000000E+00 0.  1.
        -11    1    3    3    0    0 -0.66818785745E+03 -0.23521680222E+03 -0.20219544943E+03  0.73667153919E+03  0.00000000000E+00 0. -1.
         22    1    1    2    0    0  0.11368244942E+04  0.46139679312E+03  0.20408918433E+03  0.12437480961E+04  0.00000000000E+00 0.  1.
<mgrwt>
<rscale>  0 0.25085673E+04</rscale>
<asrwt>0</asrwt>
<pdfrwt beam="1">  1        1 0.18547885E+00 0.25085673E+04</pdfrwt>
<pdfrwt beam="2">  1       -1 0.20075686E+00 0.25085673E+04</pdfrwt>
<totfact> 0.13973944E+00</totfact>
</mgrwt>
</event>
<event>
 6    1  0.1072514E-005  0.2025248E+04  0.7818608E-02  0.8594907E-01
         -1   -1    0    0    0  501 -0.00000000000E+00  0.00000000000E+00  0.84222456324E+03  0.84222456324E+03  0.00000000000E+00 0.  1.
          1   -1    0    0  501    0  0.00000000000E+00 -0.00000000000E+00 -0.12174985235E+04  0.12174985235E+04  0.00000000000E+00 0. -1.
         23    2    1    2    0    0 -0.97322486632E+03  0.57066389640E+02 -0.45904390393E+03  0.10812341412E+04  0.89009825402E+02 0.  0.
         11    1    3    3    0    0 -0.65500962723E+03  0.76601039508E+02 -0.29067842422E+03  0.72069360849E+03  0.00000000000E+00 0.  1.
        -11    1    3    3    0    0 -0.31821523909E+03 -0.19534649868E+02 -0.16836547971E+03  0.36054053266E+03  0.00000000000E+00 0. -1.
         22    1    1    2    0    0  0.97322486632E+03 -0.57066389640E+02  0.83769943631E+02  0.97848894562E+03  0.00000000000E+00 0.  1.
<mgrwt>
<rscale>  0 0.20252478E+04</rscale>
<asrwt>0</asrwt>
<pdfrwt beam="1">  1        1 0.18730747E+00 0.20252478E+04</pdfrwt>
<pdfrwt beam="2">  1       -1 0.12957301E+00 0.20252478E+04</pdfrwt>
<totfact> 0.49117676E+00</totfact>
</mgrwt>
</event>
<event>
 6    1  0.1072514E-005  0.1550847E+04  0.7818608E-02  0.8851327E-01
          1   -1    0    0  501    0  0.00000000000E+00  0.00000000000E+00  0.10161574871E+04  0.10161574871E+04  0.00000000000E+00 0.  1.
         -1   -1    0    0    0  501 -0.00000000000E+00 -0.00000000000E+00 -0.59172088957E+03  0.59172088957E+03  0.00000000000E+00 0. -1.
         23    2    1    2    0    0 -0.19569387381E+03  0.33243937101E+03  0.90716773094E+03  0.98994522922E+03  0.90698606041E+02 0.  0.
         11    1    3    3    0    0 -0.29459460173E+02  0.72298613106E+02  0.10834088679E+03  0.13353912162E+03  0.00000000000E+00 0. -1.
        -11    1    3    3    0    0 -0.16623441364E+03  0.26014075791E+03  0.79882684415E+03  0.85640610760E+03  0.00000000000E+00 0.  1.
         22    1    1    2    0    0  0.19569387381E+03 -0.33243937101E+03 -0.48273113337E+03  0.61793314750E+03  0.00000000000E+00 0. -1.
<mgrwt>
<rscale>  0 0.15508470E+04</rscale>
<asrwt>0</asrwt>
<pdfrwt beam="1">  1        1 0.15633192E+00 0.15508470E+04</pdfrwt>
<pdfrwt beam="2">  1       -1 0.91033983E-01 0.15508470E+04</pdfrwt>
<totfact> 0.16680898E+01</totfact>
</mgrwt>
</event>
<event>
 6    1  0.1072514E-005  0.3689773E+04  0.7818608E-02  0.8070232E-01
          1   -1    0    0  501    0  0.00000000000E+00  0.00000000000E+00  0.76888699754E+03  0.76888699754E+03  0.00000000000E+00 0. -1.
         -1   -1    0    0    0  501 -0.00000000000E+00 -0.00000000000E+00 -0.44266654060E+04  0.44266654060E+04  0.00000000000E+00 0.  1.
         23    2    1    2    0    0 -0.13265607745E+04 -0.11892595682E+03 -0.34654926995E+02  0.13353800455E+04  0.90177771691E+02 0.  0.
         13    1    3    3    0    0 -0.40522771669E+03 -0.71011377239E+02 -0.33957084187E+02  0.41280164927E+03  0.00000000000E+00 0.  1.
        -13    1    3    3    0    0 -0.92133305776E+03 -0.47914579580E+02 -0.69784280864E+00  0.92257839626E+03  0.00000000000E+00 0. -1.
         22    1    1    2    0    0  0.13265607745E+04  0.11892595682E+03 -0.36231234814E+04  0.38601723580E+04  0.00000000000E+00 0.  1.
<mgrwt>
<rscale>  0 0.36897726E+04</rscale>
<asrwt>0</asrwt>
<pdfrwt beam="1">  1        1 0.11829031E+00 0.36897726E+04</pdfrwt>
<pdfrwt beam="2">  1       -1 0.68102544E+00 0.36897726E+04</pdfrwt>
<totfact> 0.43752817E-03</totfact>
</mgrwt>
</event>
<event>
 6    1  0.1072514E-005  0.3247398E+04  0.7818608E-02  0.8176410E-01
          2   -1    0    0  501    0  0.00000000000E+00  0.00000000000E+00  0.18959583370E+04  0.18959583370E+04  0.00000000000E+00 0. -1.
         -2   -1    0    0    0  501 -0.00000000000E+00 -0.00000000000E+00 -0.13905359144E+04  0.13905359144E+04  0.00000000000E+00 0.  1.
         23    2    1    2    0    0 -0.13012212883E+04  0.53430374729E+03 -0.56517291040E+03  0.15187749008E+04  0.92733192656E+02 0.  0.
         11    1    3    3    0    0 -0.59616907830E+03  0.29097229794E+03 -0.28527037449E+03  0.72212300521E+03  0.00000000000E+00 0.  1.
        -11    1    3    3    0    0 -0.70505221000E+03  0.24333144934E+03 -0.27990253591E+03  0.79665189554E+03  0.00000000000E+00 0. -1.
         22    1    1    2    0    0  0.13012212883E+04 -0.53430374729E+03  0.10705953330E+04  0.17677193506E+04  0.00000000000E+00 0. -1.
<mgrwt>
<rscale>  0 0.32473978E+04</rscale>
<asrwt>0</asrwt>
<pdfrwt beam="1">  1        2 0.29168590E+00 0.32473978E+04</pdfrwt>
<pdfrwt beam="2">  1       -2 0.21392860E+00 0.32473978E+04</pdfrwt>
<totfact> 0.69178191E-01</totfact>
</mgrwt>
</event>
<event>
 6    1  0.1072514E-005  0.3493284E+04  0.7818608E-02  0.8115383E-01
         -2   -1    0    0    0  501 -0.00000000000E+00  0.00000000000E+00  0.11135176302E+04  0.11135176302E+04  0.00000000000E+00 0.  1.
          2   -1    0    0  501    0  0.00000000000E+00 -0.00000000000E+00 -0.27397487171E+04  0.27397487171E+04  0.00000000000E+00 0. -1.
         23    2    1    2    0    0  0.21926080872E+03 -0.50158556225E+03  0.10145207178E+04  0.11563730471E+04  0.91010761681E+02 0.  0.
         11    1    3    3    0    0  0.11434128922E+03 -0.30479597267E+03  0.68581935409E+03  0.75915920717E+03  0.00000000000E+00 0.  1.
        -11    1    3    3    0    0  0.10491951950E+03 -0.19678958959E+03  0.32870136366E+03  0.39721383991E+03  0.00000000000E+00 0. -1.
         22    1    1    2    0    0 -0.21926080872E+03  0.50158556225E+03 -0.26407518047E+04  0.26968933002E+04  0.00000000000E+00 0. -1.
<mgrwt>
<rscale>  0 0.34932841E+04</rscale>
<asrwt>0</asrwt>
<pdfrwt beam="1">  1        2 0.42149980E+00 0.34932841E+04</pdfrwt>
<pdfrwt beam="2">  1       -2 0.17131041E+00 0.34932841E+04</pdfrwt>
<totfact> 0.43104749E-01</totfact>
</mgrwt>
</event>
<event>
 6    1  0.1072514E-005  0.3646085E+04  0.7818608E-02  0.8080016E-01
          1   -1    0    0  501    0  0.00000000000E+00  0.00000000000E+00  0.11735035228E+04  0.11735035228E+04  0.00000000000E+00 0. -1.
         -1   -1    0    0    0  501 -0.00000000000E+00 -0.00000000000E+00 -0.28321033330E+04  0.28321033330E+04  0.00000000000E+00 0.  1.
         23    2    1    2    0    0  0.18001377454E+04 -0.27084016031E+03 -0.91151587557E+03  0.20378709232E+04  0.90589256626E+02 0.  0.
         13    1    3    3    0    0  0.40800189456E+03 -0.97071387057E+02 -0.19375078563E+03  0.46198243157E+03  0.00000000000E+00 0. -1.
        -13    1    3    3    0    0  0.13921358508E+04 -0.17376877326E+03 -0.71776508994E+03  0.15758884916E+04  0.00000000000E+00 0.  1.
         22    1    1    2    0    0 -0.18001377454E+04  0.27084016031E+03 -0.74708393462E+03  0.19677359325E+04  0.00000000000E+00 0. -1.
<mgrwt>
<rscale>  0 0.36460846E+04</rscale>
<asrwt>0</asrwt>
<pdfrwt beam="1">  1        1 0.18053901E+00 0.36460846E+04</pdfrwt>
<pdfrwt beam="2">  1       -1 0.43570820E+00 0.36460846E+04</pdfrwt>
<totfact> 0.36552700E-02</totfact>
</mgrwt>
</event>
<event>
 6    1  0.1072514E-005  0.1566185E+04  0.7818608E-02  0.8841595E-01
          1   -1    0    0  501    0  0.00000000000E+00  0.00000000000E+00  0.18700944082E+04  0.18700944082E+04  0.00000000000E+00 0. -1.
         -1   -1    0    0    0  501 -0.00000000000E+00 -0.00000000000E+00 -0.32791596497E+03  0.32791596497E+03  0.00000000000E+00 0.  1.
         23    2    1    2    0    0  0.62906145144E+03 -0.32522402324E+02  0.14203534062E+04  0.15564362496E+04  0.91181052652E+02 0.  0.
         11    1    3    3    0    0  0.25315595079E+03 -0.17780612498E+02  0.46617362602E+03  0.53077484416E+03  0.00000000000E+00 0. -1.
        -11    1    3    3    0    0  0.37590550065E+03 -0.14741789826E+02  0.95417978017E+03  0.10256614055E+04  0.00000000000E+00 0.  1.
         22    1    1    2    0    0 -0.62906145144E+03  0.32522402324E+02  0.12182503704E+03  0.64157412353E+03  0.00000000000E+00 0.  1.
<mgrwt>
<rscale>  0 0.15661849E+04</rscale>
<asrwt>0</asrwt>
<pdfrwt beam="1">  1        1 0.28770683E+00 0.15661849E+04</pdfrwt>
<pdfrwt beam="2">  1       -1 0.50448611E-01 0.15661849E+04</pdfrwt>
<totfact> 0.13864926E+01</totfact>
</mgrwt>
</event>
<event>
 6    1  0.1072514E-005  0.2428070E+04  0.7818608E-02  0.8429069E-01
         -1   -1    0    0    0  501 -0.00000000000E+00  0.00000000000E+00  0.52444436974E+03  0.52444436974E+03  0.00000000000E+00 0.  1.
          1   -1    0    0  501    0  0.00000000000E+00 -0.00000000000E+00 -0.28103659929E+04  0.28103659929E+04  0.00000000000E+00 0. -1.
         23    2    1    2    0    0  0.83832623315E+03  0.79016716265E+03 -0.16631014697E+04  0.20252073840E+04  0.91670232882E+02 0.  0.
         11    1    3    3    0    0  0.32920066648E+03  0.25025708328E+03 -0.58699734670E+03  0.71803034168E+03  0.00000000000E+00 0. -1.
        -11    1    3    3    0    0  0.50912556667E+03  0.53991007937E+03 -0.10761041230E+04  0.13071770423E+04  0.00000000000E+00 0.  1.
         22    1    1    2    0    0 -0.83832623315E+03 -0.79016716265E+03 -0.62282015351E+03  0.13096029787E+04  0.00000000000E+00 0.  1.
<mgrwt>
<rscale>  0 0.24280697E+04</rscale>
<asrwt>0</asrwt>
<pdfrwt beam="1">  1        1 0.43236399E+00 0.24280697E+04</pdfrwt>
<pdfrwt beam="2">  1       -1 0.80683751E-01 0.24280697E+04</pdfrwt>
<totfact> 0.11218602E+00</totfact>
</mgrwt>
</event>
<event>
 6    1  0.1072514E-005  0.7042365E+03  0.7818608E-02  0.9710015E-01
          2   -1    0    0  501    0  0.00000000000E+00  0.00000000000E+00  0.12551867162E+04  0.12551867162E+04  0.00000000000E+00 0. -1.
         -2   -1    0    0    0  501 -0.00000000000E+00 -0.00000000000E+00 -0.98779933531E+02  0.98779933531E+02  0.00000000000E+00 0.  1.
         23    2    1    2    0    0  0.48544246149E+01  0.43586543189E+02  0.12481729136E+04  0.12522593492E+04  0.91074164226E+02 0.  0.
         11    1    3    3    0    0 -0.37159083111E+02  0.26306140454E+02  0.89779940381E+03  0.89895304658E+03  0.00000000000E+00 0. -1.
        -11    1    3    3    0    0  0.42013507726E+02  0.17280402735E+02  0.35037350977E+03  0.35330630266E+03  0.00000000000E+00 0.  1.
         22    1    1    2    0    0 -0.48544246149E+01 -0.43586543189E+02 -0.91766130922E+02  0.10170730048E+03  0.00000000000E+00 0.  1.
<mgrwt>
<rscale>  0 0.70423650E+03</rscale>
<asrwt>0</asrwt>
<pdfrwt beam="1">  1        2 0.19310564E+00 0.70423650E+03</pdfrwt>
<pdfrwt beam="2">  1       -2 0.15196914E-01 0.70423650E+03</pdfrwt>
<totfact> 0.60801555E+02</totfact>
</mgrwt>
</event>
<event>
 6    1  0.1072514E-005  0.1059151E+04  0.7818608E-02  0.9245946E-01
         -2   -1    0    0    0  501 -0.00000000000E+00  0.00000000000E+00  0.60584438543E+03  0.60584438543E+03  0.00000000000E+00 0.  1.
          2   -1    0    0  501    0  0.00000000000E+00 -0.00000000000E+00 -0.46290833584E+03  0.46290833584E+03  0.00000000000E+00 0. -1.
         23    2    1    2    0    0 -0.23205766137E+03  0.19056557612E+02  0.54803477782E+03  0.60150665099E+03  0.85171725901E+02 0.  0.
         11    1    3    3    0    0 -0.12584041992E+03 -0.31106218533E+02  0.31201829397E+03  0.33787397634E+03  0.00000000000E+00 0.  1.
        -11    1    3    3    0    0 -0.10621724145E+03  0.50162776145E+02  0.23601648385E+03  0.26363267464E+03  0.00000000000E+00 0. -1.
         22    1    1    2    0    0  0.23205766137E+03 -0.19056557612E+02 -0.40509872822E+03  0.46724607029E+03  0.00000000000E+00 0. -1.
<mgrwt>
<rscale>  0 0.10591514E+04</rscale>
<asrwt>0</asrwt>
<pdfrwt beam="1">  1        2 0.71216667E-01 0.10591514E+04</pdfrwt>
<pdfrwt beam="2">  1       -2 0.93206829E-01 0.10591514E+04</pdfrwt>
<totfact> 0.65316453E+01</totfact>
</mgrwt>
</event>
<event>
 6    1  0.1072514E-005  0.1668081E+04  0.7818608E-02  0.8779781E-01
         -2   -1    0    0    0  501 -0.00000000000E+00  0.00000000000E+00  0.78590694490E+03  0.78590694490E+03  0.00000000000E+00 0.  1.
          2   -1    0    0  501    0  0.00000000000E+00 -0.00000000000E+00 -0.88512169057E+03  0.88512169057E+03  0.00000000000E+00 0. -1.
         23    2    1    2    0    0 -0.50453052261E+03  0.49546522041E+03  0.38883856636E+03  0.81182384716E+03  0.88462959701E+02 0.  0.
         13    1    3    3    0    0 -0.30619098677E+03  0.35924461967E+03  0.25617397129E+03  0.53706118898E+03  0.00000000000E+00 0.  1.
        -13    1    3    3    0    0 -0.19833953583E+03  0.13622060074E+03  0.13266459507E+03  0.27476265817E+03  0.00000000000E+00 0. -1.
         22    1    1    2    0    0  0.50453052261E+03 -0.49546522041E+03 -0.48805331203E+03  0.85920478831E+03  0.00000000000E+00 0.  1.
<mgrwt>
<rscale>  0 0.16680807E+04</rscale>
<asrwt>0</asrwt>
<pdfrwt beam="1">  1        2 0.13617257E+00 0.16680807E+04</pdfrwt>
<pdfrwt beam="2">  1       -2 0.12090876E+00 0.16680807E+04</pdfrwt>
<totfact> 0.14919565E+01</totfact>
</mgrwt>
</event>
<event>
 6    1  0.1072514E-005  0.3107134E+04  0.7818608E-02  0.8213783E-01
          1   -1    0    0  501    0  0.00000000000E+00  0.00000000000E+00  0.27720999027E+04  0.27720999027E+04  0.00000000000E+00 0. -1.
         -1   -1    0    0    0  501 -0.00000000000E+00 -0.00000000000E+00 -0.87066500729E+03  0.87066500729E+03  0.00000000000E+00 0.  1.
         23    2    1    2    0    0 -0.12488669415E+04 -0.57089908740E+03  0.17999685396E+04  0.22658517585E+04  0.92752585667E+02 0.  0.
         13    1    3    3    0    0 -0.59139253145E+03 -0.31071131078E+03  0.82787552102E+03  0.10637972190E+04  0.00000000000E+00 0.  1.
        -13    1    3    3    0    0 -0.65747441000E+03 -0.26018777661E+03  0.97209301863E+03  0.12020545394E+04  0.00000000000E+00 0. -1.
         22    1    1    2    0    0  0.12488669415E+04  0.57089908740E+03  0.10146635574E+03  0.13769131515E+04  0.00000000000E+00 0.  1.
<mgrwt>
<rscale>  0 0.31071340E+04</rscale>
<asrwt>0</asrwt>
<pdfrwt beam="1">  1        1 0.42647690E+00 0.31071340E+04</pdfrwt>
<pdfrwt beam="2">  1       -1 0.13394846E+00 0.31071340E+04</pdfrwt>
<totfact> 0.34555643E-01</totfact>
</mgrwt>
</event>
<event>
 6    1  0.1072514E-005  0.2267112E+04  0.7818608E-02  0.8491002E-01
          1   -1    0    0  501    0  0.00000000000E+00  0.00000000000E+00  0.72512832140E+03  0.72512832140E+03  0.00000000000E+00 0. -1.
         -1   -1    0    0    0  501 -0.00000000000E+00 -0.00000000000E+00 -0.17720301739E+04  0.17720301739E+04  0.00000000000E+00 0.  1.
         23    2    1    2    0    0  0.40906568099E+03  0.98013904430E+03 -0.95485427718E+03  0.14311003198E+04  0.91072262663E+02 0.  0.
         11    1    3    3    0    0  0.27181454418E+03  0.57384962686E+03 -0.61421388553E+03  0.88342811697E+03  0.00000000000E+00 0.  1.
        -11    1    3    3    0    0  0.13725113681E+03  0.40628941744E+03 -0.34064039165E+03  0.54767220279E+03  0.00000000000E+00 0. -1.
         22    1    1    2    0    0 -0.40906568099E+03 -0.98013904430E+03 -0.92047575318E+02  0.10660581755E+04  0.00000000000E+00 0. -1.
<mgrwt>
<rscale>  0 0.22671121E+04</rscale>
<asrwt>0</asrwt>
<pdfrwt beam="1">  1        1 0.11155820E+00 0.22671121E+04</pdfrwt>
<pdfrwt beam="2">  1       -1 0.27262003E+00 0.22671121E+04</pdfrwt>
<totfact> 0.11625057E+00</totfact>
</mgrwt>
</event>
<event>
 6    1  0.1072514E-005  0.3619780E+04  0.7818608E-02  0.8085976E-01
         -2   -1    0    0    0  501 -0.00000000000E+00  0.00000000000E+00  0.73601555940E+03  0.73601555940E+03  0.00000000000E+00 0.  1.
          2   -1    0    0  501    0  0.00000000000E+00 -0.00000000000E+00 -0.44505878364E+04  0.44505878364E+04  0.00000000000E+00 0. -1.
         23    2    1    2    0    0  0.11885046482E+04 -0.11794363501E+04 -0.87785060550E+03  0.18925780097E+04  0.87272186037E+02 0.  0.
         11    1    3    3    0    0  0.16571633493E+03 -0.20434256894E+03 -0.15409771127E+03  0.30489980938E+03  0.00000000000E+00 0. -1.
        -11    1    3    3    0    0  0.10227883133E+04 -0.97509378114E+03 -0.72375289423E+03  0.15876782003E+04  0.00000000000E+00 0.  1.
         22    1    1    2    0    0 -0.11885046482E+04  0.11794363501E+04 -0.28367216716E+04  0.32940253862E+04  0.00000000000E+00 0.  1.
<mgrwt>
<rscale>  0 0.36197800E+04</rscale>
<asrwt>0</asrwt>
<pdfrwt beam="1">  1        2 0.68470582E+00 0.36197800E+04</pdfrwt>
<pdfrwt beam="2">  1       -2 0.11323316E+00 0.36197800E+04</pdfrwt>
<totfact> 0.68121575E-02</totfact>
</mgrwt>
</event>
<event>
 6    1  0.1072514E-005  0.9998697E+03  0.7818608E-02  0.9308688E-01
          2   -1    0    0  501    0  0.00000000000E+00  0.00000000000E+00  0.13993561059E+04  0.13993561059E+04  0.00000000000E+00 0. -1.
         -2   -1    0    0    0  501 -0.00000000000E+00 -0.00000000000E+00 -0.17860704618E+03  0.17860704618E+03  0.00000000000E+00 0.  1.
         23    2    1    2    0    0  0.19018187337E+02 -0.34178977501E+03  0.11814300918E+04  0.12333939675E+04  0.91113530127E+02 0.  0.
         11    1    3    3    0    0  0.32074498525E+02 -0.33918519941E+03  0.11279179442E+04  0.11782505089E+04  0.00000000000E+00 0.  1.
        -11    1    3    3    0    0 -0.13056311188E+02 -0.26045755995E+01  0.53512147662E+02  0.55143458572E+02  0.00000000000E+00 0. -1.
         22    1    1    2    0    0 -0.19018187337E+02  0.34178977501E+03  0.39318967900E+02  0.34456918462E+03  0.00000000000E+00 0.  1.
<mgrwt>
<rscale>  0 0.99986971E+03</rscale>
<asrwt>0</asrwt>
<pdfrwt beam="1">  1        2 0.21528555E+00 0.99986971E+03</pdfrwt>
<pdfrwt beam="2">  1       -2 0.27478008E-01 0.99986971E+03</pdfrwt>
<totfact> 0.17430253E+02</totfact>
</mgrwt>
</event>
<event>
 6    1  0.1072514E-005  0.1618509E+04  0.7818608E-02  0.8809257E-01
          1   -1    0    0  501    0  0.00000000000E+00  0.00000000000E+00  0.54986036642E+03  0.54986036642E+03  0.00000000000E+00 0.  1.
         -1   -1    0    0    0  501 -0.00000000000E+00 -0.00000000000E+00 -0.11910161432E+04  0.11910161432E+04  0.00000000000E+00 0. -1.
         23    2    1    2    0    0 -0.62685045734E+03 -0.16553461967E+03  0.19465285889E+03  0.68308669987E+03  0.91512282694E+02 0.  0.
         11    1    3    3    0    0 -0.41505013453E+03 -0.73907619068E+02  0.97542778675E+02  0.43271647068E+03  0.00000000000E+00 0. -1.
        -11    1    3    3    0    0 -0.21180032281E+03 -0.91627000599E+02  0.97110080218E+02  0.25037022919E+03  0.00000000000E+00 0.  1.
         22    1    1    2    0    0  0.62685045734E+03  0.16553461967E+03 -0.83580863569E+03  0.10577898098E+04  0.00000000000E+00 0. -1.
<mgrwt>
<rscale>  0 0.16185087E+04</rscale>
<asrwt>0</asrwt>
<pdfrwt beam="1">  1        1 0.84593903E-01 0.16185087E+04</pdfrwt>
<pdfrwt beam="2">  1       -1 0.18323325E+00 0.16185087E+04</pdfrwt>
<totfact> 0.73342518E+00</totfact>
</mgrwt>
</event>
<event>
 6    1  0.1072514E-005  0.3378645E+04  0.7818608E-02  0.8143167E-01
         -1   -1    0    0    0  501 -0.00000000000E+00  0.00000000000E+00  0.18385760611E+04  0.18385760611E+04  0.00000000000E+00 0.  1.
          1   -1    0    0  501    0  0.00000000000E+00 -0.00000000000E+00 -0.15521855022E+04  0.15521855022E+04  0.00000000000E+00 0. -1.
         23    2    1    2    0    0  0.99273027848E+03  0.12645143275E+04 -0.37322773193E+03  0.16530601563E+04  0.93803252669E+02 0.  0.
         11    1    3    3    0    0  0.13141339326E+03  0.18101882772E+03 -0.84591582958E+02  0.23915064672E+03  0.00000000000E+00 0. -1.
        -11    1    3    3    0    0  0.86131688522E+03  0.10834954998E+04 -0.28863614897E+03  0.14139095096E+04  0.00000000000E+00 0.  1.
         22    1    1    2    0    0 -0.99273027848E+03 -0.12645143275E+04  0.65961829080E+03  0.17377014070E+04  0.00000000000E+00 0.  1.
<mgrwt>
<rscale>  0 0.33786454E+04</rscale>
<asrwt>0</asrwt>
<pdfrwt beam="1">  1        1 0.23879777E+00 0.33786454E+04</pdfrwt>
<pdfrwt beam="2">  1       -1 0.28285785E+00 0.33786454E+04</pdfrwt>
<totfact> 0.21158675E-01</totfact>
</mgrwt>
</event>
<event>
 6    1  0.1072514E-005  0.1891292E+04  0.7818608E-02  0.8659203E-01
         -1   -1    0    0    0  501 -0.00000000000E+00  0.00000000000E+00  0.37564357687E+03  0.37564357687E+03  0.00000000000E+00 0.  1.
          1   -1    0    0  501    0  0.00000000000E+00 -0.00000000000E+00 -0.23805705831E+04  0.23805705831E+04  0.00000000000E+00 0. -1.
         23    2    1    2    0    0  0.27901621676E+03  0.88319967496E+03 -0.74550492677E+03  0.11928729658E+04  0.96315116784E+02 0.  0.
         13    1    3    3    0    0  0.13006378187E+03  0.52450442564E+03 -0.47596692996E+03  0.72011526736E+03  0.00000000000E+00 0. -1.
        -13    1    3    3    0    0  0.14895243489E+03  0.35869524932E+03 -0.26953799681E+03  0.47275769848E+03  0.00000000000E+00 0.  1.
         22    1    1    2    0    0 -0.27901621676E+03 -0.88319967496E+03 -0.12594220795E+04  0.15633411941E+04  0.00000000000E+00 0. -1.
<mgrwt>
<rscale>  0 0.18912917E+04</rscale>
<asrwt>0</asrwt>
<pdfrwt beam="1">  1        1 0.36624162E+00 0.18912917E+04</pdfrwt>
<pdfrwt beam="2">  1       -1 0.57791321E-01 0.18912917E+04</pdfrwt>
<totfact> 0.46552938E+00</totfact>
</mgrwt>
</event>
<event>
 6    1  0.1072514E-005  0.6916630E+03  0.7818608E-02  0.9731597E-01
          2   -1    0    0  501    0  0.00000000000E+00  0.00000000000E+00  0.23588208776E+03  0.23588208776E+03  0.00000000000E+00 0. -1.
         -2   -1    0    0    0  501 -0.00000000000E+00 -0.00000000000E+00 -0.50703054310E+03  0.50703054310E+03  0.00000000000E+00 0.  1.
         23    2    1    2    0    0 -0.14451687957E+03  0.23742268888E+02  0.18938949823E+03  0.25964869625E+03  0.10049994832E+03 0.  0.
         11    1    3    3    0    0 -0.82010567481E+02  0.62131210573E+02  0.94399722841E+02  0.13963283345E+03  0.00000000000E+00 0. -1.
        -11    1    3    3    0    0 -0.62506312089E+02 -0.38388941685E+02  0.94989775392E+02  0.12001586280E+03  0.00000000000E+00 0.  1.
         22    1    1    2    0    0  0.14451687957E+03 -0.23742268888E+02 -0.46053795357E+03  0.48326393461E+03  0.00000000000E+00 0.  1.
<mgrwt>
<rscale>  0 0.69166299E+03</rscale>
<asrwt>0</asrwt>
<pdfrwt beam="1">  1        2 0.36289552E-01 0.69166299E+03</pdfrwt>
<pdfrwt beam="2">  1       -2 0.78004699E-01 0.69166299E+03</pdfrwt>
<totfact> 0.21223636E+02</totfact>
</mgrwt>
</event>
<event>
 6    1  0.1072514E-005  0.2632258E+04  0.7818608E-02  0.8357326E-01
          3   -1    0    0  501    0  0.00000000000E+00  0.00000000000E+00  0.38944852909E+03  0.38944852909E+03  0.00000000000E+00 0.  1.
         -3   -1    0    0    0  501 -0.00000000000E+00 -0.00000000000E+00 -0.44478159485E+04  0.44478159485E+04  0.00000000000E+00 0. -1.
         23    2    1    2    0    0 -0.11033463367E+04 -0.21292012106E+03 -0.32851831631E+04  0.34732549428E+04  0.91451440562E+02 0.  0.
         13    1    3    3    0    0 -0.65947402251E+03 -0.16780213838E+03 -0.20465696212E+04  0.21567361356E+04  0.00000000000E+00 0. -1.
        -13    1    3    3    0    0 -0.44387231421E+03 -0.45117982678E+02 -0.12386135419E+04  0.13165188072E+04  0.00000000000E+00 0.  1.
         22    1    1    2    0    0  0.11033463367E+04  0.21292012106E+03 -0.77318425627E+03  0.13640095347E+04  0.00000000000E+00 0.  1.
<mgrwt>
<rscale>  0 0.26322579E+04</rscale>
<asrwt>0</asrwt>
<pdfrwt beam="1">  1        3 0.59915158E-01 0.26322579E+04</pdfrwt>
<pdfrwt beam="2">  1       -3 0.68427938E+00 0.26322579E+04</pdfrwt>
<totfact> 0.18760834E-03</totfact>
</mgrwt>
</event>
<event>
 6    1  0.1072514E-005  0.1491323E+04  0.7818608E-02  0.8890244E-01
          2   -1    0    0  501    0  0.00000000000E+00  0.00000000000E+00  0.70019870034E+03  0.70019870034E+03  0.00000000000E+00 0. -1.
         -2   -1    0    0    0  501 -0.00000000000E+00 -0.00000000000E+00 -0.79407571299E+03  0.79407571299E+03  0.00000000000E+00 0.  1.
         23    2    1    2    0    0  0.38036547808E+03 -0.63811849982E+03 -0.16752004770E+02  0.74740000383E+03  0.80330687418E+02 0.  0.
         13    1    3    3    0    0  0.10924448396E+03 -0.22415030354E+03  0.26002693468E+02  0.25070671296E+03  0.00000000000E+00 0.  1.
        -13    1    3    3    0    0  0.27112099412E+03 -0.41396819628E+03 -0.42754698239E+02  0.49669329088E+03  0.00000000000E+00 0. -1.
         22    1    1    2    0    0 -0.38036547808E+03  0.63811849982E+03 -0.77125007884E+02  0.74687440950E+03  0.00000000000E+00 0. -1.
<mgrwt>
<rscale>  0 0.14913226E+04</rscale>
<asrwt>0</asrwt>
<pdfrwt beam="1">  1        2 0.10772288E+00 0.14913226E+04</pdfrwt>
<pdfrwt beam="2">  1       -2 0.12216549E+00 0.14913226E+04</pdfrwt>
<totfact> 0.20106861E+01</totfact>
</mgrwt>
</event>
<event>
 6    1  0.1072514E-005  0.4157904E+03  0.7818608E-02  0.1038445E+00
         -2   -1    0    0    0  501 -0.00000000000E+00  0.00000000000E+00  0.13352230965E+03  0.13352230965E+03  0.00000000000E+00 0. -1.
          2   -1    0    0  501    0  0.00000000000E+00 -0.00000000000E+00 -0.32369438064E+03  0.32369438064E+03  0.00000000000E+00 0.  1.
         23    2    1    2    0    0 -0.87576281966E+02 -0.52186040390E+01  0.95135087221E+02  0.15872546175E+03  0.91903473247E+02 0.  0.
         13    1    3    3    0    0 -0.34544963733E+02  0.21947743428E+02  0.90061877019E+02  0.98925222533E+02  0.00000000000E+00 0. -1.
        -13    1    3    3    0    0 -0.53031318233E+02 -0.27166347467E+02  0.50732102018E+01  0.59800239214E+02  0.00000000000E+00 0.  1.
         22    1    1    2    0    0  0.87576281966E+02  0.52186040390E+01 -0.28530715821E+03  0.29849122854E+03  0.00000000000E+00 0.  1.
<mgrwt>
<rscale>  0 0.41579043E+03</rscale>
<asrwt>0</asrwt>
<pdfrwt beam="1">  1        2 0.49799135E-01 0.41579043E+03</pdfrwt>
<pdfrwt beam="2">  1       -2 0.20541894E-01 0.41579043E+03</pdfrwt>
<totfact> 0.20335890E+03</totfact>
</mgrwt>
</event>
<event>
 6    1  0.1072514E-005  0.1120632E+04  0.7818608E-02  0.9185313E-01
          2   -1    0    0  501    0  0.00000000000E+00  0.00000000000E+00  0.24800991617E+04  0.24800991617E+04  0.00000000000E+00 0.  1.
         -2   -1    0    0    0  501 -0.00000000000E+00 -0.00000000000E+00 -0.12658926655E+03  0.12658926655E+03  0.00000000000E+00 0. -1.
         23    2    1    2    0    0  0.40362081025E+03  0.17804199748E+03  0.19741021905E+04  0.20248302688E+04  0.90826470144E+02 0.  0.
         13    1    3    3    0    0  0.43054011574E+02  0.53725865455E+02  0.28331757662E+03  0.29156297048E+03  0.00000000000E+00 0.  1.
        -13    1    3    3    0    0  0.36056679867E+03  0.12431613203E+03  0.16907846139E+04  0.17332672983E+04  0.00000000000E+00 0. -1.
         22    1    1    2    0    0 -0.40362081025E+03 -0.17804199748E+03  0.37940770465E+03  0.58185815942E+03  0.00000000000E+00 0. -1.
<mgrwt>
<rscale>  0 0.11206318E+04</rscale>
<asrwt>0</asrwt>
<pdfrwt beam="1">  1        2 0.38155368E+00 0.11206318E+04</pdfrwt>
<pdfrwt beam="2">  1       -2 0.19475274E-01 0.11206318E+04</pdfrwt>
<totfact> 0.80024884E+01</totfact>
</mgrwt>
</event>
<event>
 6    1  0.1072514E-005  0.9535306E+03  0.7818608E-02  0.9361033E-01
         -2   -1    0    0    0  501 -0.00000000000E+00  0.00000000000E+00  0.14047776946E+03  0.14047776946E+03  0.00000000000E+00 0. -1.
          2   -1    0    0  501    0  0.00000000000E+00 -0.00000000000E+00 -0.16180862514E+04  0.16180862514E+04  0.00000000000E+00 0.  1.
         23    2    1    2    0    0 -0.23463377230E+03  0.16821681330E+03 -0.14353792719E+04  0.14667880631E+04  0.88338351114E+02 0.  0.
         13    1    3    3    0    0 -0.13448929245E+03  0.68598681496E+02 -0.92425802911E+03  0.93650736957E+03  0.00000000000E+00 0. -1.
        -13    1    3    3    0    0 -0.10014447985E+03  0.99618131802E+02 -0.51112124281E+03  0.53028069348E+03  0.00000000000E+00 0.  1.
         22    1    1    2    0    0  0.23463377230E+03 -0.16821681330E+03 -0.42229210027E+02  0.29177595781E+03  0.00000000000E+00 0. -1.
<mgrwt>
<rscale>  0 0.95353059E+03</rscale>
<asrwt>0</asrwt>
<pdfrwt beam="1">  1        2 0.24893635E+00 0.95353059E+03</pdfrwt>
<pdfrwt beam="2">  1       -2 0.21611964E-01 0.95353059E+03</pdfrwt>
<totfact> 0.20321297E+02</totfact>
</mgrwt>
</event>
<event>
 6    1  0.1072514E-005  0.2254991E+04  0.7818608E-02  0.8495882E-01
         -2   -1    0    0    0  501 -0.00000000000E+00  0.00000000000E+00  0.46592551971E+03  0.46592551971E+03  0.00000000000E+00 0.  1.
          2   -1    0    0  501    0  0.00000000000E+00 -0.00000000000E+00 -0.27284325883E+04  0.27284325883E+04  0.00000000000E+00 0. -1.
         23    2    1    2    0    0 -0.27643127089E+03 -0.67727398779E+02 -0.26758999412E+04  0.26924667699E+04  0.89081782126E+02 0.  0.
         11    1    3    3    0    0 -0.69988291914E+02  0.16059832256E+02 -0.48848744532E+03  0.49373703877E+03  0.00000000000E+00 0.  1.
        -11    1    3    3    0    0 -0.20644297897E+03 -0.83787231036E+02 -0.21874124959E+04  0.21987297312E+04  0.00000000000E+00 0. -1.
         22    1    1    2    0    0  0.27643127089E+03  0.67727398779E+02  0.41339287262E+03  0.50189133804E+03  0.00000000000E+00 0.  1.
<mgrwt>
<rscale>  0 0.22549912E+04</rscale>
<asrwt>0</asrwt>
<pdfrwt beam="1">  1        2 0.41975885E+00 0.22549912E+04</pdfrwt>
<pdfrwt beam="2">  1       -2 0.71680852E-01 0.22549912E+04</pdfrwt>
<totfact> 0.41019791E+00</totfact>
</mgrwt>
</event>
<event>
 6    1  0.1072514E-005  0.1010541E+04  0.7818608E-02  0.9297058E-01
          2   -1    0    0  501    0  0.00000000000E+00  0.00000000000E+00  0.11544451968E+04  0.11544451968E+04  0.00000000000E+00 0. -1.
         -2   -1    0    0    0  501 -0.00000000000E+00 -0.00000000000E+00 -0.22114381287E+03  0.22114381287E+03  0.00000000000E+00 0.  1.
         23    2    1    2    0    0  0.38616934226E+03  0.31897890901E+03  0.49339013808E+03  0.70895852019E+03  0.91181410927E+02 0.  0.
         13    1    3    3    0    0  0.22343397193E+03  0.17675063481E+03  0.34183081404E+03  0.44498520441E+03  0.00000000000E+00 0.  1.
        -13    1    3    3    0    0  0.16273537033E+03  0.14222827420E+03  0.15155932404E+03  0.26397331577E+03  0.00000000000E+00 0. -1.
         22    1    1    2    0    0 -0.38616934226E+03 -0.31897890901E+03  0.43991124585E+03  0.66663048949E+03  0.00000000000E+00 0. -1.
<mgrwt>
<rscale>  0 0.10105413E+04</rscale>
<asrwt>0</asrwt>
<pdfrwt beam="1">  1        2 0.17760695E+00 0.10105413E+04</pdfrwt>
<pdfrwt beam="2">  1       -2 0.34022126E-01 0.10105413E+04</pdfrwt>
<totfact> 0.16260631E+02</totfact>
</mgrwt>
</event>
<event>
 6    1  0.1072514E-005  0.1802141E+04  0.7818608E-02  0.8705162E-01
          2   -1    0    0  501    0  0.00000000000E+00  0.00000000000E+00  0.12947718470E+04  0.12947718470E+04  0.00000000000E+00 0. -1.
         -2   -1    0    0    0  501 -0.00000000000E+00 -0.00000000000E+00 -0.62708167819E+03  0.62708167819E+03  0.00000000000E+00 0.  1.
         23    2    1    2    0    0  0.48208786790E+02  0.52267602587E+03  0.11126556779E+04  0.12337338994E+04  0.92641037661E+02 0.  0.
         13    1    3    3    0    0  0.11450431660E+02  0.13458850720E+03  0.20032550220E+03  0.24161019326E+03  0.00000000000E+00 0. -1.
        -13    1    3    3    0    0  0.36758355130E+02  0.38808751866E+03  0.91233017572E+03  0.99212370617E+03  0.00000000000E+00 0.  1.
         22    1    1    2    0    0 -0.48208786790E+02 -0.52267602587E+03 -0.44496550908E+03  0.68811962580E+03  0.00000000000E+00 0.  1.
<mgrwt>
<rscale>  0 0.18021406E+04</rscale>
<asrwt>0</asrwt>
<pdfrwt beam="1">  1        2 0.19919567E+00 0.18021406E+04</pdfrwt>
<pdfrwt beam="2">  1       -2 0.96474105E-01 0.18021406E+04</pdfrwt>
<totfact> 0.14128861E+01</totfact>
</mgrwt>
</event>
<event>
 6    1  0.1072514E-005  0.2423526E+04  0.7818608E-02  0.8430748E-01
          1   -1    0    0  501    0  0.00000000000E+00  0.00000000000E+00  0.27622754105E+04  0.27622754105E+04  0.00000000000E+00 0. -1.
         -1   -1    0    0    0  501 -0.00000000000E+00 -0.00000000000E+00 -0.53157958412E+03  0.53157958412E+03  0.00000000000E+00 0.  1.
         23    2    1    2    0    0 -0.19076540172E+03 -0.88758517004E+03  0.22041853617E+04  0.23856140148E+04  0.92316014036E+02 0.  0.
         11    1    3    3    0    0 -0.28561647948E+02 -0.95446743168E+02  0.17685138372E+03  0.20298339942E+03  0.00000000000E+00 0. -1.
        -11    1    3    3    0    0 -0.16220375377E+03 -0.79213842687E+03  0.20273339780E+04  0.21826306154E+04  0.00000000000E+00 0.  1.
         22    1    1    2    0    0  0.19076540172E+03  0.88758517004E+03  0.26510464648E+02  0.90824097975E+03  0.00000000000E+00 0. -1.
<mgrwt>
<rscale>  0 0.24235257E+04</rscale>
<asrwt>0</asrwt>
<pdfrwt beam="1">  1        1 0.42496544E+00 0.24235257E+04</pdfrwt>
<pdfrwt beam="2">  1       -1 0.81781476E-01 0.24235257E+04</pdfrwt>
<totfact> 0.11797368E+00</totfact>
</mgrwt>
</event>
<event>
 6    1  0.1072514E-005  0.1638457E+04  0.7818608E-02  0.8797265E-01
         -1   -1    0    0    0  501 -0.00000000000E+00  0.00000000000E+00  0.33546965150E+03  0.33546965150E+03  0.00000000000E+00 0.  1.
          1   -1    0    0  501    0  0.00000000000E+00 -0.00000000000E+00 -0.20005834281E+04  0.20005834281E+04  0.00000000000E+00 0. -1.
         23    2    1    2    0    0  0.42381664357E+03 -0.48816777376E+03 -0.15463709345E+04  0.16787645697E+04  0.95179256152E+02 0.  0.
         11    1    3    3    0    0  0.24184839133E+03 -0.20654509225E+03 -0.73788192315E+03  0.80350560174E+03  0.00000000000E+00 0. -1.
        -11    1    3    3    0    0  0.18196825225E+03 -0.28162268151E+03 -0.80848901130E+03  0.87525896794E+03  0.00000000000E+00 0.  1.
         22    1    1    2    0    0 -0.42381664357E+03  0.48816777376E+03 -0.11874284215E+03  0.65728850992E+03  0.00000000000E+00 0. -1.
<mgrwt>
<rscale>  0 0.16384566E+04</rscale>
<asrwt>0</asrwt>
<pdfrwt beam="1">  1        1 0.30778206E+00 0.16384566E+04</pdfrwt>
<pdfrwt beam="2">  1       -1 0.51610717E-01 0.16384566E+04</pdfrwt>
<totfact> 0.10761911E+01</totfact>
</mgrwt>
</event>
<event>
 6    1  0.1072514E-005  0.4272061E+04  0.7818608E-02  0.7951805E-01
         -2   -1    0    0    0  501 -0.00000000000E+00  0.00000000000E+00  0.14977814926E+04  0.14977814926E+04  0.00000000000E+00 0.  1.
          2   -1    0    0  501    0  0.00000000000E+00 -0.00000000000E+00 -0.30462564630E+04  0.30462564630E+04  0.00000000000E+00 0. -1.
         23    2    1    2    0    0  0.17654837809E+04  0.99894253719E+02 -0.20473878490E+04  0.27066958798E+04  0.86566384655E+02 0.  0.
         13    1    3    3    0    0  0.61094538127E+03  0.75850026760E+02 -0.71082146023E+03  0.94035877929E+03  0.00000000000E+00 0.  1.
        -13    1    3    3    0    0  0.11545383997E+04  0.24044226959E+02 -0.13365663888E+04  0.17663371006E+04  0.00000000000E+00 0. -1.
         22    1    1    2    0    0 -0.17654837809E+04 -0.99894253719E+02  0.49891287870E+03  0.18373420757E+04  0.00000000000E+00 0.  1.
<mgrwt>
<rscale>  0 0.42720611E+04</rscale>
<asrwt>0</asrwt>
<pdfrwt beam="1">  1        2 0.46865484E+00 0.42720611E+04</pdfrwt>
<pdfrwt beam="2">  1       -2 0.23042792E+00 0.42720611E+04</pdfrwt>
<totfact> 0.10670285E-01</totfact>
</mgrwt>
</event>
<event>
 6    1  0.1072514E-005  0.6632586E+03  0.7818608E-02  0.9782214E-01
          1   -1    0    0  501    0  0.00000000000E+00  0.00000000000E+00  0.24796596850E+03  0.24796596850E+03  0.00000000000E+00 0. -1.
         -1   -1    0    0    0  501 -0.00000000000E+00 -0.00000000000E+00 -0.44352049704E+03  0.44352049704E+03  0.00000000000E+00 0.  1.
         23    2    1    2    0    0 -0.31533628774E+03 -0.19313837464E+02 -0.17148995519E+02  0.32866621680E+03  0.88979746780E+02 0.  0.
         13    1    3    3    0    0 -0.15458286284E+03 -0.35925734269E+02  0.27350558078E+02  0.16104214633E+03  0.00000000000E+00 0. -1.
        -13    1    3    3    0    0 -0.16075342490E+03  0.16611896805E+02 -0.44499553596E+02  0.16762407048E+03  0.00000000000E+00 0.  1.
         22    1    1    2    0    0  0.31533628774E+03  0.19313837464E+02 -0.17840553302E+03  0.36282024874E+03  0.00000000000E+00 0.  1.
<mgrwt>
<rscale>  0 0.66325859E+03</rscale>
<asrwt>0</asrwt>
<pdfrwt beam="1">  1        1 0.38148611E-01 0.66325859E+03</pdfrwt>
<pdfrwt beam="2">  1       -1 0.68233922E-01 0.66325859E+03</pdfrwt>
<totfact> 0.24800413E+02</totfact>
</mgrwt>
</event>
<event>
 6    1  0.1072514E-005  0.5888908E+04  0.7818608E-02  0.7704330E-01
         -1   -1    0    0    0  501 -0.00000000000E+00  0.00000000000E+00  0.23401922264E+04  0.23401922264E+04  0.00000000000E+00 0.  1.
          1   -1    0    0  501    0  0.00000000000E+00 -0.00000000000E+00 -0.37047430062E+04  0.37047430062E+04  0.00000000000E+00 0. -1.
         23    2    1    2    0    0  0.91509767306E+03 -0.18657971780E+04  0.14579773184E+04  0.25399006071E+04  0.82427981426E+02 0.  0.
         11    1    3    3    0    0  0.75309592556E+03 -0.16018736491E+04  0.12436811335E+04  0.21633065946E+04  0.00000000000E+00 0.  1.
        -11    1    3    3    0    0  0.16200174750E+03 -0.26392352895E+03  0.21429618498E+03  0.37659401246E+03  0.00000000000E+00 0. -1.
         22    1    1    2    0    0 -0.91509767306E+03  0.18657971780E+04 -0.28225280982E+04  0.35050346255E+04  0.00000000000E+00 0. -1.
<mgrwt>
<rscale>  0 0.58889085E+04</rscale>
<asrwt>0</asrwt>
<pdfrwt beam="1">  1        1 0.56996045E+00 0.58889085E+04</pdfrwt>
<pdfrwt beam="2">  1       -1 0.36002958E+00 0.58889085E+04</pdfrwt>
<totfact> 0.15321676E-03</totfact>
</mgrwt>
</event>
<event>
 6    1  0.1072514E-005  0.4275164E+04  0.7818608E-02  0.7951227E-01
          1   -1    0    0  501    0  0.00000000000E+00  0.00000000000E+00  0.26689843816E+04  0.26689843816E+04  0.00000000000E+00 0. -1.
         -1   -1    0    0    0  501 -0.00000000000E+00 -0.00000000000E+00 -0.17119831106E+04  0.17119831106E+04  0.00000000000E+00 0.  1.
         23    2    1    2    0    0 -0.32512581885E+03  0.49366277493E+03 -0.16252864885E+04  0.17318884436E+04  0.92041718125E+02 0.  0.
         13    1    3    3    0    0 -0.16475206771E+03  0.16887858984E+03 -0.62729231383E+03  0.67019315791E+03  0.00000000000E+00 0. -1.
        -13    1    3    3    0    0 -0.16037375114E+03  0.32478418509E+03 -0.99799417466E+03  0.10616952857E+04  0.00000000000E+00 0.  1.
         22    1    1    2    0    0  0.32512581885E+03 -0.49366277493E+03  0.25822877594E+04  0.26490790486E+04  0.00000000000E+00 0. -1.
<mgrwt>
<rscale>  0 0.42751637E+04</rscale>
<asrwt>0</asrwt>
<pdfrwt beam="1">  1        1 0.41061298E+00 0.42751637E+04</pdfrwt>
<pdfrwt beam="2">  1       -1 0.26338202E+00 0.42751637E+04</pdfrwt>
<totfact> 0.45052800E-02</totfact>
</mgrwt>
</event>
<event>
 6    1  0.1072514E-005  0.1783656E+04  0.7818608E-02  0.8715040E-01
          2   -1    0    0  501    0  0.00000000000E+00  0.00000000000E+00  0.16205978415E+04  0.16205978415E+04  0.00000000000E+00 0. -1.
         -2   -1    0    0    0  501 -0.00000000000E+00 -0.00000000000E+00 -0.49078009801E+03  0.49078009801E+03  0.00000000000E+00 0.  1.
         23    2    1    2    0    0 -0.17678862182E+03  0.41232146100E+03  0.14755643689E+04  0.15449823773E+04  0.91744948112E+02 0.  0.
         11    1    3    3    0    0 -0.14985637490E+02  0.77059013512E+02  0.37609907601E+03  0.38420460157E+03  0.00000000000E+00 0. -1.
        -11    1    3    3    0    0 -0.16180298433E+03  0.33526244749E+03  0.10994652928E+04  0.11607777757E+04  0.00000000000E+00 0.  1.
         22    1    1    2    0    0  0.17678862182E+03 -0.41232146100E+03 -0.34574662533E+03  0.56639556225E+03  0.00000000000E+00 0.  1.
<mgrwt>
<rscale>  0 0.17836560E+04</rscale>
<asrwt>0</asrwt>
<pdfrwt beam="1">  1        2 0.24932274E+00 0.17836560E+04</pdfrwt>
<pdfrwt beam="2">  1       -2 0.75504631E-01 0.17836560E+04</pdfrwt>
<totfact> 0.16148975E+01</totfact>
</mgrwt>
</event>
<event>
 6    1  0.1072514E-005  0.2953006E+04  0.7818608E-02  0.8257279E-01
         -1   -1    0    0    0  501 -0.00000000000E+00  0.00000000000E+00  0.73735073241E+03  0.73735073241E+03  0.00000000000E+00 0.  1.
          1   -1    0    0  501    0  0.00000000000E+00 -0.00000000000E+00 -0.29566141111E+04  0.29566141111E+04  0.00000000000E+00 0. -1.
         23    2    1    2    0    0 -0.72154976082E+03 -0.96597461847E+03 -0.47633557245E+02  0.12100733197E+04  0.90925586628E+02 0.  0.
         11    1    3    3    0    0 -0.29539449034E+03 -0.46831645026E+03 -0.95124287422E+01  0.55377674997E+03  0.00000000000E+00 0.  1.
        -11    1    3    3    0    0 -0.42615527048E+03 -0.49765816820E+03 -0.38121128503E+02  0.65629656968E+03  0.00000000000E+00 0. -1.
         22    1    1    2    0    0  0.72154976082E+03  0.96597461847E+03 -0.21716298214E+04  0.24838915238E+04  0.00000000000E+00 0. -1.
<mgrwt>
<rscale>  0 0.29530063E+04</rscale>
<asrwt>0</asrwt>
<pdfrwt beam="1">  1        1 0.45486371E+00 0.29530063E+04</pdfrwt>
<pdfrwt beam="2">  1       -1 0.11343857E+00 0.29530063E+04</pdfrwt>
<totfact> 0.38933416E-01</totfact>
</mgrwt>
</event>
<event>
 6    1  0.1072514E-005  0.3957423E+04  0.7818608E-02  0.8013191E-01
         -1   -1    0    0    0  501 -0.00000000000E+00  0.00000000000E+00  0.11291017993E+04  0.11291017993E+04  0.00000000000E+00 0.  1.
          1   -1    0    0  501    0  0.00000000000E+00 -0.00000000000E+00 -0.34676220943E+04  0.34676220943E+04  0.00000000000E+00 0. -1.
         23    2    1    2    0    0  0.44457690433E+03 -0.44142097029E+03  0.10088995669E+04  0.11911812307E+04  0.92375816423E+02 0.  0.
         13    1    3    3    0    0  0.34458180481E+03 -0.28458209364E+03  0.73056517161E+03  0.85641640468E+03  0.00000000000E+00 0. -1.
        -13    1    3    3    0    0  0.99995099515E+02 -0.15683887666E+03  0.27833439530E+03  0.33476482606E+03  0.00000000000E+00 0.  1.
         22    1    1    2    0    0 -0.44457690433E+03  0.44142097029E+03 -0.33474198619E+04  0.34055426629E+04  0.00000000000E+00 0. -1.
<mgrwt>
<rscale>  0 0.39574226E+04</rscale>
<asrwt>0</asrwt>
<pdfrwt beam="1">  1        1 0.53348031E+00 0.39574226E+04</pdfrwt>
<pdfrwt beam="2">  1       -1 0.17370797E+00 0.39574226E+04</pdfrwt>
<totfact> 0.48033144E-02</totfact>
</mgrwt>
</event>
<event>
 6    1  0.1072514E-005  0.3926901E+04  0.7818608E-02  0.8019457E-01
         -2   -1    0    0    0  501 -0.00000000000E+00  0.00000000000E+00  0.24431840428E+04  0.24431840428E+04  0.00000000000E+00 0.  1.
          2   -1    0    0  501    0  0.00000000000E+00 -0.00000000000E+00 -0.15779157028E+04  0.15779157028E+04  0.00000000000E+00 0. -1.
         23    2    1    2    0    0 -0.15647542920E+04  0.10373802121E+04  0.10177240396E+04  0.21375243054E+04  0.92920592144E+02 0.  0.
         11    1    3    3    0    0 -0.62624358180E+03  0.46886375770E+03  0.41247684428E+03  0.88439323499E+03  0.00000000000E+00 0.  1.
        -11    1    3    3    0    0 -0.93851071020E+03  0.56851645436E+03  0.60524719535E+03  0.12531310704E+04  0.00000000000E+00 0. -1.
         22    1    1    2    0    0  0.15647542920E+04 -0.10373802121E+04 -0.15245569971E+03  0.18835754402E+04  0.00000000000E+00 0. -1.
<mgrwt>
<rscale>  0 0.39269013E+04</rscale>
<asrwt>0</asrwt>
<pdfrwt beam="1">  1        2 0.24275626E+00 0.39269013E+04</pdfrwt>
<pdfrwt beam="2">  1       -2 0.37587447E+00 0.39269013E+04</pdfrwt>
<totfact> 0.96876574E-02</totfact>
</mgrwt>
</event>
<event>
 6    1  0.1072514E-005  0.3184833E+04  0.7818608E-02  0.8192834E-01
          2   -1    0    0  501    0  0.00000000000E+00  0.00000000000E+00  0.14368327496E+04  0.14368327496E+04  0.00000000000E+00 0. -1.
         -2   -1    0    0    0  501 -0.00000000000E+00 -0.00000000000E+00 -0.17648472385E+04  0.17648472385E+04  0.00000000000E+00 0.  1.
         23    2    1    2    0    0  0.73194885215E+03 -0.16099641560E+03  0.12467733380E+04  0.14576542807E+04  0.92969229212E+02 0.  0.
         11    1    3    3    0    0  0.22423247239E+03 -0.17162526887E+02  0.42969728233E+03  0.48498918384E+03  0.00000000000E+00 0.  1.
        -11    1    3    3    0    0  0.50771637976E+03 -0.14383388871E+03  0.81707605571E+03  0.97266509685E+03  0.00000000000E+00 0. -1.
         22    1    1    2    0    0 -0.73194885215E+03  0.16099641560E+03 -0.15747878270E+04  0.17440257074E+04  0.00000000000E+00 0.  1.
<mgrwt>
<rscale>  0 0.31848330E+04</rscale>
<asrwt>0</asrwt>
<pdfrwt beam="1">  1        2 0.22105119E+00 0.31848330E+04</pdfrwt>
<pdfrwt beam="2">  1       -2 0.27151496E+00 0.31848330E+04</pdfrwt>
<totfact> 0.55145355E-01</totfact>
</mgrwt>
</event>
<event>
 6    1  0.1072514E-005  0.1332551E+04  0.7818608E-02  0.9004143E-01
          2   -1    0    0  501    0  0.00000000000E+00  0.00000000000E+00  0.39939739028E+04  0.39939739028E+04  0.00000000000E+00 0. -1.
         -2   -1    0    0    0  501 -0.00000000000E+00 -0.00000000000E+00 -0.11114817407E+03  0.11114817407E+03  0.00000000000E+00 0.  1.
         23    2    1    2    0    0  0.56759455433E+03  0.50447466473E+02  0.90670618809E+03  0.10749412167E+04  0.93134220017E+02 0.  0.
         11    1    3    3    0    0  0.22685901704E+03 -0.10529361496E+02  0.29767803369E+03  0.37441700390E+03  0.00000000000E+00 0.  1.
        -11    1    3    3    0    0  0.34073553729E+03  0.60976827969E+02  0.60902815440E+03  0.70052421284E+03  0.00000000000E+00 0. -1.
         22    1    1    2    0    0 -0.56759455433E+03 -0.50447466473E+02  0.29761195407E+04  0.30301808602E+04  0.00000000000E+00 0. -1.
<mgrwt>
<rscale>  0 0.13325508E+04</rscale>
<asrwt>0</asrwt>
<pdfrwt beam="1">  1        2 0.61445741E+00 0.13325508E+04</pdfrwt>
<pdfrwt beam="2">  1       -2 0.17099722E-01 0.13325508E+04</pdfrwt>
<totfact> 0.98037508E+00</totfact>
</mgrwt>
</event>
<event>
 6    1  0.1072514E-005  0.2541542E+04  0.7818608E-02  0.8388334E-01
          1   -1    0    0  501    0  0.00000000000E+00  0.00000000000E+00  0.38478486382E+04  0.38478486382E+04  0.00000000000E+00 0. -1.
         -1   -1    0    0    0  501 -0.00000000000E+00 -0.00000000000E+00 -0.41967824524E+03  0.41967824524E+03  0.00000000000E+00 0.  1.
         23    2    1    2    0    0 -0.13484095153E+03 -0.67397677345E+03  0.35077625525E+04  0.35756008143E+04  0.89979358172E+02 0.  0.
         13    1    3    3    0    0 -0.21870911718E+02 -0.21638462179E+03  0.13023945118E+04  0.13204287583E+04  0.00000000000E+00 0.  1.
        -13    1    3    3    0    0 -0.11297003981E+03 -0.45759215166E+03  0.22053680407E+04  0.22551720560E+04  0.00000000000E+00 0. -1.
         22    1    1    2    0    0  0.13484095153E+03  0.67397677345E+03 -0.79592159535E+02  0.69192606918E+03  0.00000000000E+00 0.  1.
<mgrwt>
<rscale>  0 0.25415416E+04</rscale>
<asrwt>0</asrwt>
<pdfrwt beam="1">  1        1 0.59197669E+00 0.25415416E+04</pdfrwt>
<pdfrwt beam="2">  1       -1 0.64565886E-01 0.25415416E+04</pdfrwt>
<totfact> 0.28011855E-01</totfact>
</mgrwt>
</event>
<event>
 6    1  0.1072514E-005  0.3566402E+04  0.7818608E-02  0.8098231E-01
          1   -1    0    0  501    0  0.00000000000E+00  0.00000000000E+00  0.18981803314E+04  0.18981803314E+04  0.00000000000E+00 0. -1.
         -1   -1    0    0    0  501 -0.00000000000E+00 -0.00000000000E+00 -0.16751862165E+04  0.16751862165E+04  0.00000000000E+00 0.  1.
         23    2    1    2    0    0 -0.14046064463E+04 -0.11945537016E+03 -0.98071082955E+03  0.17196960142E+04  0.91497516721E+02 0.  0.
         11    1    3    3    0    0 -0.60675179797E+03 -0.12064956393E+02 -0.44881252173E+03  0.75480195228E+03  0.00000000000E+00 0. -1.
        -11    1    3    3    0    0 -0.79785464834E+03 -0.10739041377E+03 -0.53189830783E+03  0.96489406191E+03  0.00000000000E+00 0.  1.
         22    1    1    2    0    0  0.14046064463E+04  0.11945537016E+03  0.12037049444E+04  0.18536705337E+04  0.00000000000E+00 0. -1.
<mgrwt>
<rscale>  0 0.35664018E+04</rscale>
<asrwt>0</asrwt>
<pdfrwt beam="1">  1        1 0.29202774E+00 0.35664018E+04</pdfrwt>
<pdfrwt beam="2">  1       -1 0.25772096E+00 0.35664018E+04</pdfrwt>
<totfact> 0.17600831E-01</totfact>
</mgrwt>
</event>
<event>
 6    1  0.1072514E-005  0.8159129E+03  0.7818608E-02  0.9537265E-01
          2   -1    0    0  501    0  0.00000000000E+00  0.00000000000E+00  0.21927463490E+04  0.21927463490E+04  0.00000000000E+00 0. -1.
         -2   -1    0    0    0  501 -0.00000000000E+00 -0.00000000000E+00 -0.75899556770E+02  0.75899556770E+02  0.00000000000E+00 0.  1.
         23    2    1    2    0    0  0.36456857459E+03 -0.57314696061E+02  0.62220458331E+03  0.72911657749E+03  0.90979229027E+02 0.  0.
         13    1    3    3    0    0  0.26837731875E+03 -0.74965151265E+00  0.44796526823E+03  0.52220669159E+03  0.00000000000E+00 0. -1.
        -13    1    3    3    0    0  0.96191255839E+02 -0.56565044549E+02  0.17423931508E+03  0.20690988590E+03  0.00000000000E+00 0.  1.
         22    1    1    2    0    0 -0.36456857459E+03  0.57314696061E+02  0.14946422089E+04  0.15395293283E+04  0.00000000000E+00 0. -1.
<mgrwt>
<rscale>  0 0.81591293E+03</rscale>
<asrwt>0</asrwt>
<pdfrwt beam="1">  1        2 0.33734554E+00 0.81591293E+03</pdfrwt>
<pdfrwt beam="2">  1       -2 0.11676857E-01 0.81591293E+03</pdfrwt>
<totfact> 0.28394302E+02</totfact>
</mgrwt>
</event>
<event>
 6    1  0.1072514E-005  0.3644972E+04  0.7818608E-02  0.8080267E-01
         -1   -1    0    0    0  501 -0.00000000000E+00  0.00000000000E+00  0.70352002244E+03  0.70352002244E+03  0.00000000000E+00 0.  1.
          1   -1    0    0  501    0  0.00000000000E+00 -0.00000000000E+00 -0.47211937484E+04  0.47211937484E+04  0.00000000000E+00 0. -1.
         23    2    1    2    0    0 -0.72249252138E+03  0.16460216435E+04 -0.24462674995E+04  0.30370998526E+04  0.91477544891E+02 0.  0.
         13    1    3    3    0    0 -0.54203043056E+03  0.11736089472E+04 -0.17019239219E+04  0.21372178140E+04  0.00000000000E+00 0.  1.
        -13    1    3    3    0    0 -0.18046209082E+03  0.47241269621E+03 -0.74434357759E+03  0.89988203853E+03  0.00000000000E+00 0. -1.
         22    1    1    2    0    0  0.72249252138E+03 -0.16460216435E+04 -0.15714062265E+04  0.23876139183E+04  0.00000000000E+00 0.  1.
<mgrwt>
<rscale>  0 0.36449715E+04</rscale>
<asrwt>0</asrwt>
<pdfrwt beam="1">  1        1 0.72633754E+00 0.36449715E+04</pdfrwt>
<pdfrwt beam="2">  1       -1 0.10823384E+00 0.36449715E+04</pdfrwt>
<totfact> 0.11852441E-02</totfact>
</mgrwt>
</event>
<event>
 6    1  0.1072514E-005  0.2263803E+04  0.7818608E-02  0.8492331E-01
          3   -1    0    0  501    0  0.00000000000E+00  0.00000000000E+00  0.17187540523E+04  0.17187540523E+04  0.00000000000E+00 0. -1.
         -3   -1    0    0    0  501 -0.00000000000E+00 -0.00000000000E+00 -0.74542409365E+03  0.74542409365E+03  0.00000000000E+00 0.  1.
         23    2    1    2    0    0  0.11092427110E+04 -0.44230568262E+02  0.25749926905E+03  0.11432734139E+04  0.91610535396E+02 0.  0.
         13    1    3    3    0    0  0.66389218267E+03 -0.15581225308E+02  0.10911222680E+03  0.67297925884E+03  0.00000000000E+00 0. -1.
        -13    1    3    3    0    0  0.44535052833E+03 -0.28649342955E+02  0.14838704224E+03  0.47029415502E+03  0.00000000000E+00 0.  1.
         22    1    1    2    0    0 -0.11092427110E+04  0.44230568262E+02  0.71583068960E+03  0.13209047321E+04  0.00000000000E+00 0. -1.
<mgrwt>
<rscale>  0 0.22638027E+04</rscale>
<asrwt>0</asrwt>
<pdfrwt beam="1">  1        3 0.26442370E+00 0.22638027E+04</pdfrwt>
<pdfrwt beam="2">  1       -3 0.11468063E+00 0.22638027E+04</pdfrwt>
<totfact> 0.91510744E-02</totfact>
</mgrwt>
</event>
<event>
 6    1  0.1072514E-005  0.2228152E+04  0.7818608E-02  0.8506801E-01
          1   -1    0    0  501    0  0.00000000000E+00  0.00000000000E+00  0.81724202636E+03  0.81724202636E+03  0.00000000000E+00 0.  1.
         -1   -1    0    0    0  501 -0.00000000000E+00 -0.00000000000E+00 -0.15187236453E+04  0.15187236453E+04  0.00000000000E+00 0. -1.
         23    2    1    2    0    0 -0.64295042647E+03 -0.13276881242E+01  0.60021912002E+03  0.88413516246E+03  0.89693811427E+02 0.  0.
         13    1    3    3    0    0 -0.30736729649E+03  0.12890746870E+02  0.22899150112E+03  0.38350741047E+03  0.00000000000E+00 0. -1.
        -13    1    3    3    0    0 -0.33558312998E+03 -0.14218434994E+02  0.37122761891E+03  0.50062775199E+03  0.00000000000E+00 0.  1.
         22    1    1    2    0    0  0.64295042647E+03  0.13276881242E+01 -0.13017007390E+04  0.14518305092E+04  0.00000000000E+00 0. -1.
<mgrwt>
<rscale>  0 0.22281515E+04</rscale>
<asrwt>0</asrwt>
<pdfrwt beam="1">  1        1 0.12572954E+00 0.22281515E+04</pdfrwt>
<pdfrwt beam="2">  1       -1 0.23364979E+00 0.22281515E+04</pdfrwt>
<totfact> 0.17343083E+00</totfact>
</mgrwt>
</event>
<event>
 6    1  0.1072514E-005  0.3544745E+04  0.7818608E-02  0.8103267E-01
         -1   -1    0    0    0  501 -0.00000000000E+00  0.00000000000E+00  0.65576291087E+03  0.65576291087E+03  0.00000000000E+00 0.  1.
          1   -1    0    0  501    0  0.00000000000E+00 -0.00000000000E+00 -0.47903051431E+04  0.47903051431E+04  0.00000000000E+00 0. -1.
         23    2    1    2    0    0  0.14426092727E+04 -0.10275264841E+04 -0.21012093537E+04  0.27495193739E+04  0.88565513439E+02 0.  0.
         13    1    3    3    0    0  0.12444964008E+04 -0.88942408031E+03 -0.17657812050E+04  0.23361998524E+04  0.00000000000E+00 0.  1.
        -13    1    3    3    0    0  0.19811287187E+03 -0.13810240378E+03 -0.33542814867E+03  0.41331952149E+03  0.00000000000E+00 0. -1.
         22    1    1    2    0    0 -0.14426092727E+04  0.10275264841E+04 -0.20333328786E+04  0.26965486801E+04  0.00000000000E+00 0. -1.
<mgrwt>
<rscale>  0 0.35447451E+04</rscale>
<asrwt>0</asrwt>
<pdfrwt beam="1">  1        1 0.73697001E+00 0.35447451E+04</pdfrwt>
<pdfrwt beam="2">  1       -1 0.10088660E+00 0.35447451E+04</pdfrwt>
<totfact> 0.11746708E-02</totfact>
</mgrwt>
</event>
<event>
 6    1  0.1072514E-005  0.2819919E+04  0.7818608E-02  0.8297111E-01
         -1   -1    0    0    0  501 -0.00000000000E+00  0.00000000000E+00  0.82865274939E+03  0.82865274939E+03  0.00000000000E+00 0.  1.
          1   -1    0    0  501    0  0.00000000000E+00 -0.00000000000E+00 -0.23990576654E+04  0.23990576654E+04  0.00000000000E+00 0. -1.
         23    2    1    2    0    0 -0.11754756681E+04 -0.58646446087E+03 -0.20380833963E+03  0.13321182085E+04  0.85542222575E+02 0.  0.
         11    1    3    3    0    0 -0.69297997264E+03 -0.34988391280E+03 -0.77964183389E+02  0.78020408151E+03  0.00000000000E+00 0. -1.
        -11    1    3    3    0    0 -0.48249569546E+03 -0.23658054808E+03 -0.12584415624E+03  0.55191412695E+03  0.00000000000E+00 0.  1.
         22    1    1    2    0    0  0.11754756681E+04  0.58646446087E+03 -0.13665965764E+04  0.18955922063E+04  0.00000000000E+00 0. -1.
<mgrwt>
<rscale>  0 0.28199190E+04</rscale>
<asrwt>0</asrwt>
<pdfrwt beam="1">  1        1 0.36908580E+00 0.28199190E+04</pdfrwt>
<pdfrwt beam="2">  1       -1 0.12748504E+00 0.28199190E+04</pdfrwt>
<totfact> 0.73229374E-01</totfact>
</mgrwt>
</event>
<event>
 6    1  0.1072514E-005  0.2173656E+04  0.7818608E-02  0.8529474E-01
          1   -1    0    0  501    0  0.00000000000E+00  0.00000000000E+00  0.23347679368E+04  0.23347679368E+04  0.00000000000E+00 0. -1.
         -1   -1    0    0    0  501 -0.00000000000E+00 -0.00000000000E+00 -0.50591539376E+03  0.50591539376E+03  0.00000000000E+00 0.  1.
         23    2    1    2    0    0 -0.83762794703E+03  0.34014069128E+03  0.13252282314E+03  0.91848386480E+03  0.93456105959E+02 0.  0.
         11    1    3    3    0    0 -0.67170192188E+03  0.27924939496E+03  0.69132712298E+02  0.73071405375E+03  0.00000000000E+00 0.  1.
        -11    1    3    3    0    0 -0.16592602515E+03  0.60891296324E+02  0.63390110838E+02  0.18776981105E+03  0.00000000000E+00 0. -1.
         22    1    1    2    0    0  0.83762794703E+03 -0.34014069128E+03  0.16963297199E+04  0.19221994657E+04  0.00000000000E+00 0. -1.
<mgrwt>
<rscale>  0 0.21736559E+04</rscale>
<asrwt>0</asrwt>
<pdfrwt beam="1">  1        1 0.35919506E+00 0.21736559E+04</pdfrwt>
<pdfrwt beam="2">  1       -1 0.77833138E-01 0.21736559E+04</pdfrwt>
<totfact> 0.26619195E+00</totfact>
</mgrwt>
</event>
<event>
 6    1  0.1072514E-005  0.1712028E+04  0.7818608E-02  0.8754534E-01
         -1   -1    0    0    0  501 -0.00000000000E+00  0.00000000000E+00  0.58067241101E+03  0.58067241101E+03  0.00000000000E+00 0.  1.
          1   -1    0    0  501    0  0.00000000000E+00 -0.00000000000E+00 -0.12619155812E+04  0.12619155812E+04  0.00000000000E+00 0. -1.
         23    2    1    2    0    0 -0.62152282743E+03 -0.50333739658E+03 -0.20773735867E+02  0.80535174452E+03  0.92307770454E+02 0.  0.
         11    1    3    3    0    0 -0.34976449074E+03 -0.32122841105E+03  0.22181143883E+02  0.47541023779E+03  0.00000000000E+00 0. -1.
        -11    1    3    3    0    0 -0.27175833669E+03 -0.18210898553E+03 -0.42954879751E+02  0.32994150673E+03  0.00000000000E+00 0.  1.
         22    1    1    2    0    0  0.62152282743E+03  0.50333739658E+03 -0.66046943430E+03  0.10372362477E+04  0.00000000000E+00 0.  1.
<mgrwt>
<rscale>  0 0.17120275E+04</rscale>
<asrwt>0</asrwt>
<pdfrwt beam="1">  1        1 0.19414086E+00 0.17120275E+04</pdfrwt>
<pdfrwt beam="2">  1       -1 0.89334218E-01 0.17120275E+04</pdfrwt>
<totfact> 0.11246651E+01</totfact>
</mgrwt>
</event>
<event>
 6    1  0.1072514E-005  0.6978129E+03  0.7818608E-02  0.9720980E-01
          2   -1    0    0  501    0  0.00000000000E+00  0.00000000000E+00  0.48376290189E+03  0.48376290189E+03  0.00000000000E+00 0. -1.
         -2   -1    0    0    0  501 -0.00000000000E+00 -0.00000000000E+00 -0.25164337251E+03  0.25164337251E+03  0.00000000000E+00 0.  1.
         23    2    1    2    0    0 -0.28111574636E+03  0.12802920056E+03  0.27462862420E+03  0.42359773990E+03  0.92717986251E+02 0.  0.
         13    1    3    3    0    0 -0.14021548266E+03  0.66380524057E+02  0.77045774552E+02  0.17321318347E+03  0.00000000000E+00 0.  1.
        -13    1    3    3    0    0 -0.14090026369E+03  0.61648676502E+02  0.19758284964E+03  0.25038455643E+03  0.00000000000E+00 0. -1.
         22    1    1    2    0    0  0.28111574636E+03 -0.12802920056E+03 -0.42509094809E+02  0.31180853450E+03  0.00000000000E+00 0.  1.
<mgrwt>
<rscale>  0 0.69781295E+03</rscale>
<asrwt>0</asrwt>
<pdfrwt beam="1">  1        2 0.74425062E-01 0.69781295E+03</pdfrwt>
<pdfrwt beam="2">  1       -2 0.38714365E-01 0.69781295E+03</pdfrwt>
<totfact> 0.40652800E+02</totfact>
</mgrwt>
</event>
<event>
 6    1  0.1072514E-005  0.2805762E+04  0.7818608E-02  0.8301482E-01
          2   -1    0    0  501    0  0.00000000000E+00  0.00000000000E+00  0.10074688261E+04  0.10074688261E+04  0.00000000000E+00 0.  1.
         -2   -1    0    0    0  501 -0.00000000000E+00 -0.00000000000E+00 -0.19534844274E+04  0.19534844274E+04  0.00000000000E+00 0. -1.
         23    2    1    2    0    0 -0.10548251000E+04 -0.61023705123E+03 -0.12035203450E+04  0.17154196557E+04  0.95698087537E+02 0.  0.
         13    1    3    3    0    0 -0.66612170285E+03 -0.41673186243E+03 -0.72266834339E+03  0.10675359960E+04  0.00000000000E+00 0. -1.
        -13    1    3    3    0    0 -0.38870339717E+03 -0.19350518880E+03 -0.48085200160E+03  0.64788365970E+03  0.00000000000E+00 0.  1.
         22    1    1    2    0    0  0.10548251000E+04  0.61023705123E+03  0.25750474367E+03  0.12455335978E+04  0.00000000000E+00 0.  1.
<mgrwt>
<rscale>  0 0.28057617E+04</rscale>
<asrwt>0</asrwt>
<pdfrwt beam="1">  1        2 0.15499520E+00 0.28057617E+04</pdfrwt>
<pdfrwt beam="2">  1       -2 0.30053607E+00 0.28057617E+04</pdfrwt>
<totfact> 0.68345552E-01</totfact>
</mgrwt>
</event>
<event>
 6    1  0.1072514E-005  0.3206885E+04  0.7818608E-02  0.8187001E-01
          2   -1    0    0  501    0  0.00000000000E+00  0.00000000000E+00  0.15089187555E+04  0.15089187555E+04  0.00000000000E+00 0.  1.
         -2   -1    0    0    0  501 -0.00000000000E+00 -0.00000000000E+00 -0.17038876110E+04  0.17038876110E+04  0.00000000000E+00 0. -1.
         23    2    1    2    0    0 -0.46957278493E+03 -0.30196401301E+03  0.14068456569E+04  0.15164895926E+04  0.94048481266E+02 0.  0.
         11    1    3    3    0    0 -0.39143313033E+03 -0.25965790258E+03  0.10788948841E+04  0.11767141933E+04  0.00000000000E+00 0. -1.
        -11    1    3    3    0    0 -0.78139654596E+02 -0.42306110425E+02  0.32795077280E+03  0.33977539931E+03  0.00000000000E+00 0.  1.
         22    1    1    2    0    0  0.46957278493E+03  0.30196401301E+03 -0.16018145124E+04  0.16963167739E+04  0.00000000000E+00 0. -1.
<mgrwt>
<rscale>  0 0.32068851E+04</rscale>
<asrwt>0</asrwt>
<pdfrwt beam="1">  1        2 0.23214135E+00 0.32068851E+04</pdfrwt>
<pdfrwt beam="2">  1       -2 0.26213655E+00 0.32068851E+04</pdfrwt>
<totfact> 0.57168808E-01</totfact>
</mgrwt>
</event>
<event>
 6    1  0.1072514E-005  0.1650524E+04  0.7818608E-02  0.8790097E-01
          1   -1    0    0  501    0  0.00000000000E+00  0.00000000000E+00  0.38782910810E+03  0.38782910810E+03  0.00000000000E+00 0. -1.
         -1   -1    0    0    0  501 -0.00000000000E+00 -0.00000000000E+00 -0.17560752249E+04  0.17560752249E+04  0.00000000000E+00 0.  1.
         23    2    1    2    0    0 -0.52968557365E+03  0.47118147814E+03 -0.14413199845E+03  0.72932518463E+03  0.92533235571E+02 0.  0.
         13    1    3    3    0    0 -0.21770039625E+03  0.16116477338E+03 -0.93727755128E+02  0.28662246735E+03  0.00000000000E+00 0. -1.
        -13    1    3    3    0    0 -0.31198517739E+03  0.31001670475E+03 -0.50404243326E+02  0.44270271728E+03  0.00000000000E+00 0.  1.
         22    1    1    2    0    0  0.52968557365E+03 -0.47118147814E+03 -0.12241141183E+04  0.14145791484E+04  0.00000000000E+00 0.  1.
<mgrwt>
<rscale>  0 0.16505237E+04</rscale>
<asrwt>0</asrwt>
<pdfrwt beam="1">  1        1 0.59666016E-01 0.16505237E+04</pdfrwt>
<pdfrwt beam="2">  1       -1 0.27016542E+00 0.16505237E+04</pdfrwt>
<totfact> 0.30814750E+00</totfact>
</mgrwt>
</event>
<event>
 6    1  0.1072514E-005  0.6835756E+04  0.7818608E-02  0.7594615E-01
         -2   -1    0    0    0  501 -0.00000000000E+00  0.00000000000E+00  0.56845262765E+04  0.56845262765E+04  0.00000000000E+00 0.  1.
          2   -1    0    0  501    0  0.00000000000E+00 -0.00000000000E+00 -0.20550334318E+04  0.20550334318E+04  0.00000000000E+00 0. -1.
         23    2    1    2    0    0  0.26674055995E+04  0.15262911088E+04  0.12297046248E+03  0.30769084885E+04  0.87332299754E+02 0.  0.
         13    1    3    3    0    0  0.18730077718E+04  0.10391470887E+04  0.57177378669E+02  0.21427211760E+04  0.00000000000E+00 0.  1.
        -13    1    3    3    0    0  0.79439782768E+03  0.48714402012E+03  0.65793083807E+02  0.93418731250E+03  0.00000000000E+00 0. -1.
         22    1    1    2    0    0 -0.26674055995E+04 -0.15262911088E+04  0.35065223822E+04  0.46626512198E+04  0.00000000000E+00 0.  1.
<mgrwt>
<rscale>  0 0.68357564E+04</rscale>
<asrwt>0</asrwt>
<pdfrwt beam="1">  1        2 0.31615899E+00 0.68357564E+04</pdfrwt>
<pdfrwt beam="2">  1       -2 0.87454250E+00 0.68357564E+04</pdfrwt>
<totfact> 0.71937376E-05</totfact>
</mgrwt>
</event>
<event>
 6    1  0.1072514E-005  0.2005510E+04  0.7818608E-02  0.8604049E-01
         -2   -1    0    0    0  501 -0.00000000000E+00  0.00000000000E+00  0.10936789844E+04  0.10936789844E+04  0.00000000000E+00 0.  1.
          2   -1    0    0  501    0  0.00000000000E+00 -0.00000000000E+00 -0.91939030326E+03  0.91939030326E+03  0.00000000000E+00 0. -1.
         23    2    1    2    0    0 -0.51661785723E+03  0.59645112335E+03  0.70654405256E+03  0.10612585222E+04  0.66462017324E+02 0.  0.
         11    1    3    3    0    0 -0.58226443387E+02  0.80962584065E+02  0.11791149560E+03  0.15442920554E+03  0.00000000000E+00 0. -1.
        -11    1    3    3    0    0 -0.45839141384E+03  0.51548853928E+03  0.58863255696E+03  0.90682931665E+03  0.00000000000E+00 0.  1.
         22    1    1    2    0    0  0.51661785723E+03 -0.59645112335E+03 -0.53225537140E+03  0.95181076550E+03  0.00000000000E+00 0. -1.
<mgrwt>
<rscale>  0 0.20055103E+04</rscale>
<asrwt>0</asrwt>
<pdfrwt beam="1">  1        2 0.14144466E+00 0.20055103E+04</pdfrwt>
<pdfrwt beam="2">  1       -2 0.16825831E+00 0.20055103E+04</pdfrwt>
<totfact> 0.57934032E+00</totfact>
</mgrwt>
</event>
<event>
 6    1  0.1072514E-005  0.5282243E+04  0.7818608E-02  0.7786385E-01
          1   -1    0    0  501    0  0.00000000000E+00  0.00000000000E+00  0.18945881078E+04  0.18945881078E+04  0.00000000000E+00 0. -1.
         -1   -1    0    0    0  501 -0.00000000000E+00 -0.00000000000E+00 -0.36818155001E+04  0.36818155001E+04  0.00000000000E+00 0.  1.
         23    2    1    2    0    0 -0.82713624156E+03 -0.43926912330E+03 -0.35000096695E+04  0.36242932489E+04  0.91225777280E+02 0.  0.
         11    1    3    3    0    0 -0.13401698884E+03 -0.78786991596E+02 -0.46283069633E+03  0.48824194495E+03  0.00000000000E+00 0.  1.
        -11    1    3    3    0    0 -0.69311925272E+03 -0.36048213171E+03 -0.30371789732E+04  0.31360513040E+04  0.00000000000E+00 0. -1.
         22    1    1    2    0    0  0.82713624156E+03  0.43926912330E+03  0.17127822772E+04  0.19521103590E+04  0.00000000000E+00 0. -1.
<mgrwt>
<rscale>  0 0.52822434E+04</rscale>
<asrwt>0</asrwt>
<pdfrwt beam="1">  1        1 0.29147510E+00 0.52822434E+04</pdfrwt>
<pdfrwt beam="2">  1       -1 0.56643315E+00 0.52822434E+04</pdfrwt>
<totfact> 0.15564055E-03</totfact>
</mgrwt>
</event>
<event>
 6    1  0.1072514E-005  0.2984738E+04  0.7818608E-02  0.8248102E-01
         -1   -1    0    0    0  501 -0.00000000000E+00  0.00000000000E+00  0.17151494077E+04  0.17151494077E+04  0.00000000000E+00 0.  1.
          1   -1    0    0  501    0  0.00000000000E+00 -0.00000000000E+00 -0.12985258835E+04  0.12985258835E+04  0.00000000000E+00 0. -1.
         23    2    1    2    0    0  0.97486680908E+03  0.69658403716E+03 -0.68752277498E+03  0.13843399463E+04  0.90082764727E+02 0.  0.
         13    1    3    3    0    0  0.43359262575E+03  0.26099259622E+03 -0.26675926451E+03  0.57208408962E+03  0.00000000000E+00 0. -1.
        -13    1    3    3    0    0  0.54127418332E+03  0.43559144094E+03 -0.42076351046E+03  0.81225585667E+03  0.00000000000E+00 0.  1.
         22    1    1    2    0    0 -0.97486680908E+03 -0.69658403716E+03  0.11041462992E+04  0.16293353449E+04  0.00000000000E+00 0.  1.
<mgrwt>
<rscale>  0 0.29847384E+04</rscale>
<asrwt>0</asrwt>
<pdfrwt beam="1">  1        1 0.19977321E+00 0.29847384E+04</pdfrwt>
<pdfrwt beam="2">  1       -1 0.26386914E+00 0.29847384E+04</pdfrwt>
<totfact> 0.43754746E-01</totfact>
</mgrwt>
</event>
<event>
 6    1  0.1072514E-005  0.3977169E+04  0.7818608E-02  0.8009168E-01
          1   -1    0    0  501    0  0.00000000000E+00  0.00000000000E+00  0.30792597100E+04  0.30792597100E+04  0.00000000000E+00 0. -1.
         -1   -1    0    0    0  501 -0.00000000000E+00 -0.00000000000E+00 -0.12842269439E+04  0.12842269439E+04  0.00000000000E+00 0.  1.
         23    2    1    2    0    0 -0.26529666086E+03  0.19634102010E+04  0.10696815123E+04  0.22536296973E+04  0.96261824344E+02 0.  0.
         13    1    3    3    0    0 -0.12831513878E+03  0.66581535631E+03  0.33715728700E+03  0.75726474876E+03  0.00000000000E+00 0. -1.
        -13    1    3    3    0    0 -0.13698152208E+03  0.12975948447E+04  0.73252422529E+03  0.14963649485E+04  0.00000000000E+00 0.  1.
         22    1    1    2    0    0  0.26529666086E+03 -0.19634102010E+04  0.72535125381E+03  0.21098569566E+04  0.00000000000E+00 0. -1.
<mgrwt>
<rscale>  0 0.39771690E+04</rscale>
<asrwt>0</asrwt>
<pdfrwt beam="1">  1        1 0.47373226E+00 0.39771690E+04</pdfrwt>
<pdfrwt beam="2">  1       -1 0.19757338E+00 0.39771690E+04</pdfrwt>
<totfact> 0.64084820E-02</totfact>
</mgrwt>
</event>
<event>
 6    1  0.1072514E-005  0.1899854E+04  0.7818608E-02  0.8654929E-01
          2   -1    0    0  501    0  0.00000000000E+00  0.00000000000E+00  0.48732065016E+03  0.48732065016E+03  0.00000000000E+00 0. -1.
         -2   -1    0    0    0  501 -0.00000000000E+00 -0.00000000000E+00 -0.18516791477E+04  0.18516791477E+04  0.00000000000E+00 0.  1.
         23    2    1    2    0    0  0.81239540384E+03  0.44053002571E+03 -0.42491553043E+03  0.10211962904E+04  0.90750536236E+02 0.  0.
         11    1    3    3    0    0  0.36183037063E+03  0.23585174624E+03 -0.22985377668E+03  0.48926477696E+03  0.00000000000E+00 0.  1.
        -11    1    3    3    0    0  0.45056503321E+03  0.20467827948E+03 -0.19506175375E+03  0.53193151346E+03  0.00000000000E+00 0. -1.
         22    1    1    2    0    0 -0.81239540384E+03 -0.44053002571E+03 -0.93944296708E+03  0.13178035074E+04  0.00000000000E+00 0.  1.
<mgrwt>
<rscale>  0 0.18998542E+04</rscale>
<asrwt>0</asrwt>
<pdfrwt beam="1">  1        2 0.74972409E-01 0.18998542E+04</pdfrwt>
<pdfrwt beam="2">  1       -2 0.28487371E+00 0.18998542E+04</pdfrwt>
<totfact> 0.23387214E+00</totfact>
</mgrwt>
</event>
<event>
 6    1  0.1072514E-005  0.2054286E+04  0.7818608E-02  0.8581653E-01
          1   -1    0    0  501    0  0.00000000000E+00  0.00000000000E+00  0.58982110063E+03  0.58982110063E+03  0.00000000000E+00 0.  1.
         -1   -1    0    0    0  501 -0.00000000000E+00 -0.00000000000E+00 -0.17887161436E+04  0.17887161436E+04  0.00000000000E+00 0. -1.
         23    2    1    2    0    0  0.75561444261E+03 -0.50700720967E+01  0.20361177743E+03  0.78542573752E+03  0.66760330515E+02 0.  0.
         13    1    3    3    0    0  0.46698631191E+03  0.20361030522E+02  0.14878099594E+03  0.49053702391E+03  0.00000000000E+00 0. -1.
        -13    1    3    3    0    0  0.28862813071E+03 -0.25431102619E+02  0.54830781495E+02  0.29488871361E+03  0.00000000000E+00 0.  1.
         22    1    1    2    0    0 -0.75561444261E+03  0.50700720967E+01 -0.14025068204E+04  0.15931115067E+04  0.00000000000E+00 0. -1.
<mgrwt>
<rscale>  0 0.20542858E+04</rscale>
<asrwt>0</asrwt>
<pdfrwt beam="1">  1        1 0.90741710E-01 0.20542858E+04</pdfrwt>
<pdfrwt beam="2">  1       -1 0.27518709E+00 0.20542858E+04</pdfrwt>
<totfact> 0.15503519E+00</totfact>
</mgrwt>
</event>
<event>
 6    1  0.1072514E-005  0.2906465E+04  0.7818608E-02  0.8270956E-01
          2   -1    0    0  501    0  0.00000000000E+00  0.00000000000E+00  0.11275034700E+04  0.11275034700E+04  0.00000000000E+00 0. -1.
         -2   -1    0    0    0  501 -0.00000000000E+00 -0.00000000000E+00 -0.18730632953E+04  0.18730632953E+04  0.00000000000E+00 0.  1.
         23    2    1    2    0    0 -0.75075899156E+03  0.20123676840E+03 -0.16390132872E+04  0.18163394269E+04  0.92677171147E+02 0.  0.
         11    1    3    3    0    0 -0.60308948488E+03  0.19706740022E+03 -0.13016213594E+04  0.14480230144E+04  0.00000000000E+00 0.  1.
        -11    1    3    3    0    0 -0.14766950667E+03  0.41693681883E+01 -0.33739192779E+03  0.36831641257E+03  0.00000000000E+00 0. -1.
         22    1    1    2    0    0  0.75075899156E+03 -0.20123676840E+03  0.89345346189E+03  0.11842273384E+04  0.00000000000E+00 0. -1.
<mgrwt>
<rscale>  0 0.29064655E+04</rscale>
<asrwt>0</asrwt>
<pdfrwt beam="1">  1        2 0.17346207E+00 0.29064655E+04</pdfrwt>
<pdfrwt beam="2">  1       -2 0.28816358E+00 0.29064655E+04</pdfrwt>
<totfact> 0.67864308E-01</totfact>
</mgrwt>
</event>
<event>
 6    1  0.1072514E-005  0.4412807E+04  0.7818608E-02  0.7926082E-01
          2   -1    0    0  501    0  0.00000000000E+00  0.00000000000E+00  0.29389447822E+04  0.29389447822E+04  0.00000000000E+00 0. -1.
         -2   -1    0    0    0  501 -0.00000000000E+00 -0.00000000000E+00 -0.16564501286E+04  0.16564501286E+04  0.00000000000E+00 0.  1.
         23    2    1    2    0    0 -0.21261910785E+04 -0.39429929529E+03  0.19002093035E+03  0.21726569405E+04  0.90386892697E+02 0.  0.
         11    1    3    3    0    0 -0.14960671640E+04 -0.30806350952E+03  0.10592695640E+03  0.15311239679E+04  0.00000000000E+00 0.  1.
        -11    1    3    3    0    0 -0.63012391458E+03 -0.86235785766E+02  0.84093973941E+02  0.64153297260E+03  0.00000000000E+00 0. -1.
         22    1    1    2    0    0  0.21261910785E+04  0.39429929529E+03  0.10924737232E+04  0.24227379703E+04  0.00000000000E+00 0. -1.
<mgrwt>
<rscale>  0 0.44128066E+04</rscale>
<asrwt>0</asrwt>
<pdfrwt beam="1">  1        2 0.45214535E+00 0.44128066E+04</pdfrwt>
<pdfrwt beam="2">  1       -2 0.25483848E+00 0.44128066E+04</pdfrwt>
<totfact> 0.86996738E-02</totfact>
</mgrwt>
</event>
<event>
 6    1  0.1072514E-005  0.1497722E+04  0.7818608E-02  0.8885969E-01
         -1   -1    0    0    0  501 -0.00000000000E+00  0.00000000000E+00  0.38669254525E+03  0.38669254525E+03  0.00000000000E+00 0.  1.
          1   -1    0    0  501    0  0.00000000000E+00 -0.00000000000E+00 -0.14502291045E+04  0.14502291045E+04  0.00000000000E+00 0. -1.
         23    2    1    2    0    0 -0.20446037656E+03  0.50549043648E+03  0.90855949025E+02  0.56022799420E+03  0.90972386215E+02 0.  0.
         11    1    3    3    0    0 -0.93183123116E+02  0.34446412606E+03  0.50909910270E+02  0.36045866274E+03  0.00000000000E+00 0. -1.
        -11    1    3    3    0    0 -0.11127725344E+03  0.16102631042E+03  0.39946038755E+02  0.19976933146E+03  0.00000000000E+00 0.  1.
         22    1    1    2    0    0  0.20446037656E+03 -0.50549043648E+03 -0.11543925083E+04  0.12766936555E+04  0.00000000000E+00 0. -1.
<mgrwt>
<rscale>  0 0.14977220E+04</rscale>
<asrwt>0</asrwt>
<pdfrwt beam="1">  1        1 0.22311217E+00 0.14977220E+04</pdfrwt>
<pdfrwt beam="2">  1       -1 0.59491161E-01 0.14977220E+04</pdfrwt>
<totfact> 0.19633921E+01</totfact>
</mgrwt>
</event>
<event>
 6    1  0.1072514E-005  0.2307086E+04  0.7818608E-02  0.8475132E-01
          2   -1    0    0  501    0  0.00000000000E+00  0.00000000000E+00  0.14119496446E+04  0.14119496446E+04  0.00000000000E+00 0. -1.
         -2   -1    0    0    0  501 -0.00000000000E+00 -0.00000000000E+00 -0.94242840022E+03  0.94242840022E+03  0.00000000000E+00 0.  1.
         23    2    1    2    0    0 -0.17594209518E+03  0.11380139927E+04  0.21202173418E+03  0.11744045425E+04  0.90781855055E+02 0.  0.
         11    1    3    3    0    0 -0.12260105338E+03  0.65325861288E+03  0.16232051924E+03  0.68419718252E+03  0.00000000000E+00 0. -1.
        -11    1    3    3    0    0 -0.53341041797E+02  0.48475537981E+03  0.49701214941E+02  0.49020735997E+03  0.00000000000E+00 0.  1.
         22    1    1    2    0    0  0.17594209518E+03 -0.11380139927E+04  0.25749951019E+03  0.11799735023E+04  0.00000000000E+00 0.  1.
<mgrwt>
<rscale>  0 0.23070860E+04</rscale>
<asrwt>0</asrwt>
<pdfrwt beam="1">  1        2 0.21722302E+00 0.23070860E+04</pdfrwt>
<pdfrwt beam="2">  1       -2 0.14498898E+00 0.23070860E+04</pdfrwt>
<totfact> 0.42308067E+00</totfact>
</mgrwt>
</event>
<event>
 6    1  0.1072514E-005  0.1017579E+04  0.7818608E-02  0.9289472E-01
          2   -1    0    0  501    0  0.00000000000E+00  0.00000000000E+00  0.17007878643E+03  0.17007878643E+03  0.00000000000E+00 0. -1.
         -2   -1    0    0    0  501 -0.00000000000E+00 -0.00000000000E+00 -0.15220394316E+04  0.15220394316E+04  0.00000000000E+00 0.  1.
         23    2    1    2    0    0  0.29318217846E+03  0.39659429160E+03 -0.50559767320E+03  0.71254019549E+03  0.94030320382E+02 0.  0.
         11    1    3    3    0    0  0.56872767866E+02  0.61175505060E+02 -0.13980250402E+03  0.16285482576E+03  0.00000000000E+00 0.  1.
        -11    1    3    3    0    0  0.23630941059E+03  0.33541878654E+03 -0.36579516918E+03  0.54968536973E+03  0.00000000000E+00 0. -1.
         22    1    1    2    0    0 -0.29318217846E+03 -0.39659429160E+03 -0.84636297193E+03  0.97957802249E+03  0.00000000000E+00 0. -1.
<mgrwt>
<rscale>  0 0.10175787E+04</rscale>
<asrwt>0</asrwt>
<pdfrwt beam="1">  1        2 0.26165967E-01 0.10175787E+04</pdfrwt>
<pdfrwt beam="2">  1       -2 0.23415991E+00 0.10175787E+04</pdfrwt>
<totfact> 0.16791844E+01</totfact>
</mgrwt>
</event>
<event>
 6    1  0.1072514E-005  0.1918188E+04  0.7818608E-02  0.8645856E-01
          2   -1    0    0  501    0  0.00000000000E+00  0.00000000000E+00  0.36439544419E+03  0.36439544419E+03  0.00000000000E+00 0. -1.
         -2   -1    0    0    0  501 -0.00000000000E+00 -0.00000000000E+00 -0.25243490796E+04  0.25243490796E+04  0.00000000000E+00 0.  1.
         23    2    1    2    0    0  0.40911563355E+03 -0.29282292299E+03 -0.23083041844E+04  0.23642173546E+04  0.90192164321E+02 0.  0.
         11    1    3    3    0    0  0.17743527220E+03 -0.17885824540E+03 -0.12139169256E+04  0.12397854048E+04  0.00000000000E+00 0. -1.
        -11    1    3    3    0    0  0.23168036135E+03 -0.11396467759E+03 -0.10943872588E+04  0.11244319498E+04  0.00000000000E+00 0.  1.
         22    1    1    2    0    0 -0.40911563355E+03  0.29282292299E+03  0.14835054893E+03  0.52452716919E+03  0.00000000000E+00 0. -1.
<mgrwt>
<rscale>  0 0.19181880E+04</rscale>
<asrwt>0</asrwt>
<pdfrwt beam="1">  1        2 0.56060838E-01 0.19181880E+04</pdfrwt>
<pdfrwt beam="2">  1       -2 0.38836139E+00 0.19181880E+04</pdfrwt>
<totfact> 0.73269736E-01</totfact>
</mgrwt>
</event>
<event>
 6    1  0.1072514E-005  0.2052551E+04  0.7818608E-02  0.8582438E-01
         -2   -1    0    0    0  501 -0.00000000000E+00  0.00000000000E+00  0.57413933783E+03  0.57413933783E+03  0.00000000000E+00 0.  1.
          2   -1    0    0  501    0  0.00000000000E+00 -0.00000000000E+00 -0.18344708763E+04  0.18344708763E+04  0.00000000000E+00 0. -1.
         23    2    1    2    0    0  0.97835857149E+03 -0.35526645301E+01 -0.98658168655E+03  0.13926687309E+04  0.94787415292E+02 0.  0.
         11    1    3    3    0    0  0.22496892502E+03 -0.19323008937E+02 -0.27959452578E+03  0.35938488386E+03  0.00000000000E+00 0.  1.
        -11    1    3    3    0    0  0.75338964646E+03  0.15770344407E+02 -0.70698716078E+03  0.10332838471E+04  0.00000000000E+00 0. -1.
         22    1    1    2    0    0 -0.97835857149E+03  0.35526645301E+01 -0.27374985191E+03  0.10159414832E+04  0.00000000000E+00 0.  1.
<mgrwt>
<rscale>  0 0.20525515E+04</rscale>
<asrwt>0</asrwt>
<pdfrwt beam="1">  1        2 0.28222629E+00 0.20525515E+04</pdfrwt>
<pdfrwt beam="2">  1       -2 0.88329128E-01 0.20525515E+04</pdfrwt>
<totfact> 0.84283044E+00</totfact>
</mgrwt>
</event>
<event>
 6    1  0.1072514E-005  0.4722902E+04  0.7818608E-02  0.7872734E-01
          2   -1    0    0  501    0  0.00000000000E+00  0.00000000000E+00  0.37375683462E+04  0.37375683462E+04  0.00000000000E+00 0. -1.
         -2   -1    0    0    0  501 -0.00000000000E+00 -0.00000000000E+00 -0.14919998408E+04  0.14919998408E+04  0.00000000000E+00 0.  1.
         23    2    1    2    0    0 -0.18408383807E+04  0.14673455803E+04  0.92873947304E+03  0.25321939644E+04  0.87522961151E+02 0.  0.
         13    1    3    3    0    0 -0.11426189875E+04  0.90505354656E+03  0.52948012285E+03  0.15508221281E+04  0.00000000000E+00 0.  1.
        -13    1    3    3    0    0 -0.69821939327E+03  0.56229203371E+03  0.39925935020E+03  0.98137183628E+03  0.00000000000E+00 0. -1.
         22    1    1    2    0    0  0.18408383807E+04 -0.14673455803E+04  0.13168290324E+04  0.26973742226E+04  0.00000000000E+00 0. -1.
<mgrwt>
<rscale>  0 0.47229022E+04</rscale>
<asrwt>0</asrwt>
<pdfrwt beam="1">  1        2 0.57501051E+00 0.47229022E+04</pdfrwt>
<pdfrwt beam="2">  1       -2 0.22953844E+00 0.47229022E+04</pdfrwt>
<totfact> 0.34955862E-02</totfact>
</mgrwt>
</event>
<event>
 6    1  0.1072514E-005  0.1898524E+04  0.7818608E-02  0.8655591E-01
          1   -1    0    0  501    0  0.00000000000E+00  0.00000000000E+00  0.25110218603E+04  0.25110218603E+04  0.00000000000E+00 0. -1.
         -1   -1    0    0    0  501 -0.00000000000E+00 -0.00000000000E+00 -0.35885730923E+03  0.35885730923E+03  0.00000000000E+00 0.  1.
         23    2    1    2    0    0 -0.79161569878E+03  0.45088973880E+03  0.68723723481E+03  0.11447794585E+04  0.90928656495E+02 0.  0.
         13    1    3    3    0    0 -0.32915363842E+03  0.23498573644E+03  0.32677452222E+03  0.51994423008E+03  0.00000000000E+00 0.  1.
        -13    1    3    3    0    0 -0.46246206036E+03  0.21590400236E+03  0.36046271259E+03  0.62483522842E+03  0.00000000000E+00 0. -1.
         22    1    1    2    0    0  0.79161569878E+03 -0.45088973880E+03  0.14649273162E+04  0.17250997110E+04  0.00000000000E+00 0. -1.
<mgrwt>
<rscale>  0 0.18985242E+04</rscale>
<asrwt>0</asrwt>
<pdfrwt beam="1">  1        1 0.38631104E+00 0.18985242E+04</pdfrwt>
<pdfrwt beam="2">  1       -1 0.55208818E-01 0.18985242E+04</pdfrwt>
<totfact> 0.41341021E+00</totfact>
</mgrwt>
</event>
<event>
 6    1  0.1072514E-005  0.1893559E+04  0.7818608E-02  0.8658069E-01
          1   -1    0    0  501    0  0.00000000000E+00  0.00000000000E+00  0.51517010603E+03  0.51517010603E+03  0.00000000000E+00 0. -1.
         -1   -1    0    0    0  501 -0.00000000000E+00 -0.00000000000E+00 -0.17399907822E+04  0.17399907822E+04  0.00000000000E+00 0.  1.
         23    2    1    2    0    0  0.48778398879E+03 -0.62383400866E+03 -0.36510605914E+00  0.79694501489E+03  0.89549614113E+02 0.  0.
         11    1    3    3    0    0  0.39092570598E+03 -0.50264122095E+03  0.35342673637E+02  0.63774619495E+03  0.00000000000E+00 0. -1.
        -11    1    3    3    0    0  0.96858282806E+02 -0.12119278771E+03 -0.35707779696E+02  0.15919881994E+03  0.00000000000E+00 0.  1.
         22    1    1    2    0    0 -0.48778398879E+03  0.62383400866E+03 -0.12244555701E+04  0.14582158733E+04  0.00000000000E+00 0.  1.
<mgrwt>
<rscale>  0 0.18935588E+04</rscale>
<asrwt>0</asrwt>
<pdfrwt beam="1">  1        1 0.79256939E-01 0.18935588E+04</pdfrwt>
<pdfrwt beam="2">  1       -1 0.26769089E+00 0.18935588E+04</pdfrwt>
<totfact> 0.21294938E+00</totfact>
</mgrwt>
</event>
<event>
 6    1  0.1072514E-005  0.3871876E+04  0.7818608E-02  0.8030904E-01
          2   -1    0    0  501    0  0.00000000000E+00  0.00000000000E+00  0.19686571881E+04  0.19686571881E+04  0.00000000000E+00 0.  1.
         -2   -1    0    0    0  501 -0.00000000000E+00 -0.00000000000E+00 -0.19037623061E+04  0.19037623061E+04  0.00000000000E+00 0. -1.
         23    2    1    2    0    0  0.11873216396E+03 -0.14518719473E+04  0.13060771334E+04  0.19586371506E+04  0.91610760182E+02 0.  0.
         11    1    3    3    0    0  0.72079765206E+02 -0.53855784263E+03  0.44105839664E+03  0.69983751804E+03  0.00000000000E+00 0. -1.
        -11    1    3    3    0    0  0.46652398756E+02 -0.91331410462E+03  0.86501873672E+03  0.12587996325E+04  0.00000000000E+00 0.  1.
         22    1    1    2    0    0 -0.11873216396E+03  0.14518719473E+04 -0.12411822514E+04  0.19137823437E+04  0.00000000000E+00 0. -1.
<mgrwt>
<rscale>  0 0.38718757E+04</rscale>
<asrwt>0</asrwt>
<pdfrwt beam="1">  1        2 0.30287034E+00 0.38718757E+04</pdfrwt>
<pdfrwt beam="2">  1       -2 0.29288651E+00 0.38718757E+04</pdfrwt>
<totfact> 0.19477858E-01</totfact>
</mgrwt>
</event>
<event>
 6    1  0.1072514E-005  0.3567514E+04  0.7818608E-02  0.8097974E-01
         -2   -1    0    0    0  501 -0.00000000000E+00  0.00000000000E+00  0.16683888761E+04  0.16683888761E+04  0.00000000000E+00 0.  1.
          2   -1    0    0  501    0  0.00000000000E+00 -0.00000000000E+00 -0.19071029005E+04  0.19071029005E+04  0.00000000000E+00 0. -1.
         23    2    1    2    0    0  0.24986687436E+02  0.59740925850E+03 -0.18025537444E+04  0.19012406525E+04  0.89408393122E+02 0.  0.
         13    1    3    3    0    0  0.30963630876E+02  0.75154195404E+02 -0.28245892916E+03  0.29392166675E+03  0.00000000000E+00 0.  1.
        -13    1    3    3    0    0 -0.59769434399E+01  0.52225506309E+03 -0.15200948152E+04  0.16073189858E+04  0.00000000000E+00 0. -1.
         22    1    1    2    0    0 -0.24986687436E+02 -0.59740925850E+03  0.15638397200E+04  0.16742511241E+04  0.00000000000E+00 0.  1.
<mgrwt>
<rscale>  0 0.35675141E+04</rscale>
<asrwt>0</asrwt>
<pdfrwt beam="1">  1        2 0.29340044E+00 0.35675141E+04</pdfrwt>
<pdfrwt beam="2">  1       -2 0.25667521E+00 0.35675141E+04</pdfrwt>
<totfact> 0.35957745E-01</totfact>
</mgrwt>
</event>
<event>
 6    1  0.1072514E-005  0.1548187E+04  0.7818608E-02  0.8853027E-01
         -2   -1    0    0    0  501 -0.00000000000E+00  0.00000000000E+00  0.77341075810E+03  0.77341075810E+03  0.00000000000E+00 0.  1.
          2   -1    0    0  501    0  0.00000000000E+00 -0.00000000000E+00 -0.77477674448E+03  0.77477674448E+03  0.00000000000E+00 0. -1.
         23    2    1    2    0    0 -0.14425698437E+03 -0.44296020807E+03 -0.61546246653E+03  0.77738382434E+03  0.92237406529E+02 0.  0.
         11    1    3    3    0    0 -0.73216767547E+02 -0.10994601368E+03 -0.20767128310E+03  0.24612229237E+03  0.00000000000E+00 0. -1.
        -11    1    3    3    0    0 -0.71040216819E+02 -0.33301419439E+03 -0.40779118342E+03  0.53126153197E+03  0.00000000000E+00 0.  1.
         22    1    1    2    0    0  0.14425698437E+03  0.44296020807E+03  0.61409648014E+03  0.77080367825E+03  0.00000000000E+00 0.  1.
<mgrwt>
<rscale>  0 0.15481869E+04</rscale>
<asrwt>0</asrwt>
<pdfrwt beam="1">  1        2 0.11919642E+00 0.15481869E+04</pdfrwt>
<pdfrwt beam="2">  1       -2 0.11898627E+00 0.15481869E+04</pdfrwt>
<totfact> 0.18762538E+01</totfact>
</mgrwt>
</event>
<event>
 6    1  0.1072514E-005  0.2418309E+04  0.7818608E-02  0.8432681E-01
          1   -1    0    0  501    0  0.00000000000E+00  0.00000000000E+00  0.24320512706E+04  0.24320512706E+04  0.00000000000E+00 0. -1.
         -1   -1    0    0    0  501 -0.00000000000E+00 -0.00000000000E+00 -0.60116089003E+03  0.60116089003E+03  0.00000000000E+00 0.  1.
         23    2    1    2    0    0  0.95875273944E+03 -0.37475922095E+03  0.17082793521E+04  0.19965421295E+04  0.91163813751E+02 0.  0.
         11    1    3    3    0    0  0.65480682238E+03 -0.22139483241E+03  0.11982588794E+04  0.13833336505E+04  0.00000000000E+00 0.  1.
        -11    1    3    3    0    0  0.30394591706E+03 -0.15336438854E+03  0.51002047268E+03  0.61320847900E+03  0.00000000000E+00 0. -1.
         22    1    1    2    0    0 -0.95875273944E+03  0.37475922095E+03  0.12261102842E+03  0.10366700311E+04  0.00000000000E+00 0.  1.
<mgrwt>
<rscale>  0 0.24183086E+04</rscale>
<asrwt>0</asrwt>
<pdfrwt beam="1">  1        1 0.37416173E+00 0.24183086E+04</pdfrwt>
<pdfrwt beam="2">  1       -1 0.92486292E-01 0.24183086E+04</pdfrwt>
<totfact> 0.15355325E+00</totfact>
</mgrwt>
</event>
<event>
 6    1  0.1072514E-005  0.1547587E+04  0.7818608E-02  0.8853411E-01
         -1   -1    0    0    0  501 -0.00000000000E+00  0.00000000000E+00  0.44300973480E+03  0.44300973480E+03  0.00000000000E+00 0.  1.
          1   -1    0    0  501    0  0.00000000000E+00 -0.00000000000E+00 -0.13515642942E+04  0.13515642942E+04  0.00000000000E+00 0. -1.
         23    2    1    2    0    0  0.28394558527E+03 -0.12231400158E+03  0.36335455108E+03  0.48562842444E+03  0.90678699008E+02 0.  0.
         11    1    3    3    0    0  0.10732730448E+03 -0.95277482230E+02  0.16249338682E+03  0.21679725475E+03  0.00000000000E+00 0.  1.
        -11    1    3    3    0    0  0.17661828078E+03 -0.27036519352E+02  0.20086116426E+03  0.26883116969E+03  0.00000000000E+00 0. -1.
         22    1    1    2    0    0 -0.28394558527E+03  0.12231400158E+03 -0.12719091105E+04  0.13089456046E+04  0.00000000000E+00 0. -1.
<mgrwt>
<rscale>  0 0.15475867E+04</rscale>
<asrwt>0</asrwt>
<pdfrwt beam="1">  1        1 0.20793296E+00 0.15475867E+04</pdfrwt>
<pdfrwt beam="2">  1       -1 0.68155346E-01 0.15475867E+04</pdfrwt>
<totfact> 0.17456166E+01</totfact>
</mgrwt>
</event>
<event>
 6    1  0.1072514E-005  0.2553999E+04  0.7818608E-02  0.8383997E-01
          2   -1    0    0  501    0  0.00000000000E+00  0.00000000000E+00  0.12034925510E+04  0.12034925510E+04  0.00000000000E+00 0. -1.
         -2   -1    0    0    0  501 -0.00000000000E+00 -0.00000000000E+00 -0.13549961152E+04  0.13549961152E+04  0.00000000000E+00 0.  1.
         23    2    1    2    0    0 -0.22665665834E+03  0.83822884483E+03  0.85997283841E+03  0.12254150186E+04  0.89932463016E+02 0.  0.
         11    1    3    3    0    0 -0.10149344752E+03  0.45429792409E+03  0.40431653900E+03  0.61657066702E+03  0.00000000000E+00 0. -1.
        -11    1    3    3    0    0 -0.12516321082E+03  0.38393092074E+03  0.45565629941E+03  0.60884435156E+03  0.00000000000E+00 0.  1.
         22    1    1    2    0    0  0.22665665834E+03 -0.83822884483E+03 -0.10114764026E+04  0.13330736476E+04  0.00000000000E+00 0.  1.
<mgrwt>
<rscale>  0 0.25539990E+04</rscale>
<asrwt>0</asrwt>
<pdfrwt beam="1">  1        2 0.18515270E+00 0.25539990E+04</pdfrwt>
<pdfrwt beam="2">  1       -2 0.20846094E+00 0.25539990E+04</pdfrwt>
<totfact> 0.19607911E+00</totfact>
</mgrwt>
</event>
<event>
 6    1  0.1072514E-005  0.2012362E+04  0.7818608E-02  0.8600863E-01
          2   -1    0    0  501    0  0.00000000000E+00  0.00000000000E+00  0.10586549375E+04  0.10586549375E+04  0.00000000000E+00 0. -1.
         -2   -1    0    0    0  501 -0.00000000000E+00 -0.00000000000E+00 -0.95630762730E+03  0.95630762730E+03  0.00000000000E+00 0.  1.
         23    2    1    2    0    0 -0.52701666010E+03  0.11065952659E+02 -0.80465858784E+03  0.96590169220E+03  0.87301893901E+02 0.  0.
         11    1    3    3    0    0 -0.24727045262E+03 -0.32257185803E+02 -0.41728471717E+03  0.48611700028E+03  0.00000000000E+00 0.  1.
        -11    1    3    3    0    0 -0.27974620748E+03  0.43323138462E+02 -0.38737387067E+03  0.47978469192E+03  0.00000000000E+00 0. -1.
         22    1    1    2    0    0  0.52701666010E+03 -0.11065952659E+02  0.90700589808E+03  0.10490608726E+04  0.00000000000E+00 0. -1.
<mgrwt>
<rscale>  0 0.20123616E+04</rscale>
<asrwt>0</asrwt>
<pdfrwt beam="1">  1        2 0.16286999E+00 0.20123616E+04</pdfrwt>
<pdfrwt beam="2">  1       -2 0.14712425E+00 0.20123616E+04</pdfrwt>
<totfact> 0.67661439E+00</totfact>
</mgrwt>
</event>
<event>
 6    1  0.1072514E-005  0.2650652E+04  0.7818608E-02  0.8351197E-01
         -1   -1    0    0    0  501 -0.00000000000E+00  0.00000000000E+00  0.13279413881E+04  0.13279413881E+04  0.00000000000E+00 0.  1.
          1   -1    0    0  501    0  0.00000000000E+00 -0.00000000000E+00 -0.13227157342E+04  0.13227157342E+04  0.00000000000E+00 0. -1.
         23    2    1    2    0    0 -0.12642337759E+04 -0.30509577294E+03 -0.24377825129E+03  0.13265070494E+04  0.93928939011E+02 0.  0.
         13    1    3    3    0    0 -0.71822668129E+03 -0.12792903935E+03 -0.15173036098E+03  0.74514260868E+03  0.00000000000E+00 0. -1.
        -13    1    3    3    0    0 -0.54600709463E+03 -0.17716673359E+03 -0.92047890313E+02  0.58136444077E+03  0.00000000000E+00 0.  1.
         22    1    1    2    0    0  0.12642337759E+04  0.30509577294E+03  0.24900390519E+03  0.13241500729E+04  0.00000000000E+00 0.  1.
<mgrwt>
<rscale>  0 0.26506520E+04</rscale>
<asrwt>0</asrwt>
<pdfrwt beam="1">  1        1 0.20349473E+00 0.26506520E+04</pdfrwt>
<pdfrwt beam="2">  1       -1 0.20429868E+00 0.26506520E+04</pdfrwt>
<totfact> 0.10743754E+00</totfact>
</mgrwt>
</event>
<event>
 6    1  0.1072514E-005  0.1233644E+04  0.7818608E-02  0.9083908E-01
          2   -1    0    0  501    0  0.00000000000E+00  0.00000000000E+00  0.15094977808E+04  0.15094977808E+04  0.00000000000E+00 0. -1.
         -2   -1    0    0    0  501 -0.00000000000E+00 -0.00000000000E+00 -0.25205013279E+03  0.25205013279E+03  0.00000000000E+00 0.  1.
         23    2    1    2    0    0 -0.25580681749E+03 -0.54260009254E+03  0.81765813792E+03  0.10177288486E+04  0.85762406737E+02 0.  0.
         13    1    3    3    0    0 -0.22426191933E+02 -0.15068548756E+02  0.56994875171E+02  0.63074646587E+02  0.00000000000E+00 0. -1.
        -13    1    3    3    0    0 -0.23338062556E+03 -0.52753154378E+03  0.76066326275E+03  0.95465420198E+03  0.00000000000E+00 0.  1.
         22    1    1    2    0    0  0.25580681749E+03  0.54260009254E+03  0.43978951009E+03  0.74381906502E+03  0.00000000000E+00 0.  1.
<mgrwt>
<rscale>  0 0.12336436E+04</rscale>
<asrwt>0</asrwt>
<pdfrwt beam="1">  1        2 0.23223042E+00 0.12336436E+04</pdfrwt>
<pdfrwt beam="2">  1       -2 0.38776944E-01 0.12336436E+04</pdfrwt>
<totfact> 0.77540200E+01</totfact>
</mgrwt>
</event>
<event>
 6    1  0.1072514E-005  0.2411659E+04  0.7818608E-02  0.8435152E-01
          1   -1    0    0  501    0  0.00000000000E+00  0.00000000000E+00  0.29648334427E+04  0.29648334427E+04  0.00000000000E+00 0. -1.
         -1   -1    0    0    0  501 -0.00000000000E+00 -0.00000000000E+00 -0.49042372190E+03  0.49042372190E+03  0.00000000000E+00 0.  1.
         23    2    1    2    0    0  0.10864368148E+04 -0.44977005663E+03  0.86770793209E+03  0.14642451872E+04  0.91972040324E+02 0.  0.
         11    1    3    3    0    0  0.14132879448E+03 -0.49816048802E+02  0.75516726255E+02  0.16780417996E+03  0.00000000000E+00 0.  1.
        -11    1    3    3    0    0  0.94510802037E+03 -0.39995400782E+03  0.79219120584E+03  0.12964410072E+04  0.00000000000E+00 0. -1.
         22    1    1    2    0    0 -0.10864368148E+04  0.44977005663E+03  0.16067017887E+04  0.19910119774E+04  0.00000000000E+00 0. -1.
<mgrwt>
<rscale>  0 0.24116589E+04</rscale>
<asrwt>0</asrwt>
<pdfrwt beam="1">  1        1 0.45612821E+00 0.24116589E+04</pdfrwt>
<pdfrwt beam="2">  1       -1 0.75449805E-01 0.24116589E+04</pdfrwt>
<totfact> 0.10024023E+00</totfact>
</mgrwt>
</event>
<event>
 6    1  0.1072514E-005  0.2072360E+04  0.7818608E-02  0.8573518E-01
          1   -1    0    0  501    0  0.00000000000E+00  0.00000000000E+00  0.18971287617E+04  0.18971287617E+04  0.00000000000E+00 0. -1.
         -1   -1    0    0    0  501 -0.00000000000E+00 -0.00000000000E+00 -0.56594415071E+03  0.56594415071E+03  0.00000000000E+00 0.  1.
         23    2    1    2    0    0 -0.21252443110E+03 -0.70827792217E+03  0.15255048935E+04  0.16984915752E+04  0.10432737950E+03 0.  0.
         13    1    3    3    0    0 -0.19667676724E+03 -0.49549581537E+03  0.10665225933E+04  0.11923373247E+04  0.00000000000E+00 0. -1.
        -13    1    3    3    0    0 -0.15847663863E+02 -0.21278210679E+03  0.45898230026E+03  0.50615425057E+03  0.00000000000E+00 0.  1.
         22    1    1    2    0    0  0.21252443110E+03  0.70827792217E+03 -0.19432028259E+03  0.76458133712E+03  0.00000000000E+00 0.  1.
<mgrwt>
<rscale>  0 0.20723599E+04</rscale>
<asrwt>0</asrwt>
<pdfrwt beam="1">  1        1 0.29186596E+00 0.20723599E+04</pdfrwt>
<pdfrwt beam="2">  1       -1 0.87068332E-01 0.20723599E+04</pdfrwt>
<totfact> 0.41911417E+00</totfact>
</mgrwt>
</event>
<event>
 6    1  0.1072514E-005  0.2173750E+04  0.7818608E-02  0.8529434E-01
          2   -1    0    0  501    0  0.00000000000E+00  0.00000000000E+00  0.12442828731E+04  0.12442828731E+04  0.00000000000E+00 0. -1.
         -2   -1    0    0    0  501 -0.00000000000E+00 -0.00000000000E+00 -0.94937984614E+03  0.94937984614E+03  0.00000000000E+00 0.  1.
         23    2    1    2    0    0  0.59618180626E+03  0.83687381941E+02 -0.76322626800E+03  0.97625813207E+03  0.90162521303E+02 0.  0.
         13    1    3    3    0    0  0.20119436591E+03  0.66637907281E+02 -0.29893417951E+03  0.36644430305E+03  0.00000000000E+00 0.  1.
        -13    1    3    3    0    0  0.39498744035E+03  0.17049474660E+02 -0.46429208849E+03  0.60981382902E+03  0.00000000000E+00 0. -1.
         22    1    1    2    0    0 -0.59618180626E+03 -0.83687381941E+02  0.10581292949E+04  0.12174045871E+04  0.00000000000E+00 0. -1.
<mgrwt>
<rscale>  0 0.21737498E+04</rscale>
<asrwt>0</asrwt>
<pdfrwt beam="1">  1        2 0.19142813E+00 0.21737498E+04</pdfrwt>
<pdfrwt beam="2">  1       -2 0.14605844E+00 0.21737498E+04</pdfrwt>
<totfact> 0.52497817E+00</totfact>
</mgrwt>
</event>
<event>
 6    1  0.1072514E-005  0.2947132E+04  0.7818608E-02  0.8258991E-01
          2   -1    0    0  501    0  0.00000000000E+00  0.00000000000E+00  0.99865366296E+03  0.99865366296E+03  0.00000000000E+00 0. -1.
         -2   -1    0    0    0  501 -0.00000000000E+00 -0.00000000000E+00 -0.21743244195E+04  0.21743244195E+04  0.00000000000E+00 0.  1.
         23    2    1    2    0    0 -0.73065860012E+02  0.11417768937E+04 -0.15858084012E+04  0.19575744530E+04  0.91194071914E+02 0.  0.
         11    1    3    3    0    0 -0.22110621898E+01  0.59119886083E+03 -0.86644273750E+03  0.10489251638E+04  0.00000000000E+00 0. -1.
        -11    1    3    3    0    0 -0.70854797823E+02  0.55057803288E+03 -0.71936566374E+03  0.90864928924E+03  0.00000000000E+00 0.  1.
         22    1    1    2    0    0  0.73065860012E+02 -0.11417768937E+04  0.41013764467E+03  0.12154036295E+04  0.00000000000E+00 0. -1.
<mgrwt>
<rscale>  0 0.29471322E+04</rscale>
<asrwt>0</asrwt>
<pdfrwt beam="1">  1        2 0.15363902E+00 0.29471322E+04</pdfrwt>
<pdfrwt beam="2">  1       -2 0.33451145E+00 0.29471322E+04</pdfrwt>
<totfact> 0.42215918E-01</totfact>
</mgrwt>
</event>
<event>
 6    1  0.1072514E-005  0.9939876E+03  0.7818608E-02  0.9315164E-01
          2   -1    0    0  501    0  0.00000000000E+00  0.00000000000E+00  0.21735365473E+04  0.21735365473E+04  0.00000000000E+00 0. -1.
         -2   -1    0    0    0  501 -0.00000000000E+00 -0.00000000000E+00 -0.11364098822E+03  0.11364098822E+03  0.00000000000E+00 0.  1.
         23    2    1    2    0    0 -0.40545627183E+03 -0.15433545240E+03  0.49839615253E+03  0.66653117776E+03  0.87469227962E+02 0.  0.
         11    1    3    3    0    0 -0.23005127100E+02 -0.30421412483E+02  0.25681454354E+02  0.45980814566E+02  0.00000000000E+00 0. -1.
        -11    1    3    3    0    0 -0.38245114472E+03 -0.12391403992E+03  0.47271469818E+03  0.62055036320E+03  0.00000000000E+00 0.  1.
         22    1    1    2    0    0  0.40545627183E+03  0.15433545240E+03  0.15614994065E+04  0.16206463577E+04  0.00000000000E+00 0. -1.
<mgrwt>
<rscale>  0 0.99398761E+03</rscale>
<asrwt>0</asrwt>
<pdfrwt beam="1">  1        2 0.33439021E+00 0.99398761E+03</pdfrwt>
<pdfrwt beam="2">  1       -2 0.17483231E-01 0.99398761E+03</pdfrwt>
<totfact> 0.14513815E+02</totfact>
</mgrwt>
</event>
<event>
 6    1  0.1072514E-005  0.1041541E+04  0.7818608E-02  0.9264121E-01
         -3   -1    0    0    0  501 -0.00000000000E+00  0.00000000000E+00  0.47816052614E+03  0.47816052614E+03  0.00000000000E+00 0.  1.
          3   -1    0    0  501    0  0.00000000000E+00 -0.00000000000E+00 -0.56717807836E+03  0.56717807836E+03  0.00000000000E+00 0. -1.
         23    2    1    2    0    0 -0.44442402701E+03  0.21799242520E+03  0.10428500145E+03  0.51392606185E+03  0.90615794960E+02 0.  0.
         13    1    3    3    0    0 -0.22824001668E+03  0.62669016289E+02  0.58648759683E+02  0.24384541789E+03  0.00000000000E+00 0. -1.
        -13    1    3    3    0    0 -0.21618401034E+03  0.15532340891E+03  0.45636241765E+02  0.27008064396E+03  0.00000000000E+00 0.  1.
         22    1    1    2    0    0  0.44442402701E+03 -0.21799242520E+03 -0.19330255366E+03  0.53141254265E+03  0.00000000000E+00 0.  1.
<mgrwt>
<rscale>  0 0.10415415E+04</rscale>
<asrwt>0</asrwt>
<pdfrwt beam="1">  1        3 0.87258166E-01 0.10415415E+04</pdfrwt>
<pdfrwt beam="2">  1       -3 0.73563158E-01 0.10415415E+04</pdfrwt>
<totfact> 0.54726896E+00</totfact>
</mgrwt>
</event>
<event>
 6    1  0.1072514E-005  0.2513906E+04  0.7818608E-02  0.8398048E-01
          2   -1    0    0  501    0  0.00000000000E+00  0.00000000000E+00  0.76138582022E+03  0.76138582022E+03  0.00000000000E+00 0. -1.
         -2   -1    0    0    0  501 -0.00000000000E+00 -0.00000000000E+00 -0.20750733960E+04  0.20750733960E+04  0.00000000000E+00 0.  1.
         23    2    1    2    0    0 -0.64838526235E+03  0.53712361802E+03 -0.17082445142E+04  0.19066310562E+04  0.90760316138E+02 0.  0.
         11    1    3    3    0    0 -0.41488304333E+03  0.38565451489E+03 -0.10813230480E+04  0.12207034360E+04  0.00000000000E+00 0. -1.
        -11    1    3    3    0    0 -0.23350221902E+03  0.15146910313E+03 -0.62692146613E+03  0.68592762022E+03  0.00000000000E+00 0.  1.
         22    1    1    2    0    0  0.64838526235E+03 -0.53712361802E+03  0.39455693838E+03  0.92982815998E+03  0.00000000000E+00 0. -1.
<mgrwt>
<rscale>  0 0.25139065E+04</rscale>
<asrwt>0</asrwt>
<pdfrwt beam="1">  1        2 0.11713628E+00 0.25139065E+04</pdfrwt>
<pdfrwt beam="2">  1       -2 0.31924206E+00 0.25139065E+04</pdfrwt>
<totfact> 0.79309747E-01</totfact>
</mgrwt>
</event>
<event>
 6    1  0.1072514E-005  0.3753655E+04  0.7818608E-02  0.8056174E-01
         -2   -1    0    0    0  501 -0.00000000000E+00  0.00000000000E+00  0.26403320784E+04  0.26403320784E+04  0.00000000000E+00 0.  1.
          2   -1    0    0  501    0  0.00000000000E+00 -0.00000000000E+00 -0.13341054859E+04  0.13341054859E+04  0.00000000000E+00 0. -1.
         23    2    1    2    0    0  0.29871822545E+02  0.77784686512E+03 -0.11534383542E+04  0.13945364575E+04  0.91508594687E+02 0.  0.
         11    1    3    3    0    0  0.12943374897E+02  0.47823658856E+03 -0.62836450643E+03  0.78975927885E+03  0.00000000000E+00 0.  1.
        -11    1    3    3    0    0  0.16928447648E+02  0.29961027656E+03 -0.52507384776E+03  0.60477717861E+03  0.00000000000E+00 0. -1.
         22    1    1    2    0    0 -0.29871822545E+02 -0.77784686512E+03  0.24596649467E+04  0.25799011069E+04  0.00000000000E+00 0.  1.
<mgrwt>
<rscale>  0 0.37536550E+04</rscale>
<asrwt>0</asrwt>
<pdfrwt beam="1">  1        2 0.20524700E+00 0.37536550E+04</pdfrwt>
<pdfrwt beam="2">  1       -2 0.40620493E+00 0.37536550E+04</pdfrwt>
<totfact> 0.85851339E-02</totfact>
</mgrwt>
</event>
<event>
 6    1  0.1072514E-005  0.3330731E+04  0.7818608E-02  0.8155120E-01
         -2   -1    0    0    0  501 -0.00000000000E+00  0.00000000000E+00  0.15848217078E+04  0.15848217078E+04  0.00000000000E+00 0.  1.
          2   -1    0    0  501    0  0.00000000000E+00 -0.00000000000E+00 -0.17500025234E+04  0.17500025234E+04  0.00000000000E+00 0. -1.
         23    2    1    2    0    0 -0.15132558143E+04  0.52589375987E+03 -0.53208292516E+03  0.16913144004E+04  0.10452155575E+03 0.  0.
         11    1    3    3    0    0 -0.45441259721E+03  0.11159112797E+03 -0.17462526034E+03  0.49943705298E+03  0.00000000000E+00 0. -1.
        -11    1    3    3    0    0 -0.10588432171E+04  0.41430263190E+03 -0.35745766482E+03  0.11918773474E+04  0.00000000000E+00 0.  1.
         22    1    1    2    0    0  0.15132558143E+04 -0.52589375987E+03  0.36690210951E+03  0.16435098308E+04  0.00000000000E+00 0.  1.
<mgrwt>
<rscale>  0 0.33307308E+04</rscale>
<asrwt>0</asrwt>
<pdfrwt beam="1">  1        2 0.26923116E+00 0.33307308E+04</pdfrwt>
<pdfrwt beam="2">  1       -2 0.24381872E+00 0.33307308E+04</pdfrwt>
<totfact> 0.53766227E-01</totfact>
</mgrwt>
</event>
<event>
 6    1  0.1072514E-005  0.1896928E+04  0.7818608E-02  0.8656387E-01
          2   -1    0    0  501    0  0.00000000000E+00  0.00000000000E+00  0.11378686965E+04  0.11378686965E+04  0.00000000000E+00 0.  1.
         -2   -1    0    0    0  501 -0.00000000000E+00 -0.00000000000E+00 -0.79058650111E+03  0.79058650111E+03  0.00000000000E+00 0. -1.
         23    2    1    2    0    0 -0.73403339859E+03  0.22794279038E+03 -0.38641326328E+03  0.86587721365E+03  0.98311714272E+02 0.  0.
         13    1    3    3    0    0 -0.14311194515E+03  0.73107573391E+02 -0.11392294034E+03  0.19698777238E+03  0.00000000000E+00 0. -1.
        -13    1    3    3    0    0 -0.59092145344E+03  0.15483521699E+03 -0.27249032293E+03  0.66888944127E+03  0.00000000000E+00 0.  1.
         22    1    1    2    0    0  0.73403339859E+03 -0.22794279038E+03  0.73369545870E+03  0.10625779840E+04  0.00000000000E+00 0.  1.
<mgrwt>
<rscale>  0 0.18969277E+04</rscale>
<asrwt>0</asrwt>
<pdfrwt beam="1">  1        2 0.17505672E+00 0.18969277E+04</pdfrwt>
<pdfrwt beam="2">  1       -2 0.12162869E+00 0.18969277E+04</pdfrwt>
<totfact> 0.99343736E+00</totfact>
</mgrwt>
</event>
<event>
 6    1  0.1444969E-005  0.3270397E+04  0.7818608E-02  0.8170469E-01
          1   -1    0    0  501    0  0.00000000000E+00  0.00000000000E+00  0.20455013521E+04  0.20455013521E+04  0.00000000000E+00 0. -1.
         -1   -1    0    0    0  501 -0.00000000000E+00 -0.00000000000E+00 -0.13071977584E+04  0.13071977584E+04  0.00000000000E+00 0.  1.
         23    2    1    2    0    0 -0.33024512375E+02  0.16278222948E+04  0.22854786530E+03  0.16466079802E+04  0.90485755373E+02 0.  0.
         13    1    3    3    0    0 -0.24962715713E+02  0.64382463290E+03  0.47464189042E+02  0.64605428901E+03  0.00000000000E+00 0. -1.
        -13    1    3    3    0    0 -0.80617966623E+01  0.98399766190E+03  0.18108367626E+03  0.10005536912E+04  0.00000000000E+00 0.  1.
         22    1    1    2    0    0  0.33024512375E+02 -0.16278222948E+04  0.50975572839E+03  0.17060911302E+04  0.00000000000E+00 0. -1.
<mgrwt>
<rscale>  0 0.32703974E+04</rscale>
<asrwt>0</asrwt>
<pdfrwt beam="1">  1        1 0.31469251E+00 0.32703974E+04</pdfrwt>
<pdfrwt beam="2">  1       -1 0.20110735E+00 0.32703974E+04</pdfrwt>
<totfact> 0.34135111E-01</totfact>
</mgrwt>
</event>
<event>
 6    1  0.1072514E-005  0.3568309E+04  0.7818608E-02  0.8097790E-01
          1   -1    0    0  501    0  0.00000000000E+00  0.00000000000E+00  0.18965509944E+04  0.18965509944E+04  0.00000000000E+00 0. -1.
         -1   -1    0    0    0  501 -0.00000000000E+00 -0.00000000000E+00 -0.16784188624E+04  0.16784188624E+04  0.00000000000E+00 0.  1.
         23    2    1    2    0    0  0.10303341570E+04  0.79271070151E+02  0.15647745919E+04  0.18775252208E+04  0.93322309093E+02 0.  0.
         13    1    3    3    0    0  0.19542634777E+03  0.44677079939E+02  0.26434378855E+03  0.33176066286E+03  0.00000000000E+00 0. -1.
        -13    1    3    3    0    0  0.83490780925E+03  0.34593990212E+02  0.13004308034E+04  0.15457645579E+04  0.00000000000E+00 0.  1.
         22    1    1    2    0    0 -0.10303341570E+04 -0.79271070151E+02 -0.13466424599E+04  0.16974446361E+04  0.00000000000E+00 0.  1.
<mgrwt>
<rscale>  0 0.35683088E+04</rscale>
<asrwt>0</asrwt>
<pdfrwt beam="1">  1        1 0.29177708E+00 0.35683088E+04</pdfrwt>
<pdfrwt beam="2">  1       -1 0.25821829E+00 0.35683088E+04</pdfrwt>
<totfact> 0.17511883E-01</totfact>
</mgrwt>
</event>
<event>
 6    1  0.1072514E-005  0.3476204E+04  0.7818608E-02  0.8119453E-01
          2   -1    0    0  501    0  0.00000000000E+00  0.00000000000E+00  0.14223800015E+04  0.14223800015E+04  0.00000000000E+00 0. -1.
         -2   -1    0    0    0  501 -0.00000000000E+00 -0.00000000000E+00 -0.21239041396E+04  0.21239041396E+04  0.00000000000E+00 0.  1.
         23    2    1    2    0    0 -0.81772514904E+03 -0.79012062399E+02  0.12092889990E+04  0.14663504472E+04  0.11351839297E+03 0.  0.
         13    1    3    3    0    0 -0.37363305667E+03 -0.75897776614E+02  0.48758122618E+03  0.61894877466E+03  0.00000000000E+00 0.  1.
        -13    1    3    3    0    0 -0.44409209237E+03 -0.31142857851E+01  0.72170777287E+03  0.84740167258E+03  0.00000000000E+00 0. -1.
         22    1    1    2    0    0  0.81772514904E+03  0.79012062399E+02 -0.19108131372E+04  0.20799336938E+04  0.00000000000E+00 0.  1.
<mgrwt>
<rscale>  0 0.34762041E+04</rscale>
<asrwt>0</asrwt>
<pdfrwt beam="1">  1        2 0.21882769E+00 0.34762041E+04</pdfrwt>
<pdfrwt beam="2">  1       -2 0.32675448E+00 0.34762041E+04</pdfrwt>
<totfact> 0.25147656E-01</totfact>
</mgrwt>
</event>
<event>
 6    1  0.1072514E-005  0.4260351E+04  0.7818608E-02  0.7953990E-01
         -2   -1    0    0    0  501 -0.00000000000E+00  0.00000000000E+00  0.14860973096E+04  0.14860973096E+04  0.00000000000E+00 0.  1.
          2   -1    0    0  501    0  0.00000000000E+00 -0.00000000000E+00 -0.30533987849E+04  0.30533987849E+04  0.00000000000E+00 0. -1.
         23    2    1    2    0    0 -0.15124641768E+04 -0.13393716176E+04 -0.67585586738E+02  0.20234253558E+04  0.90653972024E+02 0.  0.
         11    1    3    3    0    0 -0.49273044353E+03 -0.42768627916E+03  0.20071191708E+02  0.65276465598E+03  0.00000000000E+00 0.  1.
        -11    1    3    3    0    0 -0.10197337333E+04 -0.91168533848E+03 -0.87656778446E+02  0.13706606998E+04  0.00000000000E+00 0. -1.
         22    1    1    2    0    0  0.15124641768E+04  0.13393716176E+04 -0.14997158886E+04  0.25160707388E+04  0.00000000000E+00 0.  1.
<mgrwt>
<rscale>  0 0.42603510E+04</rscale>
<asrwt>0</asrwt>
<pdfrwt beam="1">  1        2 0.46975365E+00 0.42603510E+04</pdfrwt>
<pdfrwt beam="2">  1       -2 0.22863036E+00 0.42603510E+04</pdfrwt>
<totfact> 0.10847299E-01</totfact>
</mgrwt>
</event>
<event>
 6    1  0.1072514E-005  0.6170525E+03  0.7818608E-02  0.9870646E-01
         -2   -1    0    0    0  501 -0.00000000000E+00  0.00000000000E+00  0.44432719705E+03  0.44432719705E+03  0.00000000000E+00 0.  1.
          2   -1    0    0  501    0  0.00000000000E+00 -0.00000000000E+00 -0.21423049739E+03  0.21423049739E+03  0.00000000000E+00 0. -1.
         23    2    1    2    0    0 -0.78982588308E+02 -0.21551105978E+03 -0.97352017595E+02  0.25867530101E+03  0.68936419078E+02 0.  0.
         11    1    3    3    0    0  0.54804022917E+01 -0.75009600282E+02 -0.22839938356E+02  0.78601130576E+02  0.00000000000E+00 0.  1.
        -11    1    3    3    0    0 -0.84462990600E+02 -0.14050145950E+03 -0.74512079239E+02  0.18007417043E+03  0.00000000000E+00 0. -1.
         22    1    1    2    0    0  0.78982588308E+02  0.21551105978E+03  0.32744871725E+03  0.39988239343E+03  0.00000000000E+00 0.  1.
<mgrwt>
<rscale>  0 0.61705247E+03</rscale>
<asrwt>0</asrwt>
<pdfrwt beam="1">  1        2 0.32958538E-01 0.61705247E+03</pdfrwt>
<pdfrwt beam="2">  1       -2 0.68358030E-01 0.61705247E+03</pdfrwt>
<totfact> 0.31654441E+02</totfact>
</mgrwt>
</event>
<event>
 6    1  0.1072514E-005  0.4426131E+04  0.7818608E-02  0.7923698E-01
         -3   -1    0    0    0  501 -0.00000000000E+00  0.00000000000E+00  0.27701995948E+04  0.27701995948E+04  0.00000000000E+00 0.  1.
          3   -1    0    0  501    0  0.00000000000E+00 -0.00000000000E+00 -0.17679808317E+04  0.17679808317E+04  0.00000000000E+00 0. -1.
         23    2    1    2    0    0 -0.16591486047E+04 -0.12018982827E+04 -0.35413804661E+03  0.20811420936E+04  0.91679241019E+02 0.  0.
         11    1    3    3    0    0 -0.12872671251E+04 -0.91360189764E+03 -0.23672601996E+03  0.15961717600E+04  0.00000000000E+00 0.  1.
        -11    1    3    3    0    0 -0.37188147951E+03 -0.28829638511E+03 -0.11741202665E+03  0.48497033360E+03  0.00000000000E+00 0. -1.
         22    1    1    2    0    0  0.16591486047E+04  0.12018982827E+04  0.13563568096E+04  0.24570383329E+04  0.00000000000E+00 0.  1.
<mgrwt>
<rscale>  0 0.44261314E+04</rscale>
<asrwt>0</asrwt>
<pdfrwt beam="1">  1        3 0.27199705E+00 0.44261314E+04</pdfrwt>
<pdfrwt beam="2">  1       -3 0.42618455E+00 0.44261314E+04</pdfrwt>
<totfact> 0.82306319E-04</totfact>
</mgrwt>
</event>
<event>
 6    1  0.1072514E-005  0.5244336E+04  0.7818608E-02  0.7791883E-01
          2   -1    0    0  501    0  0.00000000000E+00  0.00000000000E+00  0.34162287543E+04  0.34162287543E+04  0.00000000000E+00 0. -1.
         -2   -1    0    0    0  501 -0.00000000000E+00 -0.00000000000E+00 -0.20126773702E+04  0.20126773702E+04  0.00000000000E+00 0.  1.
         23    2    1    2    0    0  0.75348475818E+03  0.20915077902E+04 -0.73624286428E+03  0.23433164658E+04  0.83272962856E+02 0.  0.
         11    1    3    3    0    0  0.49730326824E+03  0.12729199502E+04 -0.43360238950E+03  0.14337526887E+04  0.00000000000E+00 0. -1.
        -11    1    3    3    0    0  0.25618148994E+03  0.81858783995E+03 -0.30264047478E+03  0.90956377703E+03  0.00000000000E+00 0.  1.
         22    1    1    2    0    0 -0.75348475818E+03 -0.20915077902E+04  0.21397942483E+04  0.30855896588E+04  0.00000000000E+00 0. -1.
<mgrwt>
<rscale>  0 0.52443365E+04</rscale>
<asrwt>0</asrwt>
<pdfrwt beam="1">  1        2 0.52557365E+00 0.52443365E+04</pdfrwt>
<pdfrwt beam="2">  1       -2 0.30964267E+00 0.52443365E+04</pdfrwt>
<totfact> 0.18374139E-02</totfact>
</mgrwt>
</event>
<event>
 6    1  0.1072514E-005  0.2135019E+04  0.7818608E-02  0.8545972E-01
         -2   -1    0    0    0  501 -0.00000000000E+00  0.00000000000E+00  0.11019289691E+04  0.11019289691E+04  0.00000000000E+00 0.  1.
          2   -1    0    0  501    0  0.00000000000E+00 -0.00000000000E+00 -0.10341649134E+04  0.10341649134E+04  0.00000000000E+00 0. -1.
         23    2    1    2    0    0  0.24658772520E+03 -0.79542433216E+03 -0.62922785368E+03  0.10501366567E+04  0.11555921198E+03 0.  0.
         11    1    3    3    0    0  0.18275177944E+03 -0.67987358792E+03 -0.56821895966E+03  0.90470939784E+03  0.00000000000E+00 0. -1.
        -11    1    3    3    0    0  0.63835945764E+02 -0.11555074425E+03 -0.61008894028E+02  0.14542725886E+03  0.00000000000E+00 0.  1.
         22    1    1    2    0    0 -0.24658772520E+03  0.79542433216E+03  0.69699190945E+03  0.10859572258E+04  0.00000000000E+00 0.  1.
<mgrwt>
<rscale>  0 0.21350188E+04</rscale>
<asrwt>0</asrwt>
<pdfrwt beam="1">  1        2 0.15910229E+00 0.21350188E+04</pdfrwt>
<pdfrwt beam="2">  1       -2 0.16952753E+00 0.21350188E+04</pdfrwt>
<totfact> 0.47273054E+00</totfact>
</mgrwt>
</event>
<event>
 6    1  0.1072514E-005  0.2414274E+04  0.7818608E-02  0.8434179E-01
         -1   -1    0    0    0  501 -0.00000000000E+00  0.00000000000E+00  0.67918406997E+03  0.67918406997E+03  0.00000000000E+00 0.  1.
          1   -1    0    0  501    0  0.00000000000E+00 -0.00000000000E+00 -0.21454848606E+04  0.21454848606E+04  0.00000000000E+00 0. -1.
         23    2    1    2    0    0  0.76614327887E+03  0.55762583379E+03  0.13740423398E+03  0.96193118729E+03  0.92247445933E+02 0.  0.
         13    1    3    3    0    0  0.73170783674E+02  0.22579286364E+02  0.11073397488E+02  0.77371880474E+02  0.00000000000E+00 0. -1.
        -13    1    3    3    0    0  0.69297249520E+03  0.53504654743E+03  0.12633083649E+03  0.88455930681E+03  0.00000000000E+00 0.  1.
         22    1    1    2    0    0 -0.76614327887E+03 -0.55762583379E+03 -0.16037050246E+04  0.18627377433E+04  0.00000000000E+00 0. -1.
<mgrwt>
<rscale>  0 0.24142735E+04</rscale>
<asrwt>0</asrwt>
<pdfrwt beam="1">  1        1 0.33007459E+00 0.24142735E+04</pdfrwt>
<pdfrwt beam="2">  1       -1 0.10448986E+00 0.24142735E+04</pdfrwt>
<totfact> 0.18284986E+00</totfact>
</mgrwt>
</event>
<event>
 6    1  0.1072514E-005  0.1982231E+04  0.7818608E-02  0.8614974E-01
          1   -1    0    0  501    0  0.00000000000E+00  0.00000000000E+00  0.54971703538E+03  0.54971703538E+03  0.00000000000E+00 0. -1.
         -1   -1    0    0    0  501 -0.00000000000E+00 -0.00000000000E+00 -0.17869365568E+04  0.17869365568E+04  0.00000000000E+00 0.  1.
         23    2    1    2    0    0  0.46344422225E+03 -0.68190435759E+03 -0.12637608359E+04  0.15117423598E+04  0.92192255153E+02 0.  0.
         11    1    3    3    0    0  0.44031841337E+03 -0.61382586674E+03 -0.11191546967E+04  0.13502480272E+04  0.00000000000E+00 0.  1.
        -11    1    3    3    0    0  0.23125808882E+02 -0.68078490853E+02 -0.14460613923E+03  0.16149433258E+03  0.00000000000E+00 0. -1.
         22    1    1    2    0    0 -0.46344422225E+03  0.68190435759E+03  0.26541314445E+02  0.82491123244E+03  0.00000000000E+00 0. -1.
<mgrwt>
<rscale>  0 0.19822305E+04</rscale>
<asrwt>0</asrwt>
<pdfrwt beam="1">  1        1 0.84571853E-01 0.19822305E+04</pdfrwt>
<pdfrwt beam="2">  1       -1 0.27491331E+00 0.19822305E+04</pdfrwt>
<totfact> 0.17321924E+00</totfact>
</mgrwt>
</event>
<event>
 6    1  0.1072514E-005  0.3415193E+04  0.7818608E-02  0.8134187E-01
         -1   -1    0    0    0  501 -0.00000000000E+00  0.00000000000E+00  0.92060466947E+03  0.92060466947E+03  0.00000000000E+00 0.  1.
          1   -1    0    0  501    0  0.00000000000E+00 -0.00000000000E+00 -0.31673601875E+04  0.31673601875E+04  0.00000000000E+00 0. -1.
         23    2    1    2    0    0 -0.27298384145E+03 -0.97506242368E+03 -0.27682139212E+04  0.29490242202E+04  0.92025160557E+02 0.  0.
         11    1    3    3    0    0 -0.25756886948E+03 -0.91984886077E+03 -0.25388293274E+04  0.27125851144E+04  0.00000000000E+00 0. -1.
        -11    1    3    3    0    0 -0.15414971971E+02 -0.55213562907E+02 -0.22938459386E+03  0.23643910588E+03  0.00000000000E+00 0.  1.
         22    1    1    2    0    0  0.27298384145E+03  0.97506242368E+03  0.52145840318E+03  0.11389406367E+04  0.00000000000E+00 0.  1.
<mgrwt>
<rscale>  0 0.34151935E+04</rscale>
<asrwt>0</asrwt>
<pdfrwt beam="1">  1        1 0.48728618E+00 0.34151935E+04</pdfrwt>
<pdfrwt beam="2">  1       -1 0.14163149E+00 0.34151935E+04</pdfrwt>
<totfact> 0.15008134E-01</totfact>
</mgrwt>
</event>
<event>
 6    1  0.1072514E-005  0.2271746E+04  0.7818608E-02  0.8489145E-01
          1   -1    0    0  501    0  0.00000000000E+00  0.00000000000E+00  0.15235655528E+04  0.15235655528E+04  0.00000000000E+00 0. -1.
         -1   -1    0    0    0  501 -0.00000000000E+00 -0.00000000000E+00 -0.84683411904E+03  0.84683411904E+03  0.00000000000E+00 0.  1.
         23    2    1    2    0    0 -0.67578744934E+03  0.11280022656E+03 -0.60389176089E+03  0.91801944116E+03  0.93069155393E+02 0.  0.
         11    1    3    3    0    0 -0.27752018157E+03  0.39293667691E+02 -0.18790162525E+03  0.33744401650E+03  0.00000000000E+00 0.  1.
        -11    1    3    3    0    0 -0.39826726777E+03  0.73506558871E+02 -0.41599013564E+03  0.58057542466E+03  0.00000000000E+00 0. -1.
         22    1    1    2    0    0  0.67578744934E+03 -0.11280022656E+03  0.12806231947E+04  0.14523802307E+04  0.00000000000E+00 0. -1.
<mgrwt>
<rscale>  0 0.22717458E+04</rscale>
<asrwt>0</asrwt>
<pdfrwt beam="1">  1        1 0.23439470E+00 0.22717458E+04</pdfrwt>
<pdfrwt beam="2">  1       -1 0.13028217E+00 0.22717458E+04</pdfrwt>
<totfact> 0.28792355E+00</totfact>
</mgrwt>
</event>
<event>
 6    1  0.1072514E-005  0.2233878E+04  0.7818608E-02  0.8504458E-01
         -1   -1    0    0    0  501 -0.00000000000E+00  0.00000000000E+00  0.85016031076E+03  0.85016031076E+03  0.00000000000E+00 0.  1.
          1   -1    0    0  501    0  0.00000000000E+00 -0.00000000000E+00 -0.14674324739E+04  0.14674324739E+04  0.00000000000E+00 0. -1.
         23    2    1    2    0    0  0.50533186396E+03 -0.23135258660E+03 -0.13120857870E+04  0.14278454699E+04  0.91045381267E+02 0.  0.
         11    1    3    3    0    0  0.14388250262E+03 -0.22376312065E+02 -0.34823986907E+03  0.37745712381E+03  0.00000000000E+00 0. -1.
        -11    1    3    3    0    0  0.36144936134E+03 -0.20897627454E+03 -0.96384591795E+03  0.10503883461E+04  0.00000000000E+00 0.  1.
         22    1    1    2    0    0 -0.50533186396E+03  0.23135258660E+03  0.69481362390E+03  0.88974731471E+03  0.00000000000E+00 0.  1.
<mgrwt>
<rscale>  0 0.22338781E+04</rscale>
<asrwt>0</asrwt>
<pdfrwt beam="1">  1        1 0.22575884E+00 0.22338781E+04</pdfrwt>
<pdfrwt beam="2">  1       -1 0.13079389E+00 0.22338781E+04</pdfrwt>
<totfact> 0.31286887E+00</totfact>
</mgrwt>
</event>
<event>
 6    1  0.1072514E-005  0.8931904E+03  0.7818608E-02  0.9434134E-01
          1   -1    0    0  501    0  0.00000000000E+00  0.00000000000E+00  0.19040482435E+04  0.19040482435E+04  0.00000000000E+00 0. -1.
         -1   -1    0    0    0  501 -0.00000000000E+00 -0.00000000000E+00 -0.10474906191E+03  0.10474906191E+03  0.00000000000E+00 0.  1.
         23    2    1    2    0    0 -0.23346995563E+02  0.40956182031E+03  0.12762419839E+04  0.13440606667E+04  0.97054146214E+02 0.  0.
         11    1    3    3    0    0 -0.19122079299E+02  0.18304633069E+03  0.72686768698E+03  0.74980547308E+03  0.00000000000E+00 0.  1.
        -11    1    3    3    0    0 -0.42249162636E+01  0.22651548962E+03  0.54937429693E+03  0.59425519357E+03  0.00000000000E+00 0. -1.
         22    1    1    2    0    0  0.23346995563E+02 -0.40956182031E+03  0.52305719772E+03  0.66473663879E+03  0.00000000000E+00 0. -1.
<mgrwt>
<rscale>  0 0.89319039E+03</rscale>
<asrwt>0</asrwt>
<pdfrwt beam="1">  1        1 0.29293047E+00 0.89319039E+03</pdfrwt>
<pdfrwt beam="2">  1       -1 0.16115242E-01 0.89319039E+03</pdfrwt>
<totfact> 0.10281179E+02</totfact>
</mgrwt>
</event>
<event>
 6    1  0.1072514E-005  0.2163069E+04  0.7818608E-02  0.8533959E-01
          1   -1    0    0  501    0  0.00000000000E+00  0.00000000000E+00  0.10810328830E+04  0.10810328830E+04  0.00000000000E+00 0. -1.
         -1   -1    0    0    0  501 -0.00000000000E+00 -0.00000000000E+00 -0.10820359961E+04  0.10820359961E+04  0.00000000000E+00 0.  1.
         23    2    1    2    0    0  0.25787027732E+03 -0.10390205499E+04 -0.13973129278E+03  0.10835753447E+04  0.92465725621E+02 0.  0.
         13    1    3    3    0    0  0.15094688643E+03 -0.55840926735E+03 -0.30573110576E+02  0.57925865334E+03  0.00000000000E+00 0.  1.
        -13    1    3    3    0    0  0.10692339088E+03 -0.48061128252E+03 -0.10915818221E+03  0.50431669133E+03  0.00000000000E+00 0. -1.
         22    1    1    2    0    0 -0.25787027732E+03  0.10390205499E+04  0.13872817967E+03  0.10794935344E+04  0.00000000000E+00 0.  1.
<mgrwt>
<rscale>  0 0.21630686E+04</rscale>
<asrwt>0</asrwt>
<pdfrwt beam="1">  1        1 0.16631275E+00 0.21630686E+04</pdfrwt>
<pdfrwt beam="2">  1       -1 0.16646708E+00 0.21630686E+04</pdfrwt>
<totfact> 0.31324841E+00</totfact>
</mgrwt>
</event>
<event>
 6    1  0.1072514E-005  0.1280140E+04  0.7818608E-02  0.9045465E-01
          2   -1    0    0  501    0  0.00000000000E+00  0.00000000000E+00  0.30711097950E+03  0.30711097950E+03  0.00000000000E+00 0. -1.
         -2   -1    0    0    0  501 -0.00000000000E+00 -0.00000000000E+00 -0.13340108212E+04  0.13340108212E+04  0.00000000000E+00 0.  1.
         23    2    1    2    0    0 -0.37983075994E+03 -0.30026890744E+03  0.13506587305E+02  0.49356859476E+03  0.94840428413E+02 0.  0.
         11    1    3    3    0    0 -0.27233845473E+03 -0.25860341926E+03 -0.10951374777E+02  0.37571783959E+03  0.00000000000E+00 0. -1.
        -11    1    3    3    0    0 -0.10749230521E+03 -0.41665488180E+02  0.24457962082E+02  0.11785075517E+03  0.00000000000E+00 0.  1.
         22    1    1    2    0    0  0.37983075994E+03  0.30026890744E+03 -0.10404064290E+04  0.11475532060E+04  0.00000000000E+00 0.  1.
<mgrwt>
<rscale>  0 0.12801396E+04</rscale>
<asrwt>0</asrwt>
<pdfrwt beam="1">  1        2 0.47247843E-01 0.12801396E+04</pdfrwt>
<pdfrwt beam="2">  1       -2 0.20523244E+00 0.12801396E+04</pdfrwt>
<totfact> 0.12897108E+01</totfact>
</mgrwt>
</event>
<event>
 6    1  0.1072514E-005  0.3598906E+04  0.7818608E-02  0.8090742E-01
          2   -1    0    0  501    0  0.00000000000E+00  0.00000000000E+00  0.26829531953E+04  0.26829531953E+04  0.00000000000E+00 0. -1.
         -2   -1    0    0    0  501 -0.00000000000E+00 -0.00000000000E+00 -0.12068903064E+04  0.12068903064E+04  0.00000000000E+00 0.  1.
         23    2    1    2    0    0 -0.58220332118E+03 -0.10173522274E+04  0.22125449828E+04  0.25055125672E+04  0.90948677026E+02 0.  0.
         13    1    3    3    0    0 -0.13660567324E+03 -0.29790757105E+03  0.67933094117E+03  0.75425496914E+03  0.00000000000E+00 0. -1.
        -13    1    3    3    0    0 -0.44559764794E+03 -0.71944465638E+03  0.15332140416E+04  0.17512575981E+04  0.00000000000E+00 0.  1.
         22    1    1    2    0    0  0.58220332118E+03  0.10173522274E+04 -0.73648209384E+03  0.13843309346E+04  0.00000000000E+00 0.  1.
<mgrwt>
<rscale>  0 0.35989055E+04</rscale>
<asrwt>0</asrwt>
<pdfrwt beam="1">  1        2 0.41276203E+00 0.35989055E+04</pdfrwt>
<pdfrwt beam="2">  1       -2 0.18567543E+00 0.35989055E+04</pdfrwt>
<totfact> 0.36724349E-01</totfact>
</mgrwt>
</event>
<event>
 6    1  0.1072514E-005  0.2017460E+04  0.7818608E-02  0.8598501E-01
         -1   -1    0    0    0  501 -0.00000000000E+00  0.00000000000E+00  0.58356044653E+03  0.58356044653E+03  0.00000000000E+00 0.  1.
          1   -1    0    0  501    0  0.00000000000E+00 -0.00000000000E+00 -0.17436693507E+04  0.17436693507E+04  0.00000000000E+00 0. -1.
         23    2    1    2    0    0 -0.39314263018E+03 -0.80790531930E+03 -0.11049426932E+04  0.14270545680E+04  0.91182521206E+02 0.  0.
         11    1    3    3    0    0 -0.59054105226E+02 -0.19579992577E+03 -0.28275512669E+03  0.34896340774E+03  0.00000000000E+00 0. -1.
        -11    1    3    3    0    0 -0.33408852495E+03 -0.61210539353E+03 -0.82218756648E+03  0.10780911602E+04  0.00000000000E+00 0.  1.
         22    1    1    2    0    0  0.39314263018E+03  0.80790531930E+03 -0.55166211049E+02  0.90017522931E+03  0.00000000000E+00 0. -1.
<mgrwt>
<rscale>  0 0.20174602E+04</rscale>
<asrwt>0</asrwt>
<pdfrwt beam="1">  1        1 0.26825682E+00 0.20174602E+04</pdfrwt>
<pdfrwt beam="2">  1       -1 0.89778530E-01 0.20174602E+04</pdfrwt>
<totfact> 0.50056698E+00</totfact>
</mgrwt>
</event>
<event>
 6    1  0.1072514E-005  0.2916751E+04  0.7818608E-02  0.8267911E-01
          2   -1    0    0  501    0  0.00000000000E+00  0.00000000000E+00  0.13245594745E+04  0.13245594745E+04  0.00000000000E+00 0.  1.
         -2   -1    0    0    0  501 -0.00000000000E+00 -0.00000000000E+00 -0.16057105097E+04  0.16057105097E+04  0.00000000000E+00 0. -1.
         23    2    1    2    0    0  0.10380023678E+04 -0.86422054379E+03  0.40803143302E+03  0.14139261780E+04  0.91496024959E+02 0.  0.
         13    1    3    3    0    0  0.12350930460E+03 -0.10566810735E+03  0.80910750068E+02  0.18156774689E+03  0.00000000000E+00 0. -1.
        -13    1    3    3    0    0  0.91449306325E+03 -0.75855243644E+03  0.32712068295E+03  0.12323584311E+04  0.00000000000E+00 0.  1.
         22    1    1    2    0    0 -0.10380023678E+04  0.86422054379E+03 -0.68918246822E+03  0.15163438062E+04  0.00000000000E+00 0. -1.
<mgrwt>
<rscale>  0 0.29167510E+04</rscale>
<asrwt>0</asrwt>
<pdfrwt beam="1">  1        2 0.20377838E+00 0.29167510E+04</pdfrwt>
<pdfrwt beam="2">  1       -2 0.24703239E+00 0.29167510E+04</pdfrwt>
<totfact> 0.92404993E-01</totfact>
</mgrwt>
</event>
<event>
 6    1  0.1072514E-005  0.2809022E+04  0.7818608E-02  0.8300473E-01
          2   -1    0    0  501    0  0.00000000000E+00  0.00000000000E+00  0.26704684122E+04  0.26704684122E+04  0.00000000000E+00 0. -1.
         -2   -1    0    0    0  501 -0.00000000000E+00 -0.00000000000E+00 -0.73869129763E+03  0.73869129763E+03  0.00000000000E+00 0.  1.
         23    2    1    2    0    0  0.54980498080E+03 -0.12510221308E+04  0.13542815411E+04  0.19256358555E+04  0.81566334364E+02 0.  0.
         13    1    3    3    0    0  0.48804574041E+03 -0.11086318654E+04  0.12350931577E+04  0.17299446135E+04  0.00000000000E+00 0.  1.
        -13    1    3    3    0    0  0.61759240387E+02 -0.14239026547E+03  0.11918838337E+03  0.19569124202E+03  0.00000000000E+00 0. -1.
         22    1    1    2    0    0 -0.54980498080E+03  0.12510221308E+04  0.57749557346E+03  0.14835238543E+04  0.00000000000E+00 0. -1.
<mgrwt>
<rscale>  0 0.28090224E+04</rscale>
<asrwt>0</asrwt>
<pdfrwt beam="1">  1        2 0.41084129E+00 0.28090224E+04</pdfrwt>
<pdfrwt beam="2">  1       -2 0.11364482E+00 0.28090224E+04</pdfrwt>
<totfact> 0.14588542E+00</totfact>
</mgrwt>
</event>
<event>
 6    1  0.1072514E-005  0.1297797E+04  0.7818608E-02  0.9031314E-01
          1   -1    0    0  501    0  0.00000000000E+00  0.00000000000E+00  0.65104916926E+03  0.65104916926E+03  0.00000000000E+00 0. -1.
         -1   -1    0    0    0  501 -0.00000000000E+00 -0.00000000000E+00 -0.64675452960E+03  0.64675452960E+03  0.00000000000E+00 0.  1.
         23    2    1    2    0    0  0.37045705452E+03  0.34352234434E+03  0.40481084612E+03  0.65308727908E+03  0.86053138538E+02 0.  0.
         13    1    3    3    0    0  0.15310499078E+03  0.18478391370E+03  0.15359314530E+03  0.28491593014E+03  0.00000000000E+00 0. -1.
        -13    1    3    3    0    0  0.21735206374E+03  0.15873843064E+03  0.25121770082E+03  0.36817134894E+03  0.00000000000E+00 0.  1.
         22    1    1    2    0    0 -0.37045705452E+03 -0.34352234434E+03 -0.40051620646E+03  0.64471641979E+03  0.00000000000E+00 0.  1.
<mgrwt>
<rscale>  0 0.12977966E+04</rscale>
<asrwt>0</asrwt>
<pdfrwt beam="1">  1        1 0.10016141E+00 0.12977966E+04</pdfrwt>
<pdfrwt beam="2">  1       -1 0.99500697E-01 0.12977966E+04</pdfrwt>
<totfact> 0.28800534E+01</totfact>
</mgrwt>
</event>
<event>
 6    1  0.1072514E-005  0.7539463E+03  0.7818608E-02  0.9629179E-01
          2   -1    0    0  501    0  0.00000000000E+00  0.00000000000E+00  0.97194364906E+03  0.97194364906E+03  0.00000000000E+00 0. -1.
         -2   -1    0    0    0  501 -0.00000000000E+00 -0.00000000000E+00 -0.14621091912E+03  0.14621091912E+03  0.00000000000E+00 0.  1.
         23    2    1    2    0    0 -0.34932056855E+03  0.11160921173E+03  0.33754240506E+03  0.50757183909E+03  0.95983440617E+02 0.  0.
         13    1    3    3    0    0 -0.71969254809E+02 -0.46928980985E+01  0.10510597991E+03  0.12747103178E+03  0.00000000000E+00 0.  1.
        -13    1    3    3    0    0 -0.27735131374E+03  0.11630210983E+03  0.23243642515E+03  0.38010080731E+03  0.00000000000E+00 0. -1.
         22    1    1    2    0    0  0.34932056855E+03 -0.11160921173E+03  0.48819032487E+03  0.61058272908E+03  0.00000000000E+00 0. -1.
<mgrwt>
<rscale>  0 0.75394635E+03</rscale>
<asrwt>0</asrwt>
<pdfrwt beam="1">  1        2 0.14952979E+00 0.75394635E+03</pdfrwt>
<pdfrwt beam="2">  1       -2 0.22493988E-01 0.75394635E+03</pdfrwt>
<totfact> 0.45784290E+02</totfact>
</mgrwt>
</event>
<event>
 6    1  0.1072514E-005  0.4560515E+04  0.7818608E-02  0.7900127E-01
          1   -1    0    0  501    0  0.00000000000E+00  0.00000000000E+00  0.32511123971E+04  0.32511123971E+04  0.00000000000E+00 0. -1.
         -1   -1    0    0    0  501 -0.00000000000E+00 -0.00000000000E+00 -0.15993212992E+04  0.15993212992E+04  0.00000000000E+00 0.  1.
         23    2    1    2    0    0 -0.16799606245E+04  0.14515919188E+04  0.13747612819E+04  0.26129949111E+04  0.91580699932E+02 0.  0.
         13    1    3    3    0    0 -0.91421218693E+03  0.73020460184E+03  0.71573274021E+03  0.13715888738E+04  0.00000000000E+00 0. -1.
        -13    1    3    3    0    0 -0.76574843757E+03  0.72138731693E+03  0.65902854166E+03  0.12414060373E+04  0.00000000000E+00 0.  1.
         22    1    1    2    0    0  0.16799606245E+04 -0.14515919188E+04  0.27702981606E+03  0.22374387852E+04  0.00000000000E+00 0. -1.
<mgrwt>
<rscale>  0 0.45605146E+04</rscale>
<asrwt>0</asrwt>
<pdfrwt beam="1">  1        1 0.50017114E+00 0.45605146E+04</pdfrwt>
<pdfrwt beam="2">  1       -1 0.24604943E+00 0.45605146E+04</pdfrwt>
<totfact> 0.21508668E-02</totfact>
</mgrwt>
</event>
<event>
 6    1  0.1072514E-005  0.1396460E+04  0.7818608E-02  0.8956385E-01
         -2   -1    0    0    0  501 -0.00000000000E+00  0.00000000000E+00  0.11953060625E+04  0.11953060625E+04  0.00000000000E+00 0.  1.
          2   -1    0    0  501    0  0.00000000000E+00 -0.00000000000E+00 -0.40786612983E+03  0.40786612983E+03  0.00000000000E+00 0. -1.
         23    2    1    2    0    0 -0.19836235699E+03  0.14952806030E+03  0.11409065813E+04  0.11711479602E+04  0.90628096920E+02 0.  0.
         13    1    3    3    0    0 -0.81449604368E+02  0.77789331331E+02  0.32921355199E+03  0.34794652022E+03  0.00000000000E+00 0. -1.
        -13    1    3    3    0    0 -0.11691275262E+03  0.71738728964E+02  0.81169302931E+03  0.82320143998E+03  0.00000000000E+00 0.  1.
         22    1    1    2    0    0  0.19836235699E+03 -0.14952806030E+03 -0.35346664860E+03  0.43202423214E+03  0.00000000000E+00 0. -1.
<mgrwt>
<rscale>  0 0.13964596E+04</rscale>
<asrwt>0</asrwt>
<pdfrwt beam="1">  1        2 0.62748636E-01 0.13964596E+04</pdfrwt>
<pdfrwt beam="2">  1       -2 0.18389324E+00 0.13964596E+04</pdfrwt>
<totfact> 0.12896185E+01</totfact>
</mgrwt>
</event>
<event>
 6    1  0.1072514E-005  0.1630337E+04  0.7818608E-02  0.8802124E-01
          2   -1    0    0  501    0  0.00000000000E+00  0.00000000000E+00  0.23537736407E+04  0.23537736407E+04  0.00000000000E+00 0. -1.
         -2   -1    0    0    0  501 -0.00000000000E+00 -0.00000000000E+00 -0.28231261430E+03  0.28231261430E+03  0.00000000000E+00 0.  1.
         23    2    1    2    0    0 -0.75030768328E+03 -0.39662498400E+02  0.53828391899E+03  0.92870030681E+03  0.90553570041E+02 0.  0.
         11    1    3    3    0    0 -0.69349554259E+03 -0.12010224157E+02  0.49212415791E+03  0.85045076276E+03  0.00000000000E+00 0. -1.
        -11    1    3    3    0    0 -0.56812140691E+02 -0.27652274243E+02  0.46159761083E+02  0.78249544050E+02  0.00000000000E+00 0.  1.
         22    1    1    2    0    0  0.75030768328E+03  0.39662498400E+02  0.15331771074E+04  0.17073859482E+04  0.00000000000E+00 0. -1.
<mgrwt>
<rscale>  0 0.16303374E+04</rscale>
<asrwt>0</asrwt>
<pdfrwt beam="1">  1        2 0.36211901E+00 0.16303374E+04</pdfrwt>
<pdfrwt beam="2">  1       -2 0.43432711E-01 0.16303374E+04</pdfrwt>
<totfact> 0.20344312E+01</totfact>
</mgrwt>
</event>
<event>
 6    1  0.1072514E-005  0.2689997E+04  0.7818608E-02  0.8338258E-01
          2   -1    0    0  501    0  0.00000000000E+00  0.00000000000E+00  0.13399307763E+04  0.13399307763E+04  0.00000000000E+00 0. -1.
         -2   -1    0    0    0  501 -0.00000000000E+00 -0.00000000000E+00 -0.13500853725E+04  0.13500853725E+04  0.00000000000E+00 0.  1.
         23    2    1    2    0    0  0.13267611847E+04 -0.16300876543E+03  0.12874483361E+03  0.13460815706E+04  0.92158903364E+02 0.  0.
         11    1    3    3    0    0  0.89588513769E+03 -0.14942146013E+03  0.69106900418E+02  0.91088567689E+03  0.00000000000E+00 0. -1.
        -11    1    3    3    0    0  0.43087604706E+03 -0.13587305302E+02  0.59637933195E+02  0.43519589367E+03  0.00000000000E+00 0.  1.
         22    1    1    2    0    0 -0.13267611847E+04  0.16300876543E+03 -0.13889942982E+03  0.13439345782E+04  0.00000000000E+00 0.  1.
<mgrwt>
<rscale>  0 0.26899970E+04</rscale>
<asrwt>0</asrwt>
<pdfrwt beam="1">  1        2 0.20614320E+00 0.26899970E+04</pdfrwt>
<pdfrwt beam="2">  1       -2 0.20770544E+00 0.26899970E+04</pdfrwt>
<totfact> 0.16302460E+00</totfact>
</mgrwt>
</event>
<event>
 6    1  0.1072514E-005  0.2189438E+04  0.7818608E-02  0.8522837E-01
          1   -1    0    0  501    0  0.00000000000E+00  0.00000000000E+00  0.24721315770E+04  0.24721315770E+04  0.00000000000E+00 0. -1.
         -1   -1    0    0    0  501 -0.00000000000E+00 -0.00000000000E+00 -0.48476788027E+03  0.48476788027E+03  0.00000000000E+00 0.  1.
         23    2    1    2    0    0  0.56323898780E+03  0.44179581346E+03 -0.11990568459E+03  0.73136447807E+03  0.89971820123E+02 0.  0.
         11    1    3    3    0    0  0.19111900198E+03  0.20133783173E+03 -0.63137858102E+02  0.28469243849E+03  0.00000000000E+00 0.  1.
        -11    1    3    3    0    0  0.37211998582E+03  0.24045798173E+03 -0.56767826487E+02  0.44667203958E+03  0.00000000000E+00 0. -1.
         22    1    1    2    0    0 -0.56323898780E+03 -0.44179581346E+03  0.21072693813E+04  0.22255349792E+04  0.00000000000E+00 0. -1.
<mgrwt>
<rscale>  0 0.21894383E+04</rscale>
<asrwt>0</asrwt>
<pdfrwt beam="1">  1        1 0.38032793E+00 0.21894383E+04</pdfrwt>
<pdfrwt beam="2">  1       -1 0.74579675E-01 0.21894383E+04</pdfrwt>
<totfact> 0.23383666E+00</totfact>
</mgrwt>
</event>
<event>
 6    1  0.1072514E-005  0.3745506E+04  0.7818608E-02  0.8057951E-01
          2   -1    0    0  501    0  0.00000000000E+00  0.00000000000E+00  0.31431212761E+04  0.31431212761E+04  0.00000000000E+00 0. -1.
         -2   -1    0    0    0  501 -0.00000000000E+00 -0.00000000000E+00 -0.11158345921E+04  0.11158345921E+04  0.00000000000E+00 0.  1.
         23    2    1    2    0    0  0.83443342308E+02 -0.11213977309E+04 -0.68708736808E+03  0.13208744948E+04  0.90137214618E+02 0.  0.
         11    1    3    3    0    0 -0.99754726587E+01 -0.37624807226E+03 -0.25212718078E+03  0.45302344003E+03  0.00000000000E+00 0. -1.
        -11    1    3    3    0    0  0.93418814967E+02 -0.74514965863E+03 -0.43496018730E+03  0.86785105478E+03  0.00000000000E+00 0.  1.
         22    1    1    2    0    0 -0.83443342308E+02  0.11213977309E+04  0.27143740521E+04  0.29380813734E+04  0.00000000000E+00 0. -1.
<mgrwt>
<rscale>  0 0.37455058E+04</rscale>
<asrwt>0</asrwt>
<pdfrwt beam="1">  1        2 0.48355712E+00 0.37455058E+04</pdfrwt>
<pdfrwt beam="2">  1       -2 0.17166686E+00 0.37455058E+04</pdfrwt>
<totfact> 0.23562002E-01</totfact>
</mgrwt>
</event>
<event>
 6    1  0.1072514E-005  0.2036089E+04  0.7818608E-02  0.8589931E-01
         -2   -1    0    0    0  501 -0.00000000000E+00  0.00000000000E+00  0.43141840415E+03  0.43141840415E+03  0.00000000000E+00 0.  1.
          2   -1    0    0  501    0  0.00000000000E+00 -0.00000000000E+00 -0.24023432688E+04  0.24023432688E+04  0.00000000000E+00 0. -1.
         23    2    1    2    0    0  0.40079834205E+03  0.18105969982E+03 -0.22621195610E+04  0.23062995633E+04  0.91710641712E+02 0.  0.
         13    1    3    3    0    0  0.29198769876E+03  0.17178380054E+03 -0.17821650467E+04  0.18140779322E+04  0.00000000000E+00 0.  1.
        -13    1    3    3    0    0  0.10881064329E+03  0.92758992800E+01 -0.47995451432E+03  0.49222163120E+03  0.00000000000E+00 0. -1.
         22    1    1    2    0    0 -0.40079834205E+03 -0.18105969982E+03  0.29119469634E+03  0.52746210961E+03  0.00000000000E+00 0.  1.
<mgrwt>
<rscale>  0 0.20360895E+04</rscale>
<asrwt>0</asrwt>
<pdfrwt beam="1">  1        2 0.36959127E+00 0.20360895E+04</pdfrwt>
<pdfrwt beam="2">  1       -2 0.66372063E-01 0.20360895E+04</pdfrwt>
<totfact> 0.76638864E+00</totfact>
</mgrwt>
</event>
<event>
 6    1  0.1072514E-005  0.2823776E+04  0.7818608E-02  0.8295925E-01
          2   -1    0    0  501    0  0.00000000000E+00  0.00000000000E+00  0.61601105478E+03  0.61601105478E+03  0.00000000000E+00 0. -1.
         -2   -1    0    0    0  501 -0.00000000000E+00 -0.00000000000E+00 -0.32360260734E+04  0.32360260734E+04  0.00000000000E+00 0.  1.
         23    2    1    2    0    0  0.98922094928E+02  0.69635053399E+03 -0.29790443126E+04  0.30623589147E+04  0.92991713607E+02 0.  0.
         11    1    3    3    0    0  0.65902278451E+02  0.33837173641E+03 -0.12731279872E+04  0.13189743796E+04  0.00000000000E+00 0.  1.
        -11    1    3    3    0    0  0.33019816477E+02  0.35797879759E+03 -0.17059163254E+04  0.17433845350E+04  0.00000000000E+00 0. -1.
         22    1    1    2    0    0 -0.98922094928E+02 -0.69635053399E+03  0.35902929394E+03  0.78967821356E+03  0.00000000000E+00 0. -1.
<mgrwt>
<rscale>  0 0.28237761E+04</rscale>
<asrwt>0</asrwt>
<pdfrwt beam="1">  1        2 0.94770932E-01 0.28237761E+04</pdfrwt>
<pdfrwt beam="2">  1       -2 0.49785016E+00 0.28237761E+04</pdfrwt>
<totfact> 0.70711104E-02</totfact>
</mgrwt>
</event>
<event>
 6    1  0.1072514E-005  0.1133423E+04  0.7818608E-02  0.9173214E-01
         -2   -1    0    0    0  501 -0.00000000000E+00  0.00000000000E+00  0.73220120577E+03  0.73220120577E+03  0.00000000000E+00 0.  1.
          2   -1    0    0  501    0  0.00000000000E+00 -0.00000000000E+00 -0.43862514318E+03  0.43862514318E+03  0.00000000000E+00 0. -1.
         23    2    1    2    0    0  0.34194962006E+03 -0.36277185570E+03 -0.12182430717E+03  0.52191154009E+03  0.94960686144E+02 0.  0.
         13    1    3    3    0    0  0.72165009678E+02 -0.43030197322E+02 -0.49011512161E+02  0.97270318329E+02  0.00000000000E+00 0. -1.
        -13    1    3    3    0    0  0.26978461039E+03 -0.31974165837E+03 -0.72812795012E+02  0.42464122176E+03  0.00000000000E+00 0.  1.
         22    1    1    2    0    0 -0.34194962006E+03  0.36277185570E+03  0.41540036976E+03  0.64891480885E+03  0.00000000000E+00 0.  1.
<mgrwt>
<rscale>  0 0.11334229E+04</rscale>
<asrwt>0</asrwt>
<pdfrwt beam="1">  1        2 0.67480791E-01 0.11334229E+04</pdfrwt>
<pdfrwt beam="2">  1       -2 0.11264634E+00 0.11334229E+04</pdfrwt>
<totfact> 0.44001322E+01</totfact>
</mgrwt>
</event>
<event>
 6    1  0.1072514E-005  0.1807607E+04  0.7818608E-02  0.8702264E-01
          1   -1    0    0  501    0  0.00000000000E+00  0.00000000000E+00  0.18746059582E+04  0.18746059582E+04  0.00000000000E+00 0. -1.
         -1   -1    0    0    0  501 -0.00000000000E+00 -0.00000000000E+00 -0.43575075759E+03  0.43575075759E+03  0.00000000000E+00 0.  1.
         23    2    1    2    0    0  0.26563277468E+03  0.10677784634E+03  0.18138426140E+04  0.18385751565E+04  0.91494798480E+02 0.  0.
         11    1    3    3    0    0  0.11971217303E+03  0.83936997662E+02  0.10948472243E+04  0.11045663713E+04  0.00000000000E+00 0.  1.
        -11    1    3    3    0    0  0.14592060165E+03  0.22840848678E+02  0.71899538968E+03  0.73400878519E+03  0.00000000000E+00 0. -1.
         22    1    1    2    0    0 -0.26563277468E+03 -0.10677784634E+03 -0.37498741342E+03  0.47178155928E+03  0.00000000000E+00 0.  1.
<mgrwt>
<rscale>  0 0.18076072E+04</rscale>
<asrwt>0</asrwt>
<pdfrwt beam="1">  1        1 0.28840091E+00 0.18076072E+04</pdfrwt>
<pdfrwt beam="2">  1       -1 0.67038579E-01 0.18076072E+04</pdfrwt>
<totfact> 0.77055269E+00</totfact>
</mgrwt>
</event>
<event>
 6    1  0.1072514E-005  0.9578841E+03  0.7818608E-02  0.9355982E-01
         -1   -1    0    0    0  501 -0.00000000000E+00  0.00000000000E+00  0.41062560900E+03  0.41062560900E+03  0.00000000000E+00 0.  1.
          1   -1    0    0  501    0  0.00000000000E+00 -0.00000000000E+00 -0.55862437195E+03  0.55862437195E+03  0.00000000000E+00 0. -1.
         23    2    1    2    0    0 -0.32174366777E+02 -0.37160958943E+03  0.22266288015E+03  0.44339930775E+03  0.88855563048E+02 0.  0.
         13    1    3    3    0    0 -0.15307902937E+02 -0.16909190329E+02  0.34955954470E+02  0.41739326334E+02  0.00000000000E+00 0.  1.
        -13    1    3    3    0    0 -0.16866463840E+02 -0.35470039910E+03  0.18770692568E+03  0.40165998142E+03  0.00000000000E+00 0. -1.
         22    1    1    2    0    0  0.32174366777E+02  0.37160958943E+03 -0.37066164310E+03  0.52585067320E+03  0.00000000000E+00 0. -1.
<mgrwt>
<rscale>  0 0.95788407E+03</rscale>
<asrwt>0</asrwt>
<pdfrwt beam="1">  1        1 0.85942211E-01 0.95788407E+03</pdfrwt>
<pdfrwt beam="2">  1       -1 0.63173171E-01 0.95788407E+03</pdfrwt>
<totfact> 0.96939202E+01</totfact>
</mgrwt>
</event>
<event>
 6    1  0.1072514E-005  0.1787635E+04  0.7818608E-02  0.8712903E-01
         -1   -1    0    0    0  501 -0.00000000000E+00  0.00000000000E+00  0.45193749583E+03  0.45193749583E+03  0.00000000000E+00 0.  1.
          1   -1    0    0  501    0  0.00000000000E+00 -0.00000000000E+00 -0.17677438489E+04  0.17677438489E+04  0.00000000000E+00 0. -1.
         23    2    1    2    0    0 -0.73399598823E+03  0.29396725135E+03 -0.11708295455E+04  0.14158249332E+04  0.92474652036E+02 0.  0.
         11    1    3    3    0    0 -0.49490503906E+03  0.21018334660E+03 -0.86741170594E+03  0.10205445137E+04  0.00000000000E+00 0. -1.
        -11    1    3    3    0    0 -0.23909094917E+03  0.83783904754E+02 -0.30341783960E+03  0.39528041952E+03  0.00000000000E+00 0.  1.
         22    1    1    2    0    0  0.73399598823E+03 -0.29396725135E+03 -0.14497680754E+03  0.80385641151E+03  0.00000000000E+00 0. -1.
<mgrwt>
<rscale>  0 0.17876350E+04</rscale>
<asrwt>0</asrwt>
<pdfrwt beam="1">  1        1 0.27196060E+00 0.17876350E+04</pdfrwt>
<pdfrwt beam="2">  1       -1 0.69528844E-01 0.17876350E+04</pdfrwt>
<totfact> 0.84679485E+00</totfact>
</mgrwt>
</event>
<event>
 6    1  0.1072514E-005  0.1197704E+04  0.7818608E-02  0.9114869E-01
          2   -1    0    0  501    0  0.00000000000E+00  0.00000000000E+00  0.86082287574E+03  0.86082287574E+03  0.00000000000E+00 0.  1.
         -2   -1    0    0    0  501 -0.00000000000E+00 -0.00000000000E+00 -0.41660558257E+03  0.41660558257E+03  0.00000000000E+00 0. -1.
         23    2    1    2    0    0 -0.27737855369E+03 -0.24854462609E+03 -0.27312614027E+03  0.46916185952E+03  0.82472230032E+02 0.  0.
         13    1    3    3    0    0 -0.40301521309E+02 -0.73934095527E+02 -0.85614312942E+02  0.12008444396E+03  0.00000000000E+00 0.  1.
        -13    1    3    3    0    0 -0.23707703238E+03 -0.17461053056E+03 -0.18751182733E+03  0.34907741556E+03  0.00000000000E+00 0. -1.
         22    1    1    2    0    0  0.27737855369E+03  0.24854462609E+03  0.71734343344E+03  0.80826659878E+03  0.00000000000E+00 0.  1.
<mgrwt>
<rscale>  0 0.11977038E+04</rscale>
<asrwt>0</asrwt>
<pdfrwt beam="1">  1        2 0.13243429E+00 0.11977038E+04</pdfrwt>
<pdfrwt beam="2">  1       -2 0.64093167E-01 0.11977038E+04</pdfrwt>
<totfact> 0.69288238E+01</totfact>
</mgrwt>
</event>
<event>
 6    1  0.1072514E-005  0.3091805E+04  0.7818608E-02  0.8217990E-01
         -1   -1    0    0    0  501 -0.00000000000E+00  0.00000000000E+00  0.18519420185E+04  0.18519420185E+04  0.00000000000E+00 0.  1.
          1   -1    0    0  501    0  0.00000000000E+00 -0.00000000000E+00 -0.12904373834E+04  0.12904373834E+04  0.00000000000E+00 0. -1.
         23    2    1    2    0    0 -0.31846708587E+03 -0.15086012668E+04  0.18903423754E+03  0.15561785118E+04  0.93051333194E+02 0.  0.
         11    1    3    3    0    0 -0.14587984504E+03 -0.48142308016E+03  0.56431728268E+02  0.50619526989E+03  0.00000000000E+00 0. -1.
        -11    1    3    3    0    0 -0.17258724083E+03 -0.10271781866E+04  0.13260250927E+03  0.10499832419E+04  0.00000000000E+00 0.  1.
         22    1    1    2    0    0  0.31846708587E+03  0.15086012668E+04  0.37247039759E+03  0.15862008902E+04  0.00000000000E+00 0.  1.
<mgrwt>
<rscale>  0 0.30918054E+04</rscale>
<asrwt>0</asrwt>
<pdfrwt beam="1">  1        1 0.19852883E+00 0.30918054E+04</pdfrwt>
<pdfrwt beam="2">  1       -1 0.28491416E+00 0.30918054E+04</pdfrwt>
<totfact> 0.32093248E-01</totfact>
</mgrwt>
</event>
<event>
 6    1  0.1072514E-005  0.1326360E+04  0.7818608E-02  0.9008919E-01
          1   -1    0    0  501    0  0.00000000000E+00  0.00000000000E+00  0.86097123499E+03  0.86097123499E+03  0.00000000000E+00 0. -1.
         -1   -1    0    0    0  501 -0.00000000000E+00 -0.00000000000E+00 -0.51082739311E+03  0.51082739311E+03  0.00000000000E+00 0.  1.
         23    2    1    2    0    0 -0.64918313007E+03 -0.85370978835E+02  0.26043027129E+03  0.71090872414E+03  0.94023121963E+02 0.  0.
         13    1    3    3    0    0 -0.14484903715E+03 -0.26115749484E+02  0.10159928119E+03  0.17884543571E+03  0.00000000000E+00 0.  1.
        -13    1    3    3    0    0 -0.50433409292E+03 -0.59255229352E+02  0.15883099010E+03  0.53206328843E+03  0.00000000000E+00 0. -1.
         22    1    1    2    0    0  0.64918313007E+03  0.85370978835E+02  0.89713570583E+02  0.66088990395E+03  0.00000000000E+00 0.  1.
<mgrwt>
<rscale>  0 0.13263600E+04</rscale>
<asrwt>0</asrwt>
<pdfrwt beam="1">  1        1 0.13245711E+00 0.13263600E+04</pdfrwt>
<pdfrwt beam="2">  1       -1 0.78588830E-01 0.13263600E+04</pdfrwt>
<totfact> 0.31157967E+01</totfact>
</mgrwt>
</event>
<event>
 6    1  0.1072514E-005  0.1220287E+04  0.7818608E-02  0.9095283E-01
          2   -1    0    0  501    0  0.00000000000E+00  0.00000000000E+00  0.21796147949E+04  0.21796147949E+04  0.00000000000E+00 0. -1.
         -2   -1    0    0    0  501 -0.00000000000E+00 -0.00000000000E+00 -0.17079846676E+03  0.17079846676E+03  0.00000000000E+00 0.  1.
         23    2    1    2    0    0 -0.18096282531E+03  0.34179505555E+03  0.19105248559E+04  0.19513736425E+04  0.90456970975E+02 0.  0.
         13    1    3    3    0    0 -0.12286376969E+03  0.17974350095E+03  0.12479212415E+04  0.12667717462E+04  0.00000000000E+00 0. -1.
        -13    1    3    3    0    0 -0.58099055618E+02  0.16205155460E+03  0.66260361440E+03  0.68460189631E+03  0.00000000000E+00 0.  1.
         22    1    1    2    0    0  0.18096282531E+03 -0.34179505555E+03  0.98291472277E+02  0.39903961916E+03  0.00000000000E+00 0.  1.
<mgrwt>
<rscale>  0 0.12202866E+04</rscale>
<asrwt>0</asrwt>
<pdfrwt beam="1">  1        2 0.33532533E+00 0.12202866E+04</pdfrwt>
<pdfrwt beam="2">  1       -2 0.26276689E-01 0.12202866E+04</pdfrwt>
<totfact> 0.68629084E+01</totfact>
</mgrwt>
</event>
<event>
 6    1  0.1072514E-005  0.1698847E+04  0.7818608E-02  0.8762022E-01
          1   -1    0    0  501    0  0.00000000000E+00  0.00000000000E+00  0.26890349670E+04  0.26890349670E+04  0.00000000000E+00 0. -1.
         -1   -1    0    0    0  501 -0.00000000000E+00 -0.00000000000E+00 -0.26831944594E+03  0.26831944594E+03  0.00000000000E+00 0.  1.
         23    2    1    2    0    0  0.49362970767E+03  0.57763657037E+03  0.18644613532E+04  0.20156787814E+04  0.97007817635E+02 0.  0.
         11    1    3    3    0    0  0.38477127782E+03  0.40310341222E+03  0.14379840663E+04  0.15421865880E+04  0.00000000000E+00 0. -1.
        -11    1    3    3    0    0  0.10885842985E+03  0.17453315815E+03  0.42647728686E+03  0.47349219344E+03  0.00000000000E+00 0.  1.
         22    1    1    2    0    0 -0.49362970767E+03 -0.57763657037E+03  0.55625416789E+03  0.94167563153E+03  0.00000000000E+00 0.  1.
<mgrwt>
<rscale>  0 0.16988471E+04</rscale>
<asrwt>0</asrwt>
<pdfrwt beam="1">  1        1 0.41369767E+00 0.16988471E+04</pdfrwt>
<pdfrwt beam="2">  1       -1 0.41279917E-01 0.16988471E+04</pdfrwt>
<totfact> 0.54780658E+00</totfact>
</mgrwt>
</event>
<event>
 6    1  0.2386829E-005  0.3402544E+04  0.7818608E-02  0.8137282E-01
         -1   -1    0    0    0  501 -0.00000000000E+00  0.00000000000E+00  0.16066751297E+04  0.16066751297E+04  0.00000000000E+00 0.  1.
          1   -1    0    0  501    0  0.00000000000E+00 -0.00000000000E+00 -0.18014387335E+04  0.18014387335E+04  0.00000000000E+00 0. -1.
         23    2    1    2    0    0 -0.23635362886E+02 -0.50466720165E+03 -0.17233526794E+04  0.17981970402E+04  0.91216899628E+02 0.  0.
         13    1    3    3    0    0 -0.41247493928E+02 -0.25424349066E+03 -0.75014508538E+03  0.79313224460E+03  0.00000000000E+00 0.  1.
        -13    1    3    3    0    0  0.17612131042E+02 -0.25042371099E+03 -0.97320759406E+03  0.10050647956E+04  0.00000000000E+00 0. -1.
         22    1    1    2    0    0  0.23635362886E+02  0.50466720165E+03  0.15285890756E+04  0.16099168230E+04  0.00000000000E+00 0.  1.
<mgrwt>
<rscale>  0 0.34025442E+04</rscale>
<asrwt>0</asrwt>
<pdfrwt beam="1">  1        1 0.27714442E+00 0.34025442E+04</pdfrwt>
<pdfrwt beam="2">  1       -1 0.24718079E+00 0.34025442E+04</pdfrwt>
<totfact> 0.24322707E-01</totfact>
</mgrwt>
</event>
<event>
 6    1  0.1072514E-005  0.1596382E+04  0.7818608E-02  0.8822774E-01
         -1   -1    0    0    0  501 -0.00000000000E+00  0.00000000000E+00  0.26894641180E+03  0.26894641180E+03  0.00000000000E+00 0.  1.
          1   -1    0    0  501    0  0.00000000000E+00 -0.00000000000E+00 -0.23689052440E+04  0.23689052440E+04  0.00000000000E+00 0. -1.
         23    2    1    2    0    0  0.32667485696E+03 -0.55855646088E+03 -0.18179471668E+04  0.19319958904E+04  0.94733505468E+02 0.  0.
         13    1    3    3    0    0  0.19381326850E+03 -0.39983773799E+03 -0.11566325782E+04  0.12390450842E+04  0.00000000000E+00 0. -1.
        -13    1    3    3    0    0  0.13286158846E+03 -0.15871872288E+03 -0.66131458863E+03  0.69295080620E+03  0.00000000000E+00 0.  1.
         22    1    1    2    0    0 -0.32667485696E+03  0.55855646088E+03 -0.28201166542E+03  0.70585576543E+03  0.00000000000E+00 0.  1.
<mgrwt>
<rscale>  0 0.15963816E+04</rscale>
<asrwt>0</asrwt>
<pdfrwt beam="1">  1        1 0.36444696E+00 0.15963816E+04</pdfrwt>
<pdfrwt beam="2">  1       -1 0.41376371E-01 0.15963816E+04</pdfrwt>
<totfact> 0.91826848E+00</totfact>
</mgrwt>
</event>
<event>
 6    1  0.1072514E-005  0.3174038E+04  0.7818608E-02  0.8195707E-01
          2   -1    0    0  501    0  0.00000000000E+00  0.00000000000E+00  0.39089466405E+04  0.39089466405E+04  0.00000000000E+00 0. -1.
         -2   -1    0    0    0  501 -0.00000000000E+00 -0.00000000000E+00 -0.64432446868E+03  0.64432446868E+03  0.00000000000E+00 0.  1.
         23    2    1    2    0    0 -0.11032856919E+04  0.59897646358E+03  0.24376482143E+03  0.12819424413E+04  0.89123581168E+02 0.  0.
         11    1    3    3    0    0 -0.59009538998E+03  0.35184292690E+03  0.16856772111E+03  0.70740447488E+03  0.00000000000E+00 0.  1.
        -11    1    3    3    0    0 -0.51319030194E+03  0.24713353669E+03  0.75197100320E+02  0.57453796642E+03  0.00000000000E+00 0. -1.
         22    1    1    2    0    0  0.11032856919E+04 -0.59897646358E+03  0.30208573504E+04  0.32713286679E+04  0.00000000000E+00 0. -1.
<mgrwt>
<rscale>  0 0.31740384E+04</rscale>
<asrwt>0</asrwt>
<pdfrwt beam="1">  1        2 0.60137639E+00 0.31740384E+04</pdfrwt>
<pdfrwt beam="2">  1       -2 0.99126844E-01 0.31740384E+04</pdfrwt>
<totfact> 0.28741614E-01</totfact>
</mgrwt>
</event>
<event>
 6    1  0.1072514E-005  0.2122630E+04  0.7818608E-02  0.8551340E-01
         -1   -1    0    0    0  501 -0.00000000000E+00  0.00000000000E+00  0.46944443861E+03  0.46944443861E+03  0.00000000000E+00 0.  1.
          1   -1    0    0  501    0  0.00000000000E+00 -0.00000000000E+00 -0.23994097679E+04  0.23994097679E+04  0.00000000000E+00 0. -1.
         23    2    1    2    0    0 -0.46367287789E+03  0.83400173617E+03 -0.34441823515E+03  0.10183107670E+04  0.88212606579E+02 0.  0.
         13    1    3    3    0    0 -0.27113061570E+02  0.52166676612E+02  0.29128918928E+00  0.58792559952E+02  0.00000000000E+00 0. -1.
        -13    1    3    3    0    0 -0.43655981632E+03  0.78183505955E+03 -0.34470952433E+03  0.95951820709E+03  0.00000000000E+00 0.  1.
         22    1    1    2    0    0  0.46367287789E+03 -0.83400173617E+03 -0.15855470942E+04  0.18505434395E+04  0.00000000000E+00 0. -1.
<mgrwt>
<rscale>  0 0.21226300E+04</rscale>
<asrwt>0</asrwt>
<pdfrwt beam="1">  1        1 0.36913996E+00 0.21226300E+04</pdfrwt>
<pdfrwt beam="2">  1       -1 0.72222222E-01 0.21226300E+04</pdfrwt>
<totfact> 0.28234139E+00</totfact>
</mgrwt>
</event>
<event>
 6    1  0.1072514E-005  0.5796951E+04  0.7818608E-02  0.7716100E-01
          1   -1    0    0  501    0  0.00000000000E+00  0.00000000000E+00  0.35063734040E+04  0.35063734040E+04  0.00000000000E+00 0. -1.
         -1   -1    0    0    0  501 -0.00000000000E+00 -0.00000000000E+00 -0.23959682573E+04  0.23959682573E+04  0.00000000000E+00 0.  1.
         23    2    1    2    0    0 -0.80963933407E+03 -0.19078850191E+03  0.33816305909E+04  0.34835855509E+04  0.89592040277E+02 0.  0.
         13    1    3    3    0    0 -0.42067328868E+03 -0.88756566648E+02  0.15650919117E+04  0.16230700650E+04  0.00000000000E+00 0.  1.
        -13    1    3    3    0    0 -0.38896604539E+03 -0.10203193526E+03  0.18165386792E+04  0.18605154859E+04  0.00000000000E+00 0. -1.
         22    1    1    2    0    0  0.80963933407E+03  0.19078850191E+03 -0.22712254441E+04  0.24187561105E+04  0.00000000000E+00 0.  1.
<mgrwt>
<rscale>  0 0.57969507E+04</rscale>
<asrwt>0</asrwt>
<pdfrwt beam="1">  1        1 0.53944207E+00 0.57969507E+04</pdfrwt>
<pdfrwt beam="2">  1       -1 0.36861050E+00 0.57969507E+04</pdfrwt>
<totfact> 0.19545770E-03</totfact>
</mgrwt>
</event>
<event>
 6    1  0.1072514E-005  0.1443997E+04  0.7818608E-02  0.8922573E-01
          2   -1    0    0  501    0  0.00000000000E+00  0.00000000000E+00  0.38867366640E+03  0.38867366640E+03  0.00000000000E+00 0.  1.
         -2   -1    0    0    0  501 -0.00000000000E+00 -0.00000000000E+00 -0.13411806885E+04  0.13411806885E+04  0.00000000000E+00 0. -1.
         23    2    1    2    0    0 -0.47020642301E+03  0.37253378599E+03 -0.31314562723E+01  0.60682743316E+03  0.91401453355E+02 0.  0.
         11    1    3    3    0    0 -0.15964661225E+03  0.96303669137E+02 -0.36034426551E+02  0.18989449015E+03  0.00000000000E+00 0. -1.
        -11    1    3    3    0    0 -0.31055981076E+03  0.27623011686E+03  0.32902970279E+02  0.41693294301E+03  0.00000000000E+00 0.  1.
         22    1    1    2    0    0  0.47020642301E+03 -0.37253378599E+03 -0.94937556579E+03  0.11230269217E+04  0.00000000000E+00 0.  1.
<mgrwt>
<rscale>  0 0.14439967E+04</rscale>
<asrwt>0</asrwt>
<pdfrwt beam="1">  1        2 0.59795948E-01 0.14439967E+04</pdfrwt>
<pdfrwt beam="2">  1       -2 0.20633549E+00 0.14439967E+04</pdfrwt>
<totfact> 0.96281629E+00</totfact>
</mgrwt>
</event>
<event>
 6    1  0.1072514E-005  0.2129797E+04  0.7818608E-02  0.8548230E-01
         -2   -1    0    0    0  501 -0.00000000000E+00  0.00000000000E+00  0.10255937922E+04  0.10255937922E+04  0.00000000000E+00 0.  1.
          2   -1    0    0  501    0  0.00000000000E+00 -0.00000000000E+00 -0.11057099587E+04  0.11057099587E+04  0.00000000000E+00 0. -1.
         23    2    1    2    0    0  0.29909285056E+03 -0.36029914635E+03 -0.99502520411E+03  0.11035243216E+04  0.91753819950E+02 0.  0.
         11    1    3    3    0    0  0.10417399223E+02 -0.49669500988E+02 -0.14437304634E+03  0.15303319263E+03  0.00000000000E+00 0. -1.
        -11    1    3    3    0    0  0.28867545133E+03 -0.31062964536E+03 -0.85065215776E+03  0.95049112899E+03  0.00000000000E+00 0.  1.
         22    1    1    2    0    0 -0.29909285056E+03  0.36029914635E+03  0.91490903759E+03  0.10277794292E+04  0.00000000000E+00 0.  1.
<mgrwt>
<rscale>  0 0.21297974E+04</rscale>
<asrwt>0</asrwt>
<pdfrwt beam="1">  1        2 0.17010922E+00 0.21297974E+04</pdfrwt>
<pdfrwt beam="2">  1       -2 0.15778366E+00 0.21297974E+04</pdfrwt>
<totfact> 0.51974973E+00</totfact>
</mgrwt>
</event>
<event>
 6    1  0.1072514E-005  0.1067894E+04  0.7818608E-02  0.9237062E-01
         -2   -1    0    0    0  501 -0.00000000000E+00  0.00000000000E+00  0.19466696717E+03  0.19466696717E+03  0.00000000000E+00 0.  1.
          2   -1    0    0  501    0  0.00000000000E+00 -0.00000000000E+00 -0.14645487299E+04  0.14645487299E+04  0.00000000000E+00 0. -1.
         23    2    1    2    0    0  0.22412109017E+03 -0.44002960790E+03 -0.34001865955E+03  0.60636161908E+03  0.90583692579E+02 0.  0.
         11    1    3    3    0    0  0.68018355326E+02 -0.58091344298E+02 -0.61082108320E+02  0.10831493388E+03  0.00000000000E+00 0. -1.
        -11    1    3    3    0    0  0.15610273484E+03 -0.38193826360E+03 -0.27893655123E+03  0.49804668521E+03  0.00000000000E+00 0.  1.
         22    1    1    2    0    0 -0.22412109017E+03  0.44002960790E+03 -0.92986310313E+03  0.10528540779E+04  0.00000000000E+00 0. -1.
<mgrwt>
<rscale>  0 0.10678937E+04</rscale>
<asrwt>0</asrwt>
<pdfrwt beam="1">  1        2 0.22531519E+00 0.10678937E+04</pdfrwt>
<pdfrwt beam="2">  1       -2 0.29948763E-01 0.10678937E+04</pdfrwt>
<totfact> 0.13591758E+02</totfact>
</mgrwt>
</event>
<event>
 6    1  0.1072514E-005  0.5438056E+04  0.7818608E-02  0.7764271E-01
          2   -1    0    0  501    0  0.00000000000E+00  0.00000000000E+00  0.42517928378E+04  0.42517928378E+04  0.00000000000E+00 0.  1.
         -2   -1    0    0    0  501 -0.00000000000E+00 -0.00000000000E+00 -0.17388225619E+04  0.17388225619E+04  0.00000000000E+00 0. -1.
         23    2    1    2    0    0  0.91612815712E+03  0.17787036379E+04  0.32840719269E+04  0.38463963838E+04  0.80989437835E+02 0.  0.
         13    1    3    3    0    0  0.46028714683E+03  0.98112564414E+03  0.17870067693E+04  0.20899437745E+04  0.00000000000E+00 0. -1.
        -13    1    3    3    0    0  0.45584101028E+03  0.79757799372E+03  0.14970651576E+04  0.17564526093E+04  0.00000000000E+00 0.  1.
         22    1    1    2    0    0 -0.91612815712E+03 -0.17787036379E+04 -0.77110165104E+03  0.21442190158E+04  0.00000000000E+00 0. -1.
<mgrwt>
<rscale>  0 0.54380560E+04</rscale>
<asrwt>0</asrwt>
<pdfrwt beam="1">  1        2 0.65412197E+00 0.54380560E+04</pdfrwt>
<pdfrwt beam="2">  1       -2 0.26751116E+00 0.54380560E+04</pdfrwt>
<totfact> 0.73380913E-03</totfact>
</mgrwt>
</event>
<event>
 6    1  0.1414111E-005  0.3718849E+04  0.7818608E-02  0.8063798E-01
         -1   -1    0    0    0  501 -0.00000000000E+00  0.00000000000E+00  0.12870892450E+04  0.12870892450E+04  0.00000000000E+00 0.  1.
          1   -1    0    0  501    0  0.00000000000E+00 -0.00000000000E+00 -0.26862617009E+04  0.26862617009E+04  0.00000000000E+00 0. -1.
         23    2    1    2    0    0 -0.87051171348E+03  0.12763422863E+04 -0.18030618210E+04  0.23764893695E+04  0.99143924480E+02 0.  0.
         13    1    3    3    0    0 -0.61909903203E+03  0.83517012019E+03 -0.11769288489E+04  0.15703357146E+04  0.00000000000E+00 0. -1.
        -13    1    3    3    0    0 -0.25141268145E+03  0.44117216610E+03 -0.62613297204E+03  0.80615365484E+03  0.00000000000E+00 0.  1.
         22    1    1    2    0    0  0.87051171348E+03 -0.12763422863E+04  0.40388936509E+03  0.15968615764E+04  0.00000000000E+00 0.  1.
<mgrwt>
<rscale>  0 0.37188485E+04</rscale>
<asrwt>0</asrwt>
<pdfrwt beam="1">  1        1 0.41327102E+00 0.37188485E+04</pdfrwt>
<pdfrwt beam="2">  1       -1 0.19801373E+00 0.37188485E+04</pdfrwt>
<totfact> 0.12485052E-01</totfact>
</mgrwt>
</event>
<event>
 6    1  0.1072514E-005  0.5295456E+04  0.7818608E-02  0.7784479E-01
          2   -1    0    0  501    0  0.00000000000E+00  0.00000000000E+00  0.21648986459E+04  0.21648986459E+04  0.00000000000E+00 0. -1.
         -2   -1    0    0    0  501 -0.00000000000E+00 -0.00000000000E+00 -0.32382412837E+04  0.32382412837E+04  0.00000000000E+00 0.  1.
         23    2    1    2    0    0 -0.95826500183E+03 -0.30400034122E+02  0.19806015526E+04  0.22022383232E+04  0.88742020876E+02 0.  0.
         13    1    3    3    0    0 -0.50186260178E+03 -0.19239667835E+02  0.11381848165E+04  0.12440662814E+04  0.00000000000E+00 0. -1.
        -13    1    3    3    0    0 -0.45640240006E+03 -0.11160366287E+02  0.84241673608E+03  0.95817204185E+03  0.00000000000E+00 0.  1.
         22    1    1    2    0    0  0.95826500183E+03  0.30400034122E+02 -0.30539441904E+04  0.32009016064E+04  0.00000000000E+00 0.  1.
<mgrwt>
<rscale>  0 0.52954562E+04</rscale>
<asrwt>0</asrwt>
<pdfrwt beam="1">  1        2 0.33306133E+00 0.52954562E+04</pdfrwt>
<pdfrwt beam="2">  1       -2 0.49819096E+00 0.52954562E+04</pdfrwt>
<totfact> 0.65590244E-03</totfact>
</mgrwt>
</event>
<event>
 6    1  0.1072514E-005  0.5966918E+04  0.7818608E-02  0.7694517E-01
          2   -1    0    0  501    0  0.00000000000E+00  0.00000000000E+00  0.40684533533E+04  0.40684533533E+04  0.00000000000E+00 0. -1.
         -2   -1    0    0    0  501 -0.00000000000E+00 -0.00000000000E+00 -0.21878160600E+04  0.21878160600E+04  0.00000000000E+00 0.  1.
         23    2    1    2    0    0 -0.16051269456E+03 -0.29431578403E+04  0.46133792178E+03  0.29848243039E+04  0.91657238832E+02 0.  0.
         11    1    3    3    0    0 -0.81779898411E+02 -0.80233047943E+03  0.14145729771E+03  0.81879931429E+03  0.00000000000E+00 0.  1.
        -11    1    3    3    0    0 -0.78732796149E+02 -0.21408273608E+04  0.31988062407E+03  0.21660249896E+04  0.00000000000E+00 0. -1.
         22    1    1    2    0    0  0.16051269456E+03  0.29431578403E+04  0.14192993716E+04  0.32714451094E+04  0.00000000000E+00 0.  1.
<mgrwt>
<rscale>  0 0.59669180E+04</rscale>
<asrwt>0</asrwt>
<pdfrwt beam="1">  1        2 0.62591590E+00 0.59669180E+04</pdfrwt>
<pdfrwt beam="2">  1       -2 0.33658709E+00 0.59669180E+04</pdfrwt>
<totfact> 0.38089514E-03</totfact>
</mgrwt>
</event>
<event>
 6    1  0.1072514E-005  0.1464443E+04  0.7818608E-02  0.8908448E-01
         -1   -1    0    0    0  501 -0.00000000000E+00  0.00000000000E+00  0.19819851320E+03  0.19819851320E+03  0.00000000000E+00 0.  1.
          1   -1    0    0  501    0  0.00000000000E+00 -0.00000000000E+00 -0.27051081238E+04  0.27051081238E+04  0.00000000000E+00 0. -1.
         23    2    1    2    0    0 -0.38182264191E+02  0.59089256132E+03 -0.21025616975E+04  0.21862925931E+04  0.92183005370E+02 0.  0.
         13    1    3    3    0    0 -0.62841082212E+02  0.42017854538E+03 -0.14132841634E+04  0.14757612063E+04  0.00000000000E+00 0. -1.
        -13    1    3    3    0    0  0.24658818020E+02  0.17071401594E+03 -0.68927753414E+03  0.71053138679E+03  0.00000000000E+00 0.  1.
         22    1    1    2    0    0  0.38182264191E+02 -0.59089256132E+03 -0.40434791308E+03  0.71701404388E+03  0.00000000000E+00 0.  1.
<mgrwt>
<rscale>  0 0.14644431E+04</rscale>
<asrwt>0</asrwt>
<pdfrwt beam="1">  1        1 0.41617049E+00 0.14644431E+04</pdfrwt>
<pdfrwt beam="2">  1       -1 0.30492078E-01 0.14644431E+04</pdfrwt>
<totfact> 0.94026736E+00</totfact>
</mgrwt>
</event>
<event>
 6    1  0.1072514E-005  0.2671785E+04  0.7818608E-02  0.8344218E-01
          2   -1    0    0  501    0  0.00000000000E+00  0.00000000000E+00  0.12398983931E+04  0.12398983931E+04  0.00000000000E+00 0. -1.
         -2   -1    0    0    0  501 -0.00000000000E+00 -0.00000000000E+00 -0.14393181799E+04  0.14393181799E+04  0.00000000000E+00 0.  1.
         23    2    1    2    0    0  0.95853446490E+03 -0.64000413370E+03  0.57424747699E+03  0.12910686534E+04  0.93297863334E+02 0.  0.
         13    1    3    3    0    0  0.39389483594E+03 -0.31193535372E+03  0.27429308814E+03  0.57244519814E+03  0.00000000000E+00 0.  1.
        -13    1    3    3    0    0  0.56463962897E+03 -0.32806877998E+03  0.29995438886E+03  0.71862345522E+03  0.00000000000E+00 0. -1.
         22    1    1    2    0    0 -0.95853446490E+03  0.64000413370E+03 -0.77366726378E+03  0.13881479196E+04  0.00000000000E+00 0.  1.
<mgrwt>
<rscale>  0 0.26717846E+04</rscale>
<asrwt>0</asrwt>
<pdfrwt beam="1">  1        2 0.19075360E+00 0.26717846E+04</pdfrwt>
<pdfrwt beam="2">  1       -2 0.22143357E+00 0.26717846E+04</pdfrwt>
<totfact> 0.15262637E+00</totfact>
</mgrwt>
</event>
<event>
 6    1  0.1072514E-005  0.4316832E+04  0.7818608E-02  0.7943513E-01
          1   -1    0    0  501    0  0.00000000000E+00  0.00000000000E+00  0.36151511647E+04  0.36151511647E+04  0.00000000000E+00 0. -1.
         -1   -1    0    0    0  501 -0.00000000000E+00 -0.00000000000E+00 -0.12886761318E+04  0.12886761318E+04  0.00000000000E+00 0.  1.
         23    2    1    2    0    0 -0.13365430518E+04  0.85445824513E+03  0.28248184921E+04  0.32410607990E+04  0.91811588116E+02 0.  0.
         13    1    3    3    0    0 -0.36884249746E+03  0.24842800449E+03  0.71244557274E+03  0.83984519732E+03  0.00000000000E+00 0.  1.
        -13    1    3    3    0    0 -0.96770055430E+03  0.60603024064E+03  0.21123729193E+04  0.24012156017E+04  0.00000000000E+00 0. -1.
         22    1    1    2    0    0  0.13365430518E+04 -0.85445824513E+03 -0.49834345916E+03  0.16627664975E+04  0.00000000000E+00 0.  1.
<mgrwt>
<rscale>  0 0.43168317E+04</rscale>
<asrwt>0</asrwt>
<pdfrwt beam="1">  1        1 0.55617710E+00 0.43168317E+04</pdfrwt>
<pdfrwt beam="2">  1       -1 0.19825787E+00 0.43168317E+04</pdfrwt>
<totfact> 0.23826707E-02</totfact>
</mgrwt>
</event>
<event>
 6    1  0.1072514E-005  0.2236581E+04  0.7818608E-02  0.8503355E-01
         -1   -1    0    0    0  501 -0.00000000000E+00  0.00000000000E+00  0.11093592909E+04  0.11093592909E+04  0.00000000000E+00 0.  1.
          1   -1    0    0  501    0  0.00000000000E+00 -0.00000000000E+00 -0.11272935426E+04  0.11272935426E+04  0.00000000000E+00 0. -1.
         23    2    1    2    0    0 -0.43147538996E+03  0.27915184629E+03  0.98211914910E+03  0.11122847577E+04  0.92317895068E+02 0.  0.
         11    1    3    3    0    0 -0.23479267008E+03  0.18567479018E+03  0.64307580468E+03  0.70933011793E+03  0.00000000000E+00 0.  1.
        -11    1    3    3    0    0 -0.19668271988E+03  0.93477056115E+02  0.33904334442E+03  0.40295463977E+03  0.00000000000E+00 0. -1.
         22    1    1    2    0    0  0.43147538996E+03 -0.27915184629E+03 -0.10000534008E+04  0.11243680758E+04  0.00000000000E+00 0. -1.
<mgrwt>
<rscale>  0 0.22365809E+04</rscale>
<asrwt>0</asrwt>
<pdfrwt beam="1">  1        1 0.17342978E+00 0.22365809E+04</pdfrwt>
<pdfrwt beam="2">  1       -1 0.17067066E+00 0.22365809E+04</pdfrwt>
<totfact> 0.26742936E+00</totfact>
</mgrwt>
</event>
<event>
 6    1  0.1072514E-005  0.4258213E+03  0.7818608E-02  0.1035188E+00
         -1   -1    0    0    0  501 -0.00000000000E+00  0.00000000000E+00  0.21112838161E+03  0.21112838161E+03  0.00000000000E+00 0.  1.
          1   -1    0    0  501    0  0.00000000000E+00 -0.00000000000E+00 -0.21470794303E+03  0.21470794303E+03  0.00000000000E+00 0. -1.
         23    2    1    2    0    0 -0.60326222403E+02 -0.54178712042E+01  0.19194259651E+03  0.22114748595E+03  0.91627745510E+02 0.  0.
         11    1    3    3    0    0 -0.35348577692E+02 -0.91858939212E+01  0.19244720921E+03  0.19588218634E+03  0.00000000000E+00 0.  1.
        -11    1    3    3    0    0 -0.24977644711E+02  0.37680227170E+01 -0.50461269518E+00  0.25265299612E+02  0.00000000000E+00 0. -1.
         22    1    1    2    0    0  0.60326222403E+02  0.54178712042E+01 -0.19552215794E+03  0.20468883869E+03  0.00000000000E+00 0. -1.
<mgrwt>
<rscale>  0 0.42582128E+03</rscale>
<asrwt>0</asrwt>
<pdfrwt beam="1">  1        1 0.33031991E-01 0.42582128E+03</pdfrwt>
<pdfrwt beam="2">  1       -1 0.32481290E-01 0.42582128E+03</pdfrwt>
<totfact> 0.11994882E+03</totfact>
</mgrwt>
</event>
<event>
 6    1  0.1072514E-005  0.2068948E+04  0.7818608E-02  0.8575047E-01
          2   -1    0    0  501    0  0.00000000000E+00  0.00000000000E+00  0.16382990645E+04  0.16382990645E+04  0.00000000000E+00 0. -1.
         -2   -1    0    0    0  501 -0.00000000000E+00 -0.00000000000E+00 -0.65319970446E+03  0.65319970446E+03  0.00000000000E+00 0.  1.
         23    2    1    2    0    0 -0.82202162991E+03  0.61437327770E+03  0.62932843265E+03  0.12053371617E+04  0.60077555919E+02 0.  0.
         11    1    3    3    0    0 -0.12006104164E+03  0.10669834416E+03  0.11891688130E+03  0.19985098205E+03  0.00000000000E+00 0. -1.
        -11    1    3    3    0    0 -0.70196058826E+03  0.50767493354E+03  0.51041155135E+03  0.10054861796E+04  0.00000000000E+00 0.  1.
         22    1    1    2    0    0  0.82202162991E+03 -0.61437327770E+03  0.35577092737E+03  0.10861616073E+04  0.00000000000E+00 0.  1.
<mgrwt>
<rscale>  0 0.20689480E+04</rscale>
<asrwt>0</asrwt>
<pdfrwt beam="1">  1        2 0.25204601E+00 0.20689480E+04</pdfrwt>
<pdfrwt beam="2">  1       -2 0.10049226E+00 0.20689480E+04</pdfrwt>
<totfact> 0.80074530E+00</totfact>
</mgrwt>
</event>
<event>
 6    1  0.1072514E-005  0.1904823E+04  0.7818608E-02  0.8652460E-01
         -2   -1    0    0    0  501 -0.00000000000E+00  0.00000000000E+00  0.55734883624E+03  0.55734883624E+03  0.00000000000E+00 0.  1.
          2   -1    0    0  501    0  0.00000000000E+00 -0.00000000000E+00 -0.16275039095E+04  0.16275039095E+04  0.00000000000E+00 0. -1.
         23    2    1    2    0    0 -0.33678341519E+03  0.14837189231E+03 -0.15411499908E+04  0.15871291479E+04  0.91642515008E+02 0.  0.
         13    1    3    3    0    0 -0.23712270785E+03  0.71925544798E+02 -0.88342658088E+03  0.91752001961E+03  0.00000000000E+00 0.  1.
        -13    1    3    3    0    0 -0.99660707333E+02  0.76446347512E+02 -0.65772340996E+03  0.66960912825E+03  0.00000000000E+00 0. -1.
         22    1    1    2    0    0  0.33678341519E+03 -0.14837189231E+03  0.47099491753E+03  0.59772359792E+03  0.00000000000E+00 0.  1.
<mgrwt>
<rscale>  0 0.19048227E+04</rscale>
<asrwt>0</asrwt>
<pdfrwt beam="1">  1        2 0.25038522E+00 0.19048227E+04</pdfrwt>
<pdfrwt beam="2">  1       -2 0.85745974E-01 0.19048227E+04</pdfrwt>
<totfact> 0.11902066E+01</totfact>
</mgrwt>
</event>
<event>
 6    1  0.1072514E-005  0.5923044E+04  0.7818608E-02  0.7700017E-01
         -2   -1    0    0    0  501 -0.00000000000E+00  0.00000000000E+00  0.29555991309E+04  0.29555991309E+04  0.00000000000E+00 0.  1.
          2   -1    0    0  501    0  0.00000000000E+00 -0.00000000000E+00 -0.29674563366E+04  0.29674563366E+04  0.00000000000E+00 0. -1.
         23    2    1    2    0    0  0.16940976254E+04  0.20307022619E+04  0.13255029630E+04  0.29595692331E+04  0.91506829406E+02 0.  0.
         11    1    3    3    0    0  0.10698296216E+03  0.10487445318E+03  0.92130399153E+02  0.17587499985E+03  0.00000000000E+00 0.  1.
        -11    1    3    3    0    0  0.15871146632E+04  0.19258278087E+04  0.12333725639E+04  0.27836942333E+04  0.00000000000E+00 0. -1.
         22    1    1    2    0    0 -0.16940976254E+04 -0.20307022619E+04 -0.13373601686E+04  0.29634862344E+04  0.00000000000E+00 0. -1.
<mgrwt>
<rscale>  0 0.59230436E+04</rscale>
<asrwt>0</asrwt>
<pdfrwt beam="1">  1        2 0.45653174E+00 0.59230436E+04</pdfrwt>
<pdfrwt beam="2">  1       -2 0.45470756E+00 0.59230436E+04</pdfrwt>
<totfact> 0.40109974E-03</totfact>
</mgrwt>
</event>
<event>
 6    1  0.1072514E-005  0.2402758E+04  0.7818608E-02  0.8438472E-01
         -2   -1    0    0    0  501 -0.00000000000E+00  0.00000000000E+00  0.63022773216E+03  0.63022773216E+03  0.00000000000E+00 0.  1.
          2   -1    0    0  501    0  0.00000000000E+00 -0.00000000000E+00 -0.22901434156E+04  0.22901434156E+04  0.00000000000E+00 0. -1.
         23    2    1    2    0    0  0.12311094167E+03 -0.11061185579E+04 -0.13752919842E+04  0.17716043227E+04  0.92191466079E+02 0.  0.
         13    1    3    3    0    0  0.93326951866E+02 -0.62601109788E+03 -0.71883385558E+03  0.95776924494E+03  0.00000000000E+00 0.  1.
        -13    1    3    3    0    0  0.29783989805E+02 -0.48010746000E+03 -0.65645812865E+03  0.81383507781E+03  0.00000000000E+00 0. -1.
         22    1    1    2    0    0 -0.12311094167E+03  0.11061185579E+04 -0.28462369917E+03  0.11487668250E+04  0.00000000000E+00 0.  1.
<mgrwt>
<rscale>  0 0.24027583E+04</rscale>
<asrwt>0</asrwt>
<pdfrwt beam="1">  1        2 0.35232976E+00 0.24027583E+04</pdfrwt>
<pdfrwt beam="2">  1       -2 0.96958112E-01 0.24027583E+04</pdfrwt>
<totfact> 0.36676708E+00</totfact>
</mgrwt>
</event>
<event>
 6    1  0.1072514E-005  0.2997145E+04  0.7818608E-02  0.8244547E-01
          2   -1    0    0  501    0  0.00000000000E+00  0.00000000000E+00  0.13225745377E+04  0.13225745377E+04  0.00000000000E+00 0. -1.
         -2   -1    0    0    0  501 -0.00000000000E+00 -0.00000000000E+00 -0.16979908093E+04  0.16979908093E+04  0.00000000000E+00 0.  1.
         23    2    1    2    0    0  0.10298413046E+04 -0.32577413855E+03 -0.12326224905E+04  0.16416148751E+04  0.94017508569E+02 0.  0.
         11    1    3    3    0    0  0.26103701205E+03 -0.11951846093E+03 -0.29418063357E+03  0.41105623621E+03  0.00000000000E+00 0.  1.
        -11    1    3    3    0    0  0.76880429258E+03 -0.20625567762E+03 -0.93844185698E+03  0.12305586389E+04  0.00000000000E+00 0. -1.
         22    1    1    2    0    0 -0.10298413046E+04  0.32577413855E+03  0.85720621897E+03  0.13789504719E+04  0.00000000000E+00 0.  1.
<mgrwt>
<rscale>  0 0.29971449E+04</rscale>
<asrwt>0</asrwt>
<pdfrwt beam="1">  1        2 0.20347301E+00 0.29971449E+04</pdfrwt>
<pdfrwt beam="2">  1       -2 0.26122935E+00 0.29971449E+04</pdfrwt>
<totfact> 0.75300322E-01</totfact>
</mgrwt>
</event>
<event>
 6    1  0.1072514E-005  0.3405209E+04  0.7818608E-02  0.8136629E-01
          2   -1    0    0  501    0  0.00000000000E+00  0.00000000000E+00  0.32378092929E+04  0.32378092929E+04  0.00000000000E+00 0.  1.
         -2   -1    0    0    0  501 -0.00000000000E+00 -0.00000000000E+00 -0.89531570090E+03  0.89531570090E+03  0.00000000000E+00 0. -1.
         23    2    1    2    0    0  0.63305100640E+03  0.15007908086E+04  0.17687469730E+04  0.24061878755E+04  0.90264111663E+02 0.  0.
         11    1    3    3    0    0  0.21855956833E+03  0.46556791805E+03  0.50499990163E+03  0.72079586005E+03  0.00000000000E+00 0. -1.
        -11    1    3    3    0    0  0.41449143807E+03  0.10352228905E+04  0.12637470713E+04  0.16853920154E+04  0.00000000000E+00 0.  1.
         22    1    1    2    0    0 -0.63305100640E+03 -0.15007908086E+04  0.57374661905E+03  0.17269371183E+04  0.00000000000E+00 0. -1.
<mgrwt>
<rscale>  0 0.34052087E+04</rscale>
<asrwt>0</asrwt>
<pdfrwt beam="1">  1        2 0.49812450E+00 0.34052087E+04</pdfrwt>
<pdfrwt beam="2">  1       -2 0.13774088E+00 0.34052087E+04</pdfrwt>
<totfact> 0.37957007E-01</totfact>
</mgrwt>
</event>
<event>
 6    1  0.1072514E-005  0.2178582E+04  0.7818608E-02  0.8527396E-01
          2   -1    0    0  501    0  0.00000000000E+00  0.00000000000E+00  0.16676335057E+04  0.16676335057E+04  0.00000000000E+00 0. -1.
         -2   -1    0    0    0  501 -0.00000000000E+00 -0.00000000000E+00 -0.71151994967E+03  0.71151994967E+03  0.00000000000E+00 0.  1.
         23    2    1    2    0    0  0.90770496954E+03 -0.20558885283E+03  0.10928647720E+04  0.14384643551E+04  0.92904267962E+02 0.  0.
         13    1    3    3    0    0  0.34739190636E+03 -0.92195787084E+02  0.48954737252E+03  0.60732020360E+03  0.00000000000E+00 0. -1.
        -13    1    3    3    0    0  0.56031306318E+03 -0.11339306574E+03  0.60331739949E+03  0.83114415155E+03  0.00000000000E+00 0.  1.
         22    1    1    2    0    0 -0.90770496954E+03  0.20558885283E+03 -0.13675121602E+03  0.94068910019E+03  0.00000000000E+00 0.  1.
<mgrwt>
<rscale>  0 0.21785817E+04</rscale>
<asrwt>0</asrwt>
<pdfrwt beam="1">  1        2 0.25655900E+00 0.21785817E+04</pdfrwt>
<pdfrwt beam="2">  1       -2 0.10946461E+00 0.21785817E+04</pdfrwt>
<totfact> 0.62236237E+00</totfact>
</mgrwt>
</event>
<event>
 6    1  0.1072514E-005  0.1275064E+04  0.7818608E-02  0.9049577E-01
         -2   -1    0    0    0  501 -0.00000000000E+00  0.00000000000E+00  0.17312583268E+03  0.17312583268E+03  0.00000000000E+00 0.  1.
          2   -1    0    0  501    0  0.00000000000E+00 -0.00000000000E+00 -0.23476978837E+04  0.23476978837E+04  0.00000000000E+00 0. -1.
         23    2    1    2    0    0  0.31098493021E+03  0.19281811410E+03 -0.69683053436E+02  0.38436680267E+03  0.94824359287E+02 0.  0.
         11    1    3    3    0    0  0.53139636157E+02  0.19536395188E+02  0.21559444609E+02  0.60583011808E+02  0.00000000000E+00 0.  1.
        -11    1    3    3    0    0  0.25784529406E+03  0.17328171891E+03 -0.91242498045E+02  0.32378379086E+03  0.00000000000E+00 0. -1.
         22    1    1    2    0    0 -0.31098493021E+03 -0.19281811410E+03 -0.21048889976E+04  0.21364569137E+04  0.00000000000E+00 0. -1.
<mgrwt>
<rscale>  0 0.12750642E+04</rscale>
<asrwt>0</asrwt>
<pdfrwt beam="1">  1        2 0.36118429E+00 0.12750642E+04</pdfrwt>
<pdfrwt beam="2">  1       -2 0.26634743E-01 0.12750642E+04</pdfrwt>
<totfact> 0.53632942E+01</totfact>
</mgrwt>
</event>
<event>
 6    1  0.1072514E-005  0.3288346E+04  0.7818608E-02  0.8165867E-01
         -1   -1    0    0    0  501 -0.00000000000E+00  0.00000000000E+00  0.21094230590E+04  0.21094230590E+04  0.00000000000E+00 0.  1.
          1   -1    0    0  501    0  0.00000000000E+00 -0.00000000000E+00 -0.12815371707E+04  0.12815371707E+04  0.00000000000E+00 0. -1.
         23    2    1    2    0    0  0.15595198268E+04  0.22711077323E+03 -0.64343790594E+02  0.15799507892E+04  0.91776792593E+02 0.  0.
         13    1    3    3    0    0  0.47972923574E+03  0.10269489474E+03  0.73645416639E+01  0.49065325588E+03  0.00000000000E+00 0.  1.
        -13    1    3    3    0    0  0.10797905910E+04  0.12441587849E+03 -0.71708332258E+02  0.10892975334E+04  0.00000000000E+00 0. -1.
         22    1    1    2    0    0 -0.15595198268E+04 -0.22711077323E+03  0.89222967885E+03  0.18110094404E+04  0.00000000000E+00 0.  1.
<mgrwt>
<rscale>  0 0.32883455E+04</rscale>
<asrwt>0</asrwt>
<pdfrwt beam="1">  1        1 0.19715956E+00 0.32883455E+04</pdfrwt>
<pdfrwt beam="2">  1       -1 0.32452662E+00 0.32883455E+04</pdfrwt>
<totfact> 0.17701205E-01</totfact>
</mgrwt>
</event>
<event>
 6    1  0.1072514E-005  0.9796493E+03  0.7818608E-02  0.9331151E-01
         -1   -1    0    0    0  501 -0.00000000000E+00  0.00000000000E+00  0.15116879109E+03  0.15116879109E+03  0.00000000000E+00 0.  1.
          1   -1    0    0  501    0  0.00000000000E+00 -0.00000000000E+00 -0.15871543327E+04  0.15871543327E+04  0.00000000000E+00 0. -1.
         23    2    1    2    0    0 -0.37480159780E+03 -0.24818864046E+03 -0.39872400480E+03  0.60784298919E+03  0.91751994755E+02 0.  0.
         13    1    3    3    0    0 -0.28601918036E+03 -0.18624853994E+03 -0.35083447087E+03  0.48946942306E+03  0.00000000000E+00 0. -1.
        -13    1    3    3    0    0 -0.88782417432E+02 -0.61940100518E+02 -0.47889533933E+02  0.11837356613E+03  0.00000000000E+00 0.  1.
         22    1    1    2    0    0  0.37480159780E+03  0.24818864046E+03 -0.10372615368E+04  0.11304801346E+04  0.00000000000E+00 0. -1.
<mgrwt>
<rscale>  0 0.97964933E+03</rscale>
<asrwt>0</asrwt>
<pdfrwt beam="1">  1        1 0.24417759E+00 0.97964933E+03</pdfrwt>
<pdfrwt beam="2">  1       -1 0.23256737E-01 0.97964933E+03</pdfrwt>
<totfact> 0.90676966E+01</totfact>
</mgrwt>
</event>
<event>
 6    1  0.1100037E-005  0.3439267E+04  0.7818608E-02  0.8128336E-01
          1   -1    0    0  501    0  0.00000000000E+00  0.00000000000E+00  0.15886663983E+04  0.15886663983E+04  0.00000000000E+00 0. -1.
         -1   -1    0    0    0  501 -0.00000000000E+00 -0.00000000000E+00 -0.18613973444E+04  0.18613973444E+04  0.00000000000E+00 0.  1.
         23    2    1    2    0    0  0.38758455523E+03 -0.13151113618E+04 -0.11757290043E+04  0.18083740112E+04  0.90211925320E+02 0.  0.
         11    1    3    3    0    0  0.12402671686E+03 -0.56960201323E+03 -0.51847242053E+03  0.78015558116E+03  0.00000000000E+00 0.  1.
        -11    1    3    3    0    0  0.26355783837E+03 -0.74550934859E+03 -0.65725658373E+03  0.10282184300E+04  0.00000000000E+00 0. -1.
         22    1    1    2    0    0 -0.38758455523E+03  0.13151113618E+04  0.90299805819E+03  0.16416897315E+04  0.00000000000E+00 0. -1.
<mgrwt>
<rscale>  0 0.34392670E+04</rscale>
<asrwt>0</asrwt>
<pdfrwt beam="1">  1        1 0.24441021E+00 0.34392670E+04</pdfrwt>
<pdfrwt beam="2">  1       -1 0.28636882E+00 0.34392670E+04</pdfrwt>
<totfact> 0.18853902E-01</totfact>
</mgrwt>
</event>
<event>
 6    1  0.1072514E-005  0.4472328E+04  0.7818608E-02  0.7915499E-01
          2   -1    0    0  501    0  0.00000000000E+00  0.00000000000E+00  0.28281871140E+04  0.28281871140E+04  0.00000000000E+00 0. -1.
         -2   -1    0    0    0  501 -0.00000000000E+00 -0.00000000000E+00 -0.17680684832E+04  0.17680684832E+04  0.00000000000E+00 0.  1.
         23    2    1    2    0    0 -0.99511734649E+03  0.17646751541E+04  0.15006862484E+04  0.25229884272E+04  0.95259934195E+02 0.  0.
         11    1    3    3    0    0 -0.74415756182E+03  0.12365176969E+04  0.10852361659E+04  0.18056810426E+04  0.00000000000E+00 0.  1.
        -11    1    3    3    0    0 -0.25095978467E+03  0.52815745713E+03  0.41545008245E+03  0.71730738464E+03  0.00000000000E+00 0. -1.
         22    1    1    2    0    0  0.99511734649E+03 -0.17646751541E+04 -0.44056761763E+03  0.20732671700E+04  0.00000000000E+00 0.  1.
<mgrwt>
<rscale>  0 0.44723276E+04</rscale>
<asrwt>0</asrwt>
<pdfrwt beam="1">  1        2 0.43510571E+00 0.44723276E+04</pdfrwt>
<pdfrwt beam="2">  1       -2 0.27201054E+00 0.44723276E+04</pdfrwt>
<totfact> 0.79520876E-02</totfact>
</mgrwt>
</event>
<event>
 6    1  0.1072514E-005  0.2818460E+03  0.7818608E-02  0.1094685E+00
          2   -1    0    0  501    0  0.00000000000E+00  0.00000000000E+00  0.57092289887E+03  0.57092289887E+03  0.00000000000E+00 0. -1.
         -2   -1    0    0    0  501 -0.00000000000E+00 -0.00000000000E+00 -0.34784530671E+02  0.34784530671E+02  0.00000000000E+00 0.  1.
         23    2    1    2    0    0  0.37816540709E+02  0.10881766833E+03  0.18525540899E+03  0.23639695480E+03  0.91063593081E+02 0.  0.
         11    1    3    3    0    0  0.71035263157E+01  0.62239900880E+02  0.16591551131E+03  0.17734774383E+03  0.00000000000E+00 0. -1.
        -11    1    3    3    0    0  0.30713014393E+02  0.46577767452E+02  0.19339897683E+02  0.59049210971E+02  0.00000000000E+00 0.  1.
         22    1    1    2    0    0 -0.37816540709E+02 -0.10881766833E+03  0.35088295921E+03  0.36931047474E+03  0.00000000000E+00 0. -1.
<mgrwt>
<rscale>  0 0.28184595E+03</rscale>
<asrwt>0</asrwt>
<pdfrwt beam="1">  1        2 0.87834286E-01 0.28184595E+03</pdfrwt>
<pdfrwt beam="2">  1       -2 0.53514667E-02 0.28184595E+03</pdfrwt>
<totfact> 0.94005747E+03</totfact>
</mgrwt>
</event>
<event>
 6    1  0.1072514E-005  0.1075683E+04  0.7818608E-02  0.9229223E-01
          2   -1    0    0  501    0  0.00000000000E+00  0.00000000000E+00  0.52066408178E+03  0.52066408178E+03  0.00000000000E+00 0. -1.
         -2   -1    0    0    0  501 -0.00000000000E+00 -0.00000000000E+00 -0.55558540984E+03  0.55558540984E+03  0.00000000000E+00 0.  1.
         23    2    1    2    0    0 -0.39250734410E+03  0.36098538329E+03  0.42423488772E+01  0.54154746646E+03  0.94250722972E+02 0.  0.
         11    1    3    3    0    0 -0.34738475179E+03  0.33505389147E+03  0.29824989601E+02  0.48355641447E+03  0.00000000000E+00 0.  1.
        -11    1    3    3    0    0 -0.45122592309E+02  0.25931491819E+02 -0.25582640723E+02  0.57991051991E+02  0.00000000000E+00 0. -1.
         22    1    1    2    0    0  0.39250734410E+03 -0.36098538329E+03 -0.39163676943E+02  0.53470202516E+03  0.00000000000E+00 0. -1.
<mgrwt>
<rscale>  0 0.10756828E+04</rscale>
<asrwt>0</asrwt>
<pdfrwt beam="1">  1        2 0.80102166E-01 0.10756828E+04</pdfrwt>
<pdfrwt beam="2">  1       -2 0.85474678E-01 0.10756828E+04</pdfrwt>
<totfact> 0.69513215E+01</totfact>
</mgrwt>
</event>
<event>
 6    1  0.1072514E-005  0.4337119E+04  0.7818608E-02  0.7939790E-01
          2   -1    0    0  501    0  0.00000000000E+00  0.00000000000E+00  0.24228678698E+04  0.24228678698E+04  0.00000000000E+00 0. -1.
         -2   -1    0    0    0  501 -0.00000000000E+00 -0.00000000000E+00 -0.19409437836E+04  0.19409437836E+04  0.00000000000E+00 0.  1.
         23    2    1    2    0    0 -0.14168802511E+04 -0.13622758467E+03 -0.14036949430E+04  0.20012565273E+04  0.92523479075E+02 0.  0.
         11    1    3    3    0    0 -0.76871860765E+03 -0.11239765911E+03 -0.80083783709E+03  0.11157521108E+04  0.00000000000E+00 0. -1.
        -11    1    3    3    0    0 -0.64816164341E+03 -0.23829925563E+02 -0.60285710595E+03  0.88550441644E+03  0.00000000000E+00 0.  1.
         22    1    1    2    0    0  0.14168802511E+04  0.13622758467E+03  0.18856190292E+04  0.23625551261E+04  0.00000000000E+00 0. -1.
<mgrwt>
<rscale>  0 0.43371190E+04</rscale>
<asrwt>0</asrwt>
<pdfrwt beam="1">  1        2 0.37274890E+00 0.43371190E+04</pdfrwt>
<pdfrwt beam="2">  1       -2 0.29860674E+00 0.43371190E+04</pdfrwt>
<totfact> 0.95987163E-02</totfact>
</mgrwt>
</event>
<event>
 6    1  0.1072514E-005  0.3369493E+04  0.7818608E-02  0.8145435E-01
         -1   -1    0    0    0  501 -0.00000000000E+00  0.00000000000E+00  0.16656361822E+04  0.16656361822E+04  0.00000000000E+00 0.  1.
          1   -1    0    0  501    0  0.00000000000E+00 -0.00000000000E+00 -0.17040759478E+04  0.17040759478E+04  0.00000000000E+00 0. -1.
         23    2    1    2    0    0 -0.97844116286E+03 -0.69916857672E+01 -0.13893146231E+04  0.17017016764E+04  0.90539939328E+02 0.  0.
         11    1    3    3    0    0 -0.44618745288E+03 -0.37773123109E+02 -0.58429539670E+03  0.73614615569E+03  0.00000000000E+00 0.  1.
        -11    1    3    3    0    0 -0.53225370998E+03  0.30781437341E+02 -0.80501922636E+03  0.96555552067E+03  0.00000000000E+00 0. -1.
         22    1    1    2    0    0  0.97844116286E+03  0.69916857672E+01  0.13508748575E+04  0.16680104536E+04  0.00000000000E+00 0.  1.
<mgrwt>
<rscale>  0 0.33694929E+04</rscale>
<asrwt>0</asrwt>
<pdfrwt beam="1">  1        1 0.26216553E+00 0.33694929E+04</pdfrwt>
<pdfrwt beam="2">  1       -1 0.25625172E+00 0.33694929E+04</pdfrwt>
<totfact> 0.24790468E-01</totfact>
</mgrwt>
</event>
<event>
 6    1  0.1072514E-005  0.1426901E+04  0.7818608E-02  0.8934573E-01
         -1   -1    0    0    0  501 -0.00000000000E+00  0.00000000000E+00  0.16109392929E+04  0.16109392929E+04  0.00000000000E+00 0.  1.
          1   -1    0    0  501    0  0.00000000000E+00 -0.00000000000E+00 -0.31597210975E+03  0.31597210975E+03  0.00000000000E+00 0. -1.
         23    2    1    2    0    0  0.11410126979E+03 -0.26680989552E+03  0.15259425468E+04  0.15560256538E+04  0.92241850016E+02 0.  0.
         11    1    3    3    0    0  0.72826627607E+02 -0.19603754861E+03  0.85997640814E+03  0.88503890350E+03  0.00000000000E+00 0. -1.
        -11    1    3    3    0    0  0.41274642186E+02 -0.70772346913E+02  0.66596613866E+03  0.67098675026E+03  0.00000000000E+00 0.  1.
         22    1    1    2    0    0 -0.11410126979E+03  0.26680989552E+03 -0.23097536365E+03  0.37088574889E+03  0.00000000000E+00 0. -1.
<mgrwt>
<rscale>  0 0.14269014E+04</rscale>
<asrwt>0</asrwt>
<pdfrwt beam="1">  1        1 0.48611095E-01 0.14269014E+04</pdfrwt>
<pdfrwt beam="2">  1       -1 0.24783681E+00 0.14269014E+04</pdfrwt>
<totfact> 0.57461296E+00</totfact>
</mgrwt>
</event>
<event>
 6    1  0.1072514E-005  0.3799499E+04  0.7818608E-02  0.8046263E-01
         -2   -1    0    0    0  501 -0.00000000000E+00  0.00000000000E+00  0.16224552738E+04  0.16224552738E+04  0.00000000000E+00 0.  1.
          2   -1    0    0  501    0  0.00000000000E+00 -0.00000000000E+00 -0.22244356077E+04  0.22244356077E+04  0.00000000000E+00 0. -1.
         23    2    1    2    0    0  0.26804507768E+03 -0.17086608010E+04  0.49222636075E+03  0.18002697180E+04  0.85524093240E+02 0.  0.
         13    1    3    3    0    0  0.34608565086E+02 -0.20911422674E+03  0.89917733723E+02  0.23024272288E+03  0.00000000000E+00 0. -1.
        -13    1    3    3    0    0  0.23343651259E+03 -0.14995465743E+04  0.40230862702E+03  0.15700269951E+04  0.00000000000E+00 0.  1.
         22    1    1    2    0    0 -0.26804507768E+03  0.17086608010E+04 -0.10942066946E+04  0.20466211636E+04  0.00000000000E+00 0. -1.
<mgrwt>
<rscale>  0 0.37994985E+04</rscale>
<asrwt>0</asrwt>
<pdfrwt beam="1">  1        2 0.34222086E+00 0.37994985E+04</pdfrwt>
<pdfrwt beam="2">  1       -2 0.24960850E+00 0.37994985E+04</pdfrwt>
<totfact> 0.25922908E-01</totfact>
</mgrwt>
</event>
<event>
 6    1  0.1072514E-005  0.2272424E+04  0.7818608E-02  0.8488874E-01
         -1   -1    0    0    0  501 -0.00000000000E+00  0.00000000000E+00  0.13864900039E+04  0.13864900039E+04  0.00000000000E+00 0.  1.
          1   -1    0    0  501    0  0.00000000000E+00 -0.00000000000E+00 -0.93111194914E+03  0.93111194914E+03  0.00000000000E+00 0. -1.
         23    2    1    2    0    0  0.97254747987E+03  0.48189828674E+03 -0.10873974945E+03  0.10943671202E+04  0.87980118416E+02 0.  0.
         11    1    3    3    0    0  0.86434674821E+03  0.40308889494E+03 -0.11334517202E+03  0.96042859515E+03  0.00000000000E+00 0. -1.
        -11    1    3    3    0    0  0.10820073167E+03  0.78809391795E+02  0.46054225694E+01  0.13393852502E+03  0.00000000000E+00 0.  1.
         22    1    1    2    0    0 -0.97254747987E+03 -0.48189828674E+03  0.56411780424E+03  0.12232348329E+04  0.00000000000E+00 0. -1.
<mgrwt>
<rscale>  0 0.22724237E+04</rscale>
<asrwt>0</asrwt>
<pdfrwt beam="1">  1        1 0.14324799E+00 0.22724237E+04</pdfrwt>
<pdfrwt beam="2">  1       -1 0.21330616E+00 0.22724237E+04</pdfrwt>
<totfact> 0.18986324E+00</totfact>
</mgrwt>
</event>
<event>
 6    1  0.1072514E-005  0.7827295E+03  0.7818608E-02  0.9585357E-01
         -1   -1    0    0    0  501 -0.00000000000E+00  0.00000000000E+00  0.48746558240E+03  0.48746558240E+03  0.00000000000E+00 0.  1.
          1   -1    0    0  501    0  0.00000000000E+00 -0.00000000000E+00 -0.31420959709E+03  0.31420959709E+03  0.00000000000E+00 0. -1.
         23    2    1    2    0    0 -0.11427207149E+03  0.24307705144E+03 -0.19605272247E+03  0.34502051686E+03  0.91966993048E+02 0.  0.
         11    1    3    3    0    0 -0.79516267409E+02  0.71710774810E+02 -0.94509325446E+02  0.14281906246E+03  0.00000000000E+00 0. -1.
        -11    1    3    3    0    0 -0.34755804082E+02  0.17136627663E+03 -0.10154339703E+03  0.20220145440E+03  0.00000000000E+00 0.  1.
         22    1    1    2    0    0  0.11427207149E+03 -0.24307705144E+03  0.36930870778E+03  0.45665466263E+03  0.00000000000E+00 0.  1.
<mgrwt>
<rscale>  0 0.78272949E+03</rscale>
<asrwt>0</asrwt>
<pdfrwt beam="1">  1        1 0.48339938E-01 0.78272949E+03</pdfrwt>
<pdfrwt beam="2">  1       -1 0.74994705E-01 0.78272949E+03</pdfrwt>
<totfact> 0.14948724E+02</totfact>
</mgrwt>
</event>
<event>
 6    1  0.1072514E-005  0.2908668E+04  0.7818608E-02  0.8270303E-01
         -1   -1    0    0    0  501 -0.00000000000E+00  0.00000000000E+00  0.11703638160E+04  0.11703638160E+04  0.00000000000E+00 0.  1.
          1   -1    0    0  501    0  0.00000000000E+00 -0.00000000000E+00 -0.18072050929E+04  0.18072050929E+04  0.00000000000E+00 0. -1.
         23    2    1    2    0    0 -0.64661517511E+03 -0.34184128046E+03 -0.16037978901E+04  0.17651449990E+04  0.92749929633E+02 0.  0.
         11    1    3    3    0    0 -0.44184205058E+03 -0.21245567139E+03 -0.11644228712E+04  0.12634248822E+04  0.00000000000E+00 0. -1.
        -11    1    3    3    0    0 -0.20477312453E+03 -0.12938560906E+03 -0.43937501891E+03  0.50172011680E+03  0.00000000000E+00 0.  1.
         22    1    1    2    0    0  0.64661517511E+03  0.34184128046E+03  0.96695661321E+03  0.12124239100E+04  0.00000000000E+00 0.  1.
<mgrwt>
<rscale>  0 0.29086680E+04</rscale>
<asrwt>0</asrwt>
<pdfrwt beam="1">  1        1 0.27803155E+00 0.29086680E+04</pdfrwt>
<pdfrwt beam="2">  1       -1 0.18005597E+00 0.29086680E+04</pdfrwt>
<totfact> 0.71841631E-01</totfact>
</mgrwt>
</event>
<event>
 6    1  0.1072514E-005  0.5986314E+03  0.7818608E-02  0.9908249E-01
          1   -1    0    0  501    0  0.00000000000E+00  0.00000000000E+00  0.63207428233E+03  0.63207428233E+03  0.00000000000E+00 0. -1.
         -1   -1    0    0    0  501 -0.00000000000E+00 -0.00000000000E+00 -0.14173950477E+03  0.14173950477E+03  0.00000000000E+00 0.  1.
         23    2    1    2    0    0  0.24402670942E+03  0.57530881729E+02  0.44550899303E+03  0.51912144678E+03  0.90277219567E+02 0.  0.
         13    1    3    3    0    0  0.46339548848E+02 -0.15560590341E+02  0.13726250532E+03  0.14570683281E+03  0.00000000000E+00 0. -1.
        -13    1    3    3    0    0  0.19768716057E+03  0.73091472070E+02  0.30824648771E+03  0.37341461397E+03  0.00000000000E+00 0.  1.
         22    1    1    2    0    0 -0.24402670942E+03 -0.57530881729E+02  0.44825784526E+02  0.25469234032E+03  0.00000000000E+00 0.  1.
<mgrwt>
<rscale>  0 0.59863143E+03</rscale>
<asrwt>0</asrwt>
<pdfrwt beam="1">  1        1 0.97242196E-01 0.59863143E+03</pdfrwt>
<pdfrwt beam="2">  1       -1 0.21806078E-01 0.59863143E+03</pdfrwt>
<totfact> 0.56670484E+02</totfact>
</mgrwt>
</event>
<event>
 6    1  0.1072514E-005  0.3285863E+04  0.7818608E-02  0.8166502E-01
         -2   -1    0    0    0  501 -0.00000000000E+00  0.00000000000E+00  0.13157494143E+04  0.13157494143E+04  0.00000000000E+00 0.  1.
          2   -1    0    0  501    0  0.00000000000E+00 -0.00000000000E+00 -0.20514731383E+04  0.20514731383E+04  0.00000000000E+00 0. -1.
         23    2    1    2    0    0 -0.98113395244E+03 -0.19722107160E+03 -0.17007858776E+04  0.19769474201E+04  0.11886343777E+03 0.  0.
         13    1    3    3    0    0 -0.23353373469E+03 -0.62330492677E+02 -0.32060189376E+03  0.40150799474E+03  0.00000000000E+00 0. -1.
        -13    1    3    3    0    0 -0.74760021775E+03 -0.13489057892E+03 -0.13801839838E+04  0.15754394254E+04  0.00000000000E+00 0.  1.
         22    1    1    2    0    0  0.98113395244E+03  0.19722107160E+03  0.96506215356E+03  0.13902751325E+04  0.00000000000E+00 0.  1.
<mgrwt>
<rscale>  0 0.32858634E+04</rscale>
<asrwt>0</asrwt>
<pdfrwt beam="1">  1        2 0.31561125E+00 0.32858634E+04</pdfrwt>
<pdfrwt beam="2">  1       -2 0.20242299E+00 0.32858634E+04</pdfrwt>
<totfact> 0.67060482E-01</totfact>
</mgrwt>
</event>
<event>
 6    1  0.1072514E-005  0.1479096E+04  0.7818608E-02  0.8898474E-01
          2   -1    0    0  501    0  0.00000000000E+00  0.00000000000E+00  0.13976144792E+04  0.13976144792E+04  0.00000000000E+00 0. -1.
         -2   -1    0    0    0  501 -0.00000000000E+00 -0.00000000000E+00 -0.39133197052E+03  0.39133197052E+03  0.00000000000E+00 0.  1.
         23    2    1    2    0    0 -0.68735299149E+03 -0.25420126586E+03  0.59608190790E+03  0.94910304090E+03  0.91708902764E+02 0.  0.
         13    1    3    3    0    0 -0.25133980336E+03 -0.12491191749E+03  0.27043435584E+03  0.38975559611E+03  0.00000000000E+00 0.  1.
        -13    1    3    3    0    0 -0.43601318814E+03 -0.12928934837E+03  0.32564755206E+03  0.55934744479E+03  0.00000000000E+00 0. -1.
         22    1    1    2    0    0  0.68735299149E+03  0.25420126586E+03  0.41020060082E+03  0.83984340885E+03  0.00000000000E+00 0.  1.
<mgrwt>
<rscale>  0 0.14790960E+04</rscale>
<asrwt>0</asrwt>
<pdfrwt beam="1">  1        2 0.21501761E+00 0.14790960E+04</pdfrwt>
<pdfrwt beam="2">  1       -2 0.60204919E-01 0.14790960E+04</pdfrwt>
<totfact> 0.36116362E+01</totfact>
</mgrwt>
</event>
<event>
 6    1  0.1218468E-005  0.3411095E+04  0.7818608E-02  0.8135189E-01
         -1   -1    0    0    0  501 -0.00000000000E+00  0.00000000000E+00  0.17366856681E+04  0.17366856681E+04  0.00000000000E+00 0.  1.
          1   -1    0    0  501    0  0.00000000000E+00 -0.00000000000E+00 -0.16749680363E+04  0.16749680363E+04  0.00000000000E+00 0. -1.
         23    2    1    2    0    0  0.90594812261E+02  0.58910696986E+03 -0.15660369212E+04  0.16782064664E+04  0.93010016712E+02 0.  0.
         11    1    3    3    0    0  0.20581710560E+01  0.31352421877E+03 -0.78968913051E+03  0.84965322025E+03  0.00000000000E+00 0. -1.
        -11    1    3    3    0    0  0.88536641205E+02  0.27558275109E+03 -0.77634779069E+03  0.82855324611E+03  0.00000000000E+00 0.  1.
         22    1    1    2    0    0 -0.90594812261E+02 -0.58910696986E+03  0.16277545531E+04  0.17334472380E+04  0.00000000000E+00 0.  1.
<mgrwt>
<rscale>  0 0.34110954E+04</rscale>
<asrwt>0</asrwt>
<pdfrwt beam="1">  1        1 0.25768739E+00 0.34110954E+04</pdfrwt>
<pdfrwt beam="2">  1       -1 0.26718241E+00 0.34110954E+04</pdfrwt>
<totfact> 0.21958659E-01</totfact>
</mgrwt>
</event>
<event>
 6    1  0.1072514E-005  0.4254794E+04  0.7818608E-02  0.7955030E-01
          2   -1    0    0  501    0  0.00000000000E+00  0.00000000000E+00  0.14650606059E+04  0.14650606059E+04  0.00000000000E+00 0. -1.
         -2   -1    0    0    0  501 -0.00000000000E+00 -0.00000000000E+00 -0.30891671822E+04  0.30891671822E+04  0.00000000000E+00 0.  1.
         23    2    1    2    0    0 -0.91168789232E+03  0.77078182784E+03 -0.26959176096E+04  0.29498405748E+04  0.91149438011E+02 0.  0.
         13    1    3    3    0    0 -0.54769933554E+03  0.50693649973E+03 -0.16108202182E+04  0.17753030593E+04  0.00000000000E+00 0.  1.
        -13    1    3    3    0    0 -0.36398855678E+03  0.26384532811E+03 -0.10850973913E+04  0.11745375155E+04  0.00000000000E+00 0. -1.
         22    1    1    2    0    0  0.91168789232E+03 -0.77078182784E+03  0.10718110333E+04  0.16043872133E+04  0.00000000000E+00 0. -1.
<mgrwt>
<rscale>  0 0.42547936E+04</rscale>
<asrwt>0</asrwt>
<pdfrwt beam="1">  1        2 0.22539394E+00 0.42547936E+04</pdfrwt>
<pdfrwt beam="2">  1       -2 0.47525648E+00 0.42547936E+04</pdfrwt>
<totfact> 0.24370455E-02</totfact>
</mgrwt>
</event>
<event>
 6    1  0.1072514E-005  0.1094906E+04  0.7818608E-02  0.9210171E-01
          1   -1    0    0  501    0  0.00000000000E+00  0.00000000000E+00  0.12477475009E+04  0.12477475009E+04  0.00000000000E+00 0. -1.
         -1   -1    0    0    0  501 -0.00000000000E+00 -0.00000000000E+00 -0.24019678609E+03  0.24019678609E+03  0.00000000000E+00 0.  1.
         23    2    1    2    0    0  0.46277608971E+03  0.24019561185E+03  0.29776421385E+03  0.60723291650E+03  0.90623654052E+02 0.  0.
         13    1    3    3    0    0  0.12479323425E+03  0.10965405201E+03  0.78529614725E+02  0.18375054510E+03  0.00000000000E+00 0. -1.
        -13    1    3    3    0    0  0.33798285547E+03  0.13054155984E+03  0.21923459912E+03  0.42348237140E+03  0.00000000000E+00 0.  1.
         22    1    1    2    0    0 -0.46277608971E+03 -0.24019561185E+03  0.70978650098E+03  0.88071137051E+03  0.00000000000E+00 0.  1.
<mgrwt>
<rscale>  0 0.10949063E+04</rscale>
<asrwt>0</asrwt>
<pdfrwt beam="1">  1        1 0.19196115E+00 0.10949063E+04</pdfrwt>
<pdfrwt beam="2">  1       -1 0.36953352E-01 0.10949063E+04</pdfrwt>
<totfact> 0.69131434E+01</totfact>
</mgrwt>
</event>
<event>
 6    1  0.1072514E-005  0.1378808E+04  0.7818608E-02  0.8969303E-01
         -1   -1    0    0    0  501 -0.00000000000E+00  0.00000000000E+00  0.26554420134E+03  0.26554420134E+03  0.00000000000E+00 0.  1.
          1   -1    0    0  501    0  0.00000000000E+00 -0.00000000000E+00 -0.17898248571E+04  0.17898248571E+04  0.00000000000E+00 0. -1.
         23    2    1    2    0    0 -0.36031724235E+03  0.57772057261E+03 -0.89231039802E+03  0.11264040527E+04  0.94755835779E+02 0.  0.
         11    1    3    3    0    0 -0.16575648505E+03  0.18330597720E+03 -0.30042954247E+03  0.38901697084E+03  0.00000000000E+00 0. -1.
        -11    1    3    3    0    0 -0.19456075730E+03  0.39441459542E+03 -0.59188085555E+03  0.73738708188E+03  0.00000000000E+00 0.  1.
         22    1    1    2    0    0  0.36031724235E+03 -0.57772057261E+03 -0.63197025769E+03  0.92896500567E+03  0.00000000000E+00 0. -1.
<mgrwt>
<rscale>  0 0.13788076E+04</rscale>
<asrwt>0</asrwt>
<pdfrwt beam="1">  1        1 0.27535766E+00 0.13788076E+04</pdfrwt>
<pdfrwt beam="2">  1       -1 0.40852956E-01 0.13788076E+04</pdfrwt>
<totfact> 0.23696823E+01</totfact>
</mgrwt>
</event>
<event>
 6    1  0.1072514E-005  0.2621910E+04  0.7818608E-02  0.8360797E-01
         -2   -1    0    0    0  501 -0.00000000000E+00  0.00000000000E+00  0.63629151638E+03  0.63629151638E+03  0.00000000000E+00 0.  1.
          2   -1    0    0  501    0  0.00000000000E+00 -0.00000000000E+00 -0.27009678090E+04  0.27009678090E+04  0.00000000000E+00 0. -1.
         23    2    1    2    0    0 -0.13718426650E+03 -0.42740427757E+03  0.53194706156E+03  0.70212236823E+03  0.92272445597E+02 0.  0.
         11    1    3    3    0    0 -0.21684120577E+02 -0.10954148497E+02  0.44357630396E+02  0.50574636221E+02  0.00000000000E+00 0. -1.
        -11    1    3    3    0    0 -0.11550014592E+03 -0.41645012907E+03  0.48758943116E+03  0.65154773201E+03  0.00000000000E+00 0.  1.
         22    1    1    2    0    0  0.13718426650E+03  0.42740427757E+03 -0.25966233541E+04  0.26351369571E+04  0.00000000000E+00 0. -1.
<mgrwt>
<rscale>  0 0.26219099E+04</rscale>
<asrwt>0</asrwt>
<pdfrwt beam="1">  1        2 0.41553350E+00 0.26219099E+04</pdfrwt>
<pdfrwt beam="2">  1       -2 0.97891004E-01 0.26219099E+04</pdfrwt>
<totfact> 0.20335933E+00</totfact>
</mgrwt>
</event>
<event>
 6    1  0.1072514E-005  0.2327509E+04  0.7818608E-02  0.8467153E-01
          2   -1    0    0  501    0  0.00000000000E+00  0.00000000000E+00  0.21327498250E+04  0.21327498250E+04  0.00000000000E+00 0. -1.
         -2   -1    0    0    0  501 -0.00000000000E+00 -0.00000000000E+00 -0.63501322792E+03  0.63501322792E+03  0.00000000000E+00 0.  1.
         23    2    1    2    0    0  0.95599123428E+03  0.20897576193E+03  0.14950976568E+04  0.17891941626E+04  0.91151736241E+02 0.  0.
         13    1    3    3    0    0  0.25453330604E+03  0.48163606859E+02  0.32658317660E+03  0.41684950300E+03  0.00000000000E+00 0.  1.
        -13    1    3    3    0    0  0.70145792824E+03  0.16081215507E+03  0.11685144802E+04  0.13723446596E+04  0.00000000000E+00 0. -1.
         22    1    1    2    0    0 -0.95599123428E+03 -0.20897576193E+03  0.26389402812E+01  0.97856889032E+03  0.00000000000E+00 0.  1.
<mgrwt>
<rscale>  0 0.23275088E+04</rscale>
<asrwt>0</asrwt>
<pdfrwt beam="1">  1        2 0.32811536E+00 0.23275088E+04</pdfrwt>
<pdfrwt beam="2">  1       -2 0.97694343E-01 0.23275088E+04</pdfrwt>
<totfact> 0.44468419E+00</totfact>
</mgrwt>
</event>
<event>
 6    1  0.1072514E-005  0.1234860E+04  0.7818608E-02  0.9082879E-01
          1   -1    0    0  501    0  0.00000000000E+00  0.00000000000E+00  0.88608136708E+03  0.88608136708E+03  0.00000000000E+00 0. -1.
         -1   -1    0    0    0  501 -0.00000000000E+00 -0.00000000000E+00 -0.43023144318E+03  0.43023144318E+03  0.00000000000E+00 0.  1.
         23    2    1    2    0    0  0.34211323019E+03 -0.21240060576E+03 -0.26573754036E+03  0.48996908748E+03  0.85427084313E+02 0.  0.
         11    1    3    3    0    0  0.27966304931E+03 -0.15041637666E+03 -0.24077205756E+03  0.39850682707E+03  0.00000000000E+00 0.  1.
        -11    1    3    3    0    0  0.62450180885E+02 -0.61984229095E+02 -0.24965482795E+02  0.91462260415E+02  0.00000000000E+00 0. -1.
         22    1    1    2    0    0 -0.34211323019E+03  0.21240060576E+03  0.72158746426E+03  0.82634372278E+03  0.00000000000E+00 0. -1.
<mgrwt>
<rscale>  0 0.12348604E+04</rscale>
<asrwt>0</asrwt>
<pdfrwt beam="1">  1        1 0.13632021E+00 0.12348604E+04</pdfrwt>
<pdfrwt beam="2">  1       -1 0.66189453E-01 0.12348604E+04</pdfrwt>
<totfact> 0.42676169E+01</totfact>
</mgrwt>
</event>
<event>
 6    1  0.1072514E-005  0.2684958E+04  0.7818608E-02  0.8339902E-01
         -1   -1    0    0    0  501 -0.00000000000E+00  0.00000000000E+00  0.82619078256E+03  0.82619078256E+03  0.00000000000E+00 0.  1.
          1   -1    0    0  501    0  0.00000000000E+00 -0.00000000000E+00 -0.21813960701E+04  0.21813960701E+04  0.00000000000E+00 0. -1.
         23    2    1    2    0    0 -0.50273544826E+03 -0.74345195236E+02 -0.20683579068E+04  0.21318832514E+04  0.92475011248E+02 0.  0.
         13    1    3    3    0    0 -0.29261752210E+03 -0.77836880479E+02 -0.10946420155E+04  0.11357485357E+04  0.00000000000E+00 0.  1.
        -13    1    3    3    0    0 -0.21011792615E+03  0.34916852427E+01 -0.97371589132E+03  0.99613471567E+03  0.00000000000E+00 0. -1.
         22    1    1    2    0    0  0.50273544826E+03  0.74345195236E+02  0.71315261927E+03  0.87570360132E+03  0.00000000000E+00 0.  1.
<mgrwt>
<rscale>  0 0.26849576E+04</rscale>
<asrwt>0</asrwt>
<pdfrwt beam="1">  1        1 0.33559940E+00 0.26849576E+04</pdfrwt>
<pdfrwt beam="2">  1       -1 0.12710627E+00 0.26849576E+04</pdfrwt>
<totfact> 0.10523213E+00</totfact>
</mgrwt>
</event>
<event>
 6    1  0.1072514E-005  0.1237732E+04  0.7818608E-02  0.9080457E-01
          1   -1    0    0  501    0  0.00000000000E+00  0.00000000000E+00  0.45105839113E+03  0.45105839113E+03  0.00000000000E+00 0. -1.
         -1   -1    0    0    0  501 -0.00000000000E+00 -0.00000000000E+00 -0.84910255187E+03  0.84910255187E+03  0.00000000000E+00 0.  1.
         23    2    1    2    0    0  0.59012663828E+03  0.37154245143E+02 -0.37995209701E+03  0.70858913002E+03  0.90028173439E+02 0.  0.
         11    1    3    3    0    0  0.11295312855E+03  0.68499861984E+00 -0.33621616719E+02  0.11785283867E+03  0.00000000000E+00 0. -1.
        -11    1    3    3    0    0  0.47717350973E+03  0.36469246523E+02 -0.34633048029E+03  0.59073629134E+03  0.00000000000E+00 0.  1.
         22    1    1    2    0    0 -0.59012663828E+03 -0.37154245143E+02 -0.18092063725E+02  0.59157181298E+03  0.00000000000E+00 0. -1.
<mgrwt>
<rscale>  0 0.12377315E+04</rscale>
<asrwt>0</asrwt>
<pdfrwt beam="1">  1        1 0.69393599E-01 0.12377315E+04</pdfrwt>
<pdfrwt beam="2">  1       -1 0.13063116E+00 0.12377315E+04</pdfrwt>
<totfact> 0.25245249E+01</totfact>
</mgrwt>
</event>
<event>
 6    1  0.1072514E-005  0.2347591E+04  0.7818608E-02  0.8459389E-01
         -1   -1    0    0    0  501 -0.00000000000E+00  0.00000000000E+00  0.15733681083E+04  0.15733681083E+04  0.00000000000E+00 0.  1.
          1   -1    0    0  501    0  0.00000000000E+00 -0.00000000000E+00 -0.87569869738E+03  0.87569869738E+03  0.00000000000E+00 0. -1.
         23    2    1    2    0    0 -0.77575241734E+03 -0.62581738673E+03  0.99262930710E+03  0.14096243806E+04  0.91042510087E+02 0.  0.
         11    1    3    3    0    0 -0.46489465304E+02 -0.63904870056E+02  0.60784297725E+02  0.99698714390E+02  0.00000000000E+00 0.  1.
        -11    1    3    3    0    0 -0.72926295204E+03 -0.56191251667E+03  0.93184500937E+03  0.13099256663E+04  0.00000000000E+00 0. -1.
         22    1    1    2    0    0  0.77575241734E+03  0.62581738673E+03 -0.29495989620E+03  0.10394424250E+04  0.00000000000E+00 0. -1.
<mgrwt>
<rscale>  0 0.23475914E+04</rscale>
<asrwt>0</asrwt>
<pdfrwt beam="1">  1        1 0.13472288E+00 0.23475914E+04</pdfrwt>
<pdfrwt beam="2">  1       -1 0.24205663E+00 0.23475914E+04</pdfrwt>
<totfact> 0.13482091E+00</totfact>
</mgrwt>
</event>
<event>
 6    1  0.1072514E-005  0.1568565E+04  0.7818608E-02  0.8840096E-01
          2   -1    0    0  501    0  0.00000000000E+00  0.00000000000E+00  0.55530817845E+03  0.55530817845E+03  0.00000000000E+00 0. -1.
         -2   -1    0    0    0  501 -0.00000000000E+00 -0.00000000000E+00 -0.11076718965E+04  0.11076718965E+04  0.00000000000E+00 0.  1.
         23    2    1    2    0    0 -0.44811485235E+03 -0.10629167434E+03 -0.94668785164E+03  0.10566828185E+04  0.90861705140E+02 0.  0.
         11    1    3    3    0    0 -0.11486965390E+03 -0.28011041797E+02 -0.34151097139E+03  0.36139922445E+03  0.00000000000E+00 0.  1.
        -11    1    3    3    0    0 -0.33324519845E+03 -0.78280632542E+02 -0.60517688025E+03  0.69528359401E+03  0.00000000000E+00 0. -1.
         22    1    1    2    0    0  0.44811485235E+03  0.10629167434E+03  0.39432413357E+03  0.60629725651E+03  0.00000000000E+00 0. -1.
<mgrwt>
<rscale>  0 0.15685653E+04</rscale>
<asrwt>0</asrwt>
<pdfrwt beam="1">  1        2 0.85432028E-01 0.15685653E+04</pdfrwt>
<pdfrwt beam="2">  1       -2 0.17041106E+00 0.15685653E+04</pdfrwt>
<totfact> 0.11064727E+01</totfact>
</mgrwt>
</event>
<event>
 6    1  0.1202767E-005  0.3454318E+04  0.7818608E-02  0.8124702E-01
         -4   -1    0    0    0  501 -0.00000000000E+00  0.00000000000E+00  0.12100750939E+04  0.12100750939E+04  0.00000000000E+00 0.  1.
          4   -1    0    0  501    0  0.00000000000E+00 -0.00000000000E+00 -0.24652014549E+04  0.24652014549E+04  0.00000000000E+00 0. -1.
         23    2    1    2    0    0  0.10045411210E+04  0.14005903817E+04 -0.72266452648E+03  0.18713164921E+04  0.93942081405E+02 0.  0.
         11    1    3    3    0    0  0.34148294075E+03  0.52925762534E+03 -0.22832056086E+03  0.66996605236E+03  0.00000000000E+00 0. -1.
        -11    1    3    3    0    0  0.66305818025E+03  0.87133275635E+03 -0.49434396562E+03  0.12013504397E+04  0.00000000000E+00 0.  1.
         22    1    1    2    0    0 -0.10045411210E+04 -0.14005903817E+04 -0.53246183458E+03  0.18039600568E+04  0.00000000000E+00 0. -1.
<mgrwt>
<rscale>  0 0.34543184E+04</rscale>
<asrwt>0</asrwt>
<pdfrwt beam="1">  1        4 0.37926175E+00 0.34543184E+04</pdfrwt>
<pdfrwt beam="2">  1       -4 0.18616540E+00 0.34543184E+04</pdfrwt>
<totfact> 0.25100064E-03</totfact>
</mgrwt>
</event>
<event>
 6    1  0.1072514E-005  0.5667680E+04  0.7818608E-02  0.7733029E-01
          2   -1    0    0  501    0  0.00000000000E+00  0.00000000000E+00  0.24340551480E+04  0.24340551480E+04  0.00000000000E+00 0. -1.
         -2   -1    0    0    0  501 -0.00000000000E+00 -0.00000000000E+00 -0.32992877542E+04  0.32992877542E+04  0.00000000000E+00 0.  1.
         23    2    1    2    0    0  0.76871606308E+03 -0.10001776674E+04  0.21334139411E+04  0.24801658601E+04  0.92129785760E+02 0.  0.
         13    1    3    3    0    0  0.59597927733E+03 -0.83026059342E+03  0.17514505016E+04  0.20278320472E+04  0.00000000000E+00 0. -1.
        -13    1    3    3    0    0  0.17273678576E+03 -0.16991707394E+03  0.38196343948E+03  0.45233381288E+03  0.00000000000E+00 0.  1.
         22    1    1    2    0    0 -0.76871606308E+03  0.10001776674E+04 -0.29986465473E+04  0.32531770421E+04  0.00000000000E+00 0.  1.
<mgrwt>
<rscale>  0 0.56676797E+04</rscale>
<asrwt>0</asrwt>
<pdfrwt beam="1">  1        2 0.37447002E+00 0.56676797E+04</pdfrwt>
<pdfrwt beam="2">  1       -2 0.50758273E+00 0.56676797E+04</pdfrwt>
<totfact> 0.39325211E-03</totfact>
</mgrwt>
</event>
<event>
 6    1  0.1072514E-005  0.1906019E+04  0.7818608E-02  0.8651866E-01
         -2   -1    0    0    0  501 -0.00000000000E+00  0.00000000000E+00  0.12717618054E+04  0.12717618054E+04  0.00000000000E+00 0.  1.
          2   -1    0    0  501    0  0.00000000000E+00 -0.00000000000E+00 -0.71414902391E+03  0.71414902391E+03  0.00000000000E+00 0. -1.
         23    2    1    2    0    0  0.41992946199E+03  0.78824874205E+03 -0.59997828363E+02  0.90003804771E+03  0.93765214948E+02 0.  0.
         13    1    3    3    0    0  0.23548129861E+03  0.53534792225E+03 -0.30753635177E+02  0.58565743053E+03  0.00000000000E+00 0.  1.
        -13    1    3    3    0    0  0.18444816337E+03  0.25290081980E+03 -0.29244193186E+02  0.31438061719E+03  0.00000000000E+00 0. -1.
         22    1    1    2    0    0 -0.41992946199E+03 -0.78824874205E+03  0.61761060985E+03  0.10858727816E+04  0.00000000000E+00 0.  1.
<mgrwt>
<rscale>  0 0.19060194E+04</rscale>
<asrwt>0</asrwt>
<pdfrwt beam="1">  1        2 0.10986908E+00 0.19060194E+04</pdfrwt>
<pdfrwt beam="2">  1       -2 0.19565566E+00 0.19060194E+04</pdfrwt>
<totfact> 0.53091112E+00</totfact>
</mgrwt>
</event>
<event>
 6    1  0.1072514E-005  0.5618839E+04  0.7818608E-02  0.7739545E-01
         -1   -1    0    0    0  501 -0.00000000000E+00  0.00000000000E+00  0.18501226906E+04  0.18501226906E+04  0.00000000000E+00 0.  1.
          1   -1    0    0  501    0  0.00000000000E+00 -0.00000000000E+00 -0.42661153260E+04  0.42661153260E+04  0.00000000000E+00 0. -1.
         23    2    1    2    0    0  0.26091179297E+04  0.10348403087E+04 -0.10962876873E+04  0.30146236006E+04  0.87851719777E+02 0.  0.
         11    1    3    3    0    0  0.70967965600E+03  0.31620397215E+03 -0.27936721758E+03  0.82563685020E+03  0.00000000000E+00 0. -1.
        -11    1    3    3    0    0  0.18994382737E+04  0.71863633652E+03 -0.81692046968E+03  0.21889867504E+04  0.00000000000E+00 0.  1.
         22    1    1    2    0    0 -0.26091179297E+04 -0.10348403087E+04 -0.13197049481E+04  0.31016144160E+04  0.00000000000E+00 0. -1.
<mgrwt>
<rscale>  0 0.56188386E+04</rscale>
<asrwt>0</asrwt>
<pdfrwt beam="1">  1        1 0.65632543E+00 0.56188386E+04</pdfrwt>
<pdfrwt beam="2">  1       -1 0.28463426E+00 0.56188386E+04</pdfrwt>
<totfact> 0.15567580E-03</totfact>
</mgrwt>
</event>
<event>
 6    1  0.1072514E-005  0.1038213E+04  0.7818608E-02  0.9267599E-01
         -3   -1    0    0    0  501 -0.00000000000E+00  0.00000000000E+00  0.51187358180E+03  0.51187358180E+03  0.00000000000E+00 0.  1.
          3   -1    0    0  501    0  0.00000000000E+00 -0.00000000000E+00 -0.52644143958E+03  0.52644143958E+03  0.00000000000E+00 0. -1.
         23    2    1    2    0    0 -0.77310616539E+02 -0.36371169451E+03  0.34972556840E+03  0.51776451613E+03  0.86654444887E+02 0.  0.
         13    1    3    3    0    0 -0.44975052540E+02 -0.27638372830E+03  0.21071240519E+03  0.35044320270E+03  0.00000000000E+00 0. -1.
        -13    1    3    3    0    0 -0.32335563999E+02 -0.87327966210E+02  0.13901316321E+03  0.16732131343E+03  0.00000000000E+00 0.  1.
         22    1    1    2    0    0  0.77310616539E+02  0.36371169451E+03 -0.36429342619E+03  0.52055050525E+03  0.00000000000E+00 0.  1.
<mgrwt>
<rscale>  0 0.10382128E+04</rscale>
<asrwt>0</asrwt>
<pdfrwt beam="1">  1        3 0.80990990E-01 0.10382128E+04</pdfrwt>
<pdfrwt beam="2">  1       -3 0.78749782E-01 0.10382128E+04</pdfrwt>
<totfact> 0.55685109E+00</totfact>
</mgrwt>
</event>
<event>
 6    1  0.1072514E-005  0.2896503E+04  0.7818608E-02  0.8273919E-01
          2   -1    0    0  501    0  0.00000000000E+00  0.00000000000E+00  0.38255272236E+04  0.38255272236E+04  0.00000000000E+00 0. -1.
         -2   -1    0    0    0  501 -0.00000000000E+00 -0.00000000000E+00 -0.54827259388E+03  0.54827259388E+03  0.00000000000E+00 0.  1.
         23    2    1    2    0    0 -0.13149603965E+04 -0.24221055571E+03  0.80535231056E+03  0.15634461257E+04  0.89356847669E+02 0.  0.
         11    1    3    3    0    0 -0.11095753318E+04 -0.23259577886E+03  0.66238739762E+03  0.13130176228E+04  0.00000000000E+00 0.  1.
        -11    1    3    3    0    0 -0.20538506469E+03 -0.96147768590E+01  0.14296491294E+03  0.25042850289E+03  0.00000000000E+00 0. -1.
         22    1    1    2    0    0  0.13149603965E+04  0.24221055571E+03  0.24719023192E+04  0.28103536918E+04  0.00000000000E+00 0. -1.
<mgrwt>
<rscale>  0 0.28965025E+04</rscale>
<asrwt>0</asrwt>
<pdfrwt beam="1">  1        2 0.58854263E+00 0.28965025E+04</pdfrwt>
<pdfrwt beam="2">  1       -2 0.84349632E-01 0.28965025E+04</pdfrwt>
<totfact> 0.49696215E-01</totfact>
</mgrwt>
</event>
<event>
 6    1  0.1072514E-005  0.2010984E+04  0.7818608E-02  0.8601502E-01
          1   -1    0    0  501    0  0.00000000000E+00  0.00000000000E+00  0.21896178983E+04  0.21896178983E+04  0.00000000000E+00 0. -1.
         -1   -1    0    0    0  501 -0.00000000000E+00 -0.00000000000E+00 -0.46173095650E+03  0.46173095650E+03  0.00000000000E+00 0.  1.
         23    2    1    2    0    0  0.82604768289E+03  0.19718911796E+03  0.15703830538E+04  0.17876094280E+04  0.90588126158E+02 0.  0.
         11    1    3    3    0    0  0.32404630098E+03  0.32958502421E+02  0.61663895649E+03  0.69737785363E+03  0.00000000000E+00 0.  1.
        -11    1    3    3    0    0  0.50200138191E+03  0.16423061554E+03  0.95374409734E+03  0.10902315744E+04  0.00000000000E+00 0. -1.
         22    1    1    2    0    0 -0.82604768289E+03 -0.19718911796E+03  0.15750388794E+03  0.86373942678E+03  0.00000000000E+00 0.  1.
<mgrwt>
<rscale>  0 0.20109842E+04</rscale>
<asrwt>0</asrwt>
<pdfrwt beam="1">  1        1 0.33686429E+00 0.20109842E+04</pdfrwt>
<pdfrwt beam="2">  1       -1 0.71035533E-01 0.20109842E+04</pdfrwt>
<totfact> 0.41081002E+00</totfact>
</mgrwt>
</event>
<event>
 6    1  0.1072514E-005  0.8237376E+03  0.7818608E-02  0.9526279E-01
          2   -1    0    0  501    0  0.00000000000E+00  0.00000000000E+00  0.24022019730E+04  0.24022019730E+04  0.00000000000E+00 0. -1.
         -2   -1    0    0    0  501 -0.00000000000E+00 -0.00000000000E+00 -0.70616842882E+02  0.70616842882E+02  0.00000000000E+00 0.  1.
         23    2    1    2    0    0  0.27266265889E+03 -0.18229791329E+03  0.19023832700E+04  0.19326413530E+04  0.91994773554E+02 0.  0.
         13    1    3    3    0    0  0.18244849229E+03 -0.90375670490E+02  0.94885549692E+03  0.97045451629E+03  0.00000000000E+00 0. -1.
        -13    1    3    3    0    0  0.90214166595E+02 -0.91922242804E+02  0.95352777312E+03  0.96218683668E+03  0.00000000000E+00 0.  1.
         22    1    1    2    0    0 -0.27266265889E+03  0.18229791329E+03  0.42920186010E+03  0.54017746293E+03  0.00000000000E+00 0.  1.
<mgrwt>
<rscale>  0 0.82373763E+03</rscale>
<asrwt>0</asrwt>
<pdfrwt beam="1">  1        2 0.36956947E+00 0.82373763E+03</pdfrwt>
<pdfrwt beam="2">  1       -2 0.10864132E-01 0.82373763E+03</pdfrwt>
<totfact> 0.24427392E+02</totfact>
</mgrwt>
</event>
<event>
 6    1  0.1072514E-005  0.3750961E+04  0.7818608E-02  0.8056761E-01
          2   -1    0    0  501    0  0.00000000000E+00  0.00000000000E+00  0.34016769806E+04  0.34016769806E+04  0.00000000000E+00 0. -1.
         -2   -1    0    0    0  501 -0.00000000000E+00 -0.00000000000E+00 -0.10340274918E+04  0.10340274918E+04  0.00000000000E+00 0.  1.
         23    2    1    2    0    0 -0.13250829261E+04  0.12667712718E+04  0.72248336519E+03  0.19725508454E+04  0.91762785889E+02 0.  0.
         13    1    3    3    0    0 -0.79899871855E+02  0.55089019773E+02  0.23978889080E+02  0.99968878874E+02  0.00000000000E+00 0. -1.
        -13    1    3    3    0    0 -0.12451830542E+04  0.12116822520E+04  0.69850447611E+03  0.18725819666E+04  0.00000000000E+00 0.  1.
         22    1    1    2    0    0  0.13250829261E+04 -0.12667712718E+04  0.16451661236E+04  0.24631536270E+04  0.00000000000E+00 0. -1.
<mgrwt>
<rscale>  0 0.37509612E+04</rscale>
<asrwt>0</asrwt>
<pdfrwt beam="1">  1        2 0.52333491E+00 0.37509612E+04</pdfrwt>
<pdfrwt beam="2">  1       -2 0.15908115E+00 0.37509612E+04</pdfrwt>
<totfact> 0.19557647E-01</totfact>
</mgrwt>
</event>
<event>
 6    1  0.1072514E-005  0.3497981E+04  0.7818608E-02  0.8114269E-01
          2   -1    0    0  501    0  0.00000000000E+00  0.00000000000E+00  0.22581473312E+04  0.22581473312E+04  0.00000000000E+00 0. -1.
         -2   -1    0    0    0  501 -0.00000000000E+00 -0.00000000000E+00 -0.13546362961E+04  0.13546362961E+04  0.00000000000E+00 0.  1.
         23    2    1    2    0    0 -0.11214952624E+04 -0.58996313755E+03 -0.79116616533E+03  0.14967167709E+04  0.91700947484E+02 0.  0.
         11    1    3    3    0    0 -0.23816157473E+03 -0.11122161770E+03 -0.20644959625E+03  0.33423437841E+03  0.00000000000E+00 0.  1.
        -11    1    3    3    0    0 -0.88333368766E+03 -0.47874151984E+03 -0.58471656908E+03  0.11624823924E+04  0.00000000000E+00 0. -1.
         22    1    1    2    0    0  0.11214952624E+04  0.58996313755E+03  0.16946772005E+04  0.21160668565E+04  0.00000000000E+00 0. -1.
<mgrwt>
<rscale>  0 0.34979813E+04</rscale>
<asrwt>0</asrwt>
<pdfrwt beam="1">  1        2 0.34740728E+00 0.34979813E+04</pdfrwt>
<pdfrwt beam="2">  1       -2 0.20840558E+00 0.34979813E+04</pdfrwt>
<totfact> 0.46139665E-01</totfact>
</mgrwt>
</event>
<event>
 6    1  0.1072514E-005  0.6345616E+03  0.7818608E-02  0.9836187E-01
         -2   -1    0    0    0  501 -0.00000000000E+00  0.00000000000E+00  0.22576985860E+03  0.22576985860E+03  0.00000000000E+00 0.  1.
          2   -1    0    0  501    0  0.00000000000E+00 -0.00000000000E+00 -0.44588379437E+03  0.44588379437E+03  0.00000000000E+00 0. -1.
         23    2    1    2    0    0 -0.45866642683E+02  0.13981521177E+03 -0.40229284802E+03  0.43747167582E+03  0.88825048384E+02 0.  0.
         13    1    3    3    0    0 -0.21369619941E+02  0.11236174886E+03 -0.18811940871E+03  0.22016070312E+03  0.00000000000E+00 0. -1.
        -13    1    3    3    0    0 -0.24497022742E+02  0.27453462902E+02 -0.21417343931E+03  0.21731097270E+03  0.00000000000E+00 0.  1.
         22    1    1    2    0    0  0.45866642683E+02 -0.13981521177E+03  0.18217891226E+03  0.23418197715E+03  0.00000000000E+00 0.  1.
<mgrwt>
<rscale>  0 0.63456165E+03</rscale>
<asrwt>0</asrwt>
<pdfrwt beam="1">  1        2 0.68597506E-01 0.63456165E+03</pdfrwt>
<pdfrwt beam="2">  1       -2 0.34733825E-01 0.63456165E+03</pdfrwt>
<totfact> 0.55018310E+02</totfact>
</mgrwt>
</event>
<event>
 6    1  0.1072514E-005  0.2151714E+04  0.7818608E-02  0.8538799E-01
         -2   -1    0    0    0  501 -0.00000000000E+00  0.00000000000E+00  0.97424368667E+03  0.97424368667E+03  0.00000000000E+00 0.  1.
          2   -1    0    0  501    0  0.00000000000E+00 -0.00000000000E+00 -0.11880686005E+04  0.11880686005E+04  0.00000000000E+00 0. -1.
         23    2    1    2    0    0  0.10338065154E+04  0.26557613420E+03  0.11314705364E+02  0.10714527900E+04  0.92717119641E+02 0.  0.
         13    1    3    3    0    0  0.41148345634E+03  0.15249756677E+03 -0.31611595189E+00  0.43883281855E+03  0.00000000000E+00 0. -1.
        -13    1    3    3    0    0  0.62232305910E+03  0.11307856743E+03  0.11630821315E+02  0.63261997147E+03  0.00000000000E+00 0.  1.
         22    1    1    2    0    0 -0.10338065154E+04 -0.26557613420E+03 -0.22513961921E+03  0.10908594972E+04  0.00000000000E+00 0.  1.
<mgrwt>
<rscale>  0 0.21517140E+04</rscale>
<asrwt>0</asrwt>
<pdfrwt beam="1">  1        2 0.18277978E+00 0.21517140E+04</pdfrwt>
<pdfrwt beam="2">  1       -2 0.14988364E+00 0.21517140E+04</pdfrwt>
<totfact> 0.53055686E+00</totfact>
</mgrwt>
</event>
<event>
 6    1  0.1072514E-005  0.2840483E+04  0.7818608E-02  0.8290809E-01
         -2   -1    0    0    0  501 -0.00000000000E+00  0.00000000000E+00  0.69235877758E+03  0.69235877758E+03  0.00000000000E+00 0. -1.
          2   -1    0    0  501    0  0.00000000000E+00 -0.00000000000E+00 -0.29133540493E+04  0.29133540493E+04  0.00000000000E+00 0.  1.
         23    2    1    2    0    0 -0.41963691322E+03  0.57117374878E+03 -0.26718242997E+04  0.27657238967E+04  0.90823973466E+02 0.  0.
         13    1    3    3    0    0 -0.25191219545E+03  0.34635323412E+03 -0.17817557635E+04  0.18325048207E+04  0.00000000000E+00 0. -1.
        -13    1    3    3    0    0 -0.16772471778E+03  0.22482051466E+03 -0.89006853615E+03  0.93321907600E+03  0.00000000000E+00 0.  1.
         22    1    1    2    0    0  0.41963691322E+03 -0.57117374878E+03  0.45082902801E+03  0.83998893013E+03  0.00000000000E+00 0. -1.
<mgrwt>
<rscale>  0 0.28404832E+04</rscale>
<asrwt>0</asrwt>
<pdfrwt beam="1">  1        2 0.44820832E+00 0.28404832E+04</pdfrwt>
<pdfrwt beam="2">  1       -2 0.10651673E+00 0.28404832E+04</pdfrwt>
<totfact> 0.12135992E+00</totfact>
</mgrwt>
</event>
<event>
 6    1  0.1072514E-005  0.1439146E+04  0.7818608E-02  0.8925960E-01
          1   -1    0    0  501    0  0.00000000000E+00  0.00000000000E+00  0.19195645678E+04  0.19195645678E+04  0.00000000000E+00 0. -1.
         -1   -1    0    0    0  501 -0.00000000000E+00 -0.00000000000E+00 -0.26974091227E+03  0.26974091227E+03  0.00000000000E+00 0.  1.
         23    2    1    2    0    0  0.50212789037E+03  0.47266265040E+02  0.16028988761E+04  0.16827796140E+04  0.89977242771E+02 0.  0.
         11    1    3    3    0    0  0.33142702807E+03  0.40337128335E+01  0.11513730013E+04  0.11981318517E+04  0.00000000000E+00 0. -1.
        -11    1    3    3    0    0  0.17070086230E+03  0.43232552207E+02  0.45152587479E+03  0.48464776236E+03  0.00000000000E+00 0.  1.
         22    1    1    2    0    0 -0.50212789037E+03 -0.47266265040E+02  0.46924779452E+02  0.50652586610E+03  0.00000000000E+00 0.  1.
<mgrwt>
<rscale>  0 0.14391457E+04</rscale>
<asrwt>0</asrwt>
<pdfrwt beam="1">  1        1 0.29531762E+00 0.14391457E+04</pdfrwt>
<pdfrwt beam="2">  1       -1 0.41498603E-01 0.14391457E+04</pdfrwt>
<totfact> 0.18709387E+01</totfact>
</mgrwt>
</event>
<event>
 6    1  0.1072514E-005  0.3954868E+04  0.7818608E-02  0.8013714E-01
          2   -1    0    0  501    0  0.00000000000E+00  0.00000000000E+00  0.13523764313E+04  0.13523764313E+04  0.00000000000E+00 0. -1.
         -2   -1    0    0    0  501 -0.00000000000E+00 -0.00000000000E+00 -0.28913875229E+04  0.28913875229E+04  0.00000000000E+00 0.  1.
         23    2    1    2    0    0 -0.73367330642E+03  0.87945299859E+03 -0.24982626242E+04  0.27498169672E+04  0.91995198023E+02 0.  0.
         11    1    3    3    0    0 -0.27389011490E+03  0.39787331484E+03 -0.10295364743E+04  0.11372177986E+04  0.00000000000E+00 0.  1.
        -11    1    3    3    0    0 -0.45978319151E+03  0.48157968375E+03 -0.14687261499E+04  0.16125991685E+04  0.00000000000E+00 0. -1.
         22    1    1    2    0    0  0.73367330642E+03 -0.87945299859E+03  0.95925153260E+03  0.14939469870E+04  0.00000000000E+00 0. -1.
<mgrwt>
<rscale>  0 0.39548676E+04</rscale>
<asrwt>0</asrwt>
<pdfrwt beam="1">  1        2 0.20805792E+00 0.39548676E+04</pdfrwt>
<pdfrwt beam="2">  1       -2 0.44482884E+00 0.39548676E+04</pdfrwt>
<totfact> 0.45817898E-02</totfact>
</mgrwt>
</event>
<event>
 6    1  0.1072514E-005  0.1197960E+04  0.7818608E-02  0.9114644E-01
         -2   -1    0    0    0  501 -0.00000000000E+00  0.00000000000E+00  0.97768168921E+03  0.97768168921E+03  0.00000000000E+00 0.  1.
          2   -1    0    0  501    0  0.00000000000E+00 -0.00000000000E+00 -0.36696742163E+03  0.36696742163E+03  0.00000000000E+00 0. -1.
         23    2    1    2    0    0 -0.57963227109E+02  0.64079322873E+02  0.96853753742E+03  0.97654126286E+03  0.90011006885E+02 0.  0.
         11    1    3    3    0    0 -0.26779186602E+02 -0.27729554114E+00  0.66740732980E+02  0.71913330938E+02  0.00000000000E+00 0. -1.
        -11    1    3    3    0    0 -0.31184040507E+02  0.64356618415E+02  0.90179680444E+03  0.90462793192E+03  0.00000000000E+00 0.  1.
         22    1    1    2    0    0  0.57963227109E+02 -0.64079322873E+02 -0.35782326984E+03  0.36810784799E+03  0.00000000000E+00 0. -1.
<mgrwt>
<rscale>  0 0.11979605E+04</rscale>
<asrwt>0</asrwt>
<pdfrwt beam="1">  1        2 0.56456527E-01 0.11979605E+04</pdfrwt>
<pdfrwt beam="2">  1       -2 0.15041257E+00 0.11979605E+04</pdfrwt>
<totfact> 0.25693905E+01</totfact>
</mgrwt>
</event>
<event>
 6    1  0.1072514E-005  0.2160401E+04  0.7818608E-02  0.8535093E-01
          2   -1    0    0  501    0  0.00000000000E+00  0.00000000000E+00  0.13028478557E+04  0.13028478557E+04  0.00000000000E+00 0. -1.
         -2   -1    0    0    0  501 -0.00000000000E+00 -0.00000000000E+00 -0.89560174684E+03  0.89560174684E+03  0.00000000000E+00 0.  1.
         23    2    1    2    0    0 -0.13658241098E+03  0.10617713741E+04  0.33685031881E+03  0.11256174754E+04  0.86794918908E+02 0.  0.
         13    1    3    3    0    0  0.11468265014E+02  0.63740312481E+02  0.26918394900E+02  0.70135215987E+02  0.00000000000E+00 0. -1.
        -13    1    3    3    0    0 -0.14805067600E+03  0.99803106158E+03  0.30993192391E+03  0.10554822594E+04  0.00000000000E+00 0.  1.
         22    1    1    2    0    0  0.13658241098E+03 -0.10617713741E+04  0.70395790074E+02  0.10728321271E+04  0.00000000000E+00 0. -1.
<mgrwt>
<rscale>  0 0.21604007E+04</rscale>
<asrwt>0</asrwt>
<pdfrwt beam="1">  1        2 0.20043813E+00 0.21604007E+04</pdfrwt>
<pdfrwt beam="2">  1       -2 0.13778488E+00 0.21604007E+04</pdfrwt>
<totfact> 0.56539974E+00</totfact>
</mgrwt>
</event>
<event>
 6    1  0.1072514E-005  0.3073585E+04  0.7818608E-02  0.8223025E-01
          2   -1    0    0  501    0  0.00000000000E+00  0.00000000000E+00  0.22113406517E+04  0.22113406517E+04  0.00000000000E+00 0.  1.
         -2   -1    0    0    0  501 -0.00000000000E+00 -0.00000000000E+00 -0.10680086725E+04  0.10680086725E+04  0.00000000000E+00 0. -1.
         23    2    1    2    0    0  0.11450744424E+04 -0.32715588032E+03 -0.46196447496E+03  0.12805488953E+04  0.90376149892E+02 0.  0.
         13    1    3    3    0    0  0.80509833965E+03 -0.26806952944E+03 -0.34804290096E+03  0.91715782176E+03  0.00000000000E+00 0.  1.
        -13    1    3    3    0    0  0.33997610278E+03 -0.59086350885E+02 -0.11392157400E+03  0.36339107356E+03  0.00000000000E+00 0. -1.
         22    1    1    2    0    0 -0.11450744424E+04  0.32715588032E+03  0.16052964541E+04  0.19988004288E+04  0.00000000000E+00 0.  1.
<mgrwt>
<rscale>  0 0.30735849E+04</rscale>
<asrwt>0</asrwt>
<pdfrwt beam="1">  1        2 0.34020625E+00 0.30735849E+04</pdfrwt>
<pdfrwt beam="2">  1       -2 0.16430903E+00 0.30735849E+04</pdfrwt>
<totfact> 0.10140032E+00</totfact>
</mgrwt>
</event>
<event>
 6    1  0.1072514E-005  0.3504057E+04  0.7818608E-02  0.8112829E-01
          2   -1    0    0  501    0  0.00000000000E+00  0.00000000000E+00  0.22148600111E+04  0.22148600111E+04  0.00000000000E+00 0. -1.
         -2   -1    0    0    0  501 -0.00000000000E+00 -0.00000000000E+00 -0.13859130433E+04  0.13859130433E+04  0.00000000000E+00 0.  1.
         23    2    1    2    0    0 -0.16008471075E+04 -0.13653027193E+03  0.11297986781E+04  0.19661893985E+04  0.90020669815E+02 0.  0.
         11    1    3    3    0    0 -0.71234121359E+03 -0.82790056934E+02  0.55188509335E+03  0.90490958353E+03  0.00000000000E+00 0. -1.
        -11    1    3    3    0    0 -0.88850589388E+03 -0.53740214995E+02  0.57791358473E+03  0.10612798149E+04  0.00000000000E+00 0.  1.
         22    1    1    2    0    0  0.16008471075E+04  0.13653027193E+03 -0.30085171021E+03  0.16345836559E+04  0.00000000000E+00 0.  1.
<mgrwt>
<rscale>  0 0.35040567E+04</rscale>
<asrwt>0</asrwt>
<pdfrwt beam="1">  1        2 0.34074769E+00 0.35040567E+04</pdfrwt>
<pdfrwt beam="2">  1       -2 0.21321739E+00 0.35040567E+04</pdfrwt>
<totfact> 0.45429982E-01</totfact>
</mgrwt>
</event>
<event>
 6    1  0.1072514E-005  0.2002809E+04  0.7818608E-02  0.8605309E-01
          1   -1    0    0  501    0  0.00000000000E+00  0.00000000000E+00  0.23389645089E+04  0.23389645089E+04  0.00000000000E+00 0. -1.
         -1   -1    0    0    0  501 -0.00000000000E+00 -0.00000000000E+00 -0.42874123577E+03  0.42874123577E+03  0.00000000000E+00 0.  1.
         23    2    1    2    0    0  0.36427883635E+02  0.45845143746E+03 -0.26892836574E+03  0.54055362224E+03  0.91493395389E+02 0.  0.
         11    1    3    3    0    0 -0.20462962580E+02  0.10052594909E+03 -0.31606834550E+02  0.10734612834E+03  0.00000000000E+00 0. -1.
        -11    1    3    3    0    0  0.56890846215E+02  0.35792548837E+03 -0.23732153119E+03  0.43320749390E+03  0.00000000000E+00 0.  1.
         22    1    1    2    0    0 -0.36427883635E+02 -0.45845143746E+03  0.21791516389E+04  0.22271521225E+04  0.00000000000E+00 0. -1.
<mgrwt>
<rscale>  0 0.20028086E+04</rscale>
<asrwt>0</asrwt>
<pdfrwt beam="1">  1        1 0.35984069E+00 0.20028086E+04</pdfrwt>
<pdfrwt beam="2">  1       -1 0.65960191E-01 0.20028086E+04</pdfrwt>
<totfact> 0.37816952E+00</totfact>
</mgrwt>
</event>
<event>
 6    1  0.1072514E-005  0.1910543E+04  0.7818608E-02  0.8649626E-01
          1   -1    0    0  501    0  0.00000000000E+00  0.00000000000E+00  0.60606467415E+03  0.60606467415E+03  0.00000000000E+00 0. -1.
         -1   -1    0    0    0  501 -0.00000000000E+00 -0.00000000000E+00 -0.15056866658E+04  0.15056866658E+04  0.00000000000E+00 0.  1.
         23    2    1    2    0    0 -0.40971904312E+03  0.69982239845E+03 -0.10043606012E+04  0.12940770405E+04  0.90962001856E+02 0.  0.
         11    1    3    3    0    0 -0.94496237465E+01  0.59638912045E+02 -0.61751870975E+02  0.86367753171E+02  0.00000000000E+00 0.  1.
        -11    1    3    3    0    0 -0.40026941938E+03  0.64018348640E+03 -0.94260873021E+03  0.12077092873E+04  0.00000000000E+00 0. -1.
         22    1    1    2    0    0  0.40971904312E+03 -0.69982239845E+03  0.10473860956E+03  0.81767429946E+03  0.00000000000E+00 0. -1.
<mgrwt>
<rscale>  0 0.19105429E+04</rscale>
<asrwt>0</asrwt>
<pdfrwt beam="1">  1        1 0.93240720E-01 0.19105429E+04</pdfrwt>
<pdfrwt beam="2">  1       -1 0.23164410E+00 0.19105429E+04</pdfrwt>
<totfact> 0.29040135E+00</totfact>
</mgrwt>
</event>
<event>
 6    1  0.1072514E-005  0.3270432E+04  0.7818608E-02  0.8170460E-01
          2   -1    0    0  501    0  0.00000000000E+00  0.00000000000E+00  0.36012759603E+04  0.36012759603E+04  0.00000000000E+00 0. -1.
         -2   -1    0    0    0  501 -0.00000000000E+00 -0.00000000000E+00 -0.74249556128E+03  0.74249556128E+03  0.00000000000E+00 0.  1.
         23    2    1    2    0    0 -0.19852600408E+03 -0.83282435689E+03  0.32791018096E+04  0.33900005470E+04  0.81154464790E+02 0.  0.
         13    1    3    3    0    0 -0.63211507113E+02 -0.33258107813E+03  0.11545073273E+04  0.12031180478E+04  0.00000000000E+00 0.  1.
        -13    1    3    3    0    0 -0.13531449696E+03 -0.50024327876E+03  0.21245944823E+04  0.21868824992E+04  0.00000000000E+00 0. -1.
         22    1    1    2    0    0  0.19852600408E+03  0.83282435689E+03 -0.42032141059E+03  0.95377097457E+03  0.00000000000E+00 0.  1.
<mgrwt>
<rscale>  0 0.32704320E+04</rscale>
<asrwt>0</asrwt>
<pdfrwt beam="1">  1        2 0.55404245E+00 0.32704320E+04</pdfrwt>
<pdfrwt beam="2">  1       -2 0.11423009E+00 0.32704320E+04</pdfrwt>
<totfact> 0.34520672E-01</totfact>
</mgrwt>
</event>
<event>
 6    1  0.1072514E-005  0.3621030E+04  0.7818608E-02  0.8085691E-01
         -1   -1    0    0    0  501 -0.00000000000E+00  0.00000000000E+00  0.13897995228E+04  0.13897995228E+04  0.00000000000E+00 0.  1.
          1   -1    0    0  501    0  0.00000000000E+00 -0.00000000000E+00 -0.23585885819E+04  0.23585885819E+04  0.00000000000E+00 0. -1.
         23    2    1    2    0    0 -0.12809671032E+04  0.10001261660E+04  0.33867174842E+03  0.16625830250E+04  0.91404016433E+02 0.  0.
         13    1    3    3    0    0 -0.31794468718E+03  0.21197841592E+03  0.52967499266E+02  0.38578391478E+03  0.00000000000E+00 0. -1.
        -13    1    3    3    0    0 -0.96302241605E+03  0.78814775008E+03  0.28570424916E+03  0.12767991102E+04  0.00000000000E+00 0.  1.
         22    1    1    2    0    0  0.12809671032E+04 -0.10001261660E+04 -0.13074608076E+04  0.20858050798E+04  0.00000000000E+00 0. -1.
<mgrwt>
<rscale>  0 0.36210304E+04</rscale>
<asrwt>0</asrwt>
<pdfrwt beam="1">  1        1 0.36285978E+00 0.36210304E+04</pdfrwt>
<pdfrwt beam="2">  1       -1 0.21381531E+00 0.36210304E+04</pdfrwt>
<totfact> 0.16596057E-01</totfact>
</mgrwt>
</event>
<event>
 6    1  0.1072514E-005  0.3183613E+04  0.7818608E-02  0.8193158E-01
         -2   -1    0    0    0  501 -0.00000000000E+00  0.00000000000E+00  0.10564553971E+04  0.10564553971E+04  0.00000000000E+00 0.  1.
          2   -1    0    0  501    0  0.00000000000E+00 -0.00000000000E+00 -0.23984429681E+04  0.23984429681E+04  0.00000000000E+00 0. -1.
         23    2    1    2    0    0  0.81266411080E+03  0.25103581230E+03 -0.21299634621E+04  0.22954381714E+04  0.94075038707E+02 0.  0.
         13    1    3    3    0    0  0.67167642696E+03  0.21722137072E+03 -0.18510721647E+04  0.19811114318E+04  0.00000000000E+00 0.  1.
        -13    1    3    3    0    0  0.14098768383E+03  0.33814441574E+02 -0.27889129741E+03  0.31432673959E+03  0.00000000000E+00 0. -1.
         22    1    1    2    0    0 -0.81266411080E+03 -0.25103581230E+03  0.78797589105E+03  0.11594601938E+04  0.00000000000E+00 0.  1.
<mgrwt>
<rscale>  0 0.31836131E+04</rscale>
<asrwt>0</asrwt>
<pdfrwt beam="1">  1        2 0.36899122E+00 0.31836131E+04</pdfrwt>
<pdfrwt beam="2">  1       -2 0.16253160E+00 0.31836131E+04</pdfrwt>
<totfact> 0.81047618E-01</totfact>
</mgrwt>
</event>
<event>
 6    1  0.1072514E-005  0.1532456E+04  0.7818608E-02  0.8863153E-01
         -1   -1    0    0    0  501 -0.00000000000E+00  0.00000000000E+00  0.33863420366E+03  0.33863420366E+03  0.00000000000E+00 0.  1.
          1   -1    0    0  501    0  0.00000000000E+00 -0.00000000000E+00 -0.17337441000E+04  0.17337441000E+04  0.00000000000E+00 0. -1.
         23    2    1    2    0    0 -0.21604516310E+02 -0.36259272154E+03 -0.16082110749E+04  0.16512460807E+04  0.91271688139E+02 0.  0.
         11    1    3    3    0    0 -0.48640530990E+02 -0.25824570327E+03 -0.10245196499E+04  0.10576848574E+04  0.00000000000E+00 0.  1.
        -11    1    3    3    0    0  0.27036014680E+02 -0.10434701828E+03 -0.58369142495E+03  0.59356122336E+03  0.00000000000E+00 0. -1.
         22    1    1    2    0    0  0.21604516310E+02  0.36259272154E+03  0.21310117855E+03  0.42113222287E+03  0.00000000000E+00 0.  1.
<mgrwt>
<rscale>  0 0.15324556E+04</rscale>
<asrwt>0</asrwt>
<pdfrwt beam="1">  1        1 0.26672986E+00 0.15324556E+04</pdfrwt>
<pdfrwt beam="2">  1       -1 0.52097570E-01 0.15324556E+04</pdfrwt>
<totfact> 0.16180955E+01</totfact>
</mgrwt>
</event>
<event>
 6    1  0.1072514E-005  0.3125558E+04  0.7818608E-02  0.8208759E-01
          1   -1    0    0  501    0  0.00000000000E+00  0.00000000000E+00  0.15706792193E+04  0.15706792193E+04  0.00000000000E+00 0. -1.
         -1   -1    0    0    0  501 -0.00000000000E+00 -0.00000000000E+00 -0.15549185444E+04  0.15549185444E+04  0.00000000000E+00 0.  1.
         23    2    1    2    0    0  0.38286384454E+03 -0.12933549321E+04 -0.77853865013E+03  0.15602661307E+04  0.94637544919E+02 0.  0.
         11    1    3    3    0    0  0.29386547918E+03 -0.99551919935E+03 -0.64411666183E+03  0.12215979986E+04  0.00000000000E+00 0. -1.
        -11    1    3    3    0    0  0.88998365362E+02 -0.29783573275E+03 -0.13442198830E+03  0.33866813207E+03  0.00000000000E+00 0.  1.
         22    1    1    2    0    0 -0.38286384454E+03  0.12933549321E+04  0.79429932501E+03  0.15653316331E+04  0.00000000000E+00 0. -1.
<mgrwt>
<rscale>  0 0.31255580E+04</rscale>
<asrwt>0</asrwt>
<pdfrwt beam="1">  1        1 0.24164296E+00 0.31255580E+04</pdfrwt>
<pdfrwt beam="2">  1       -1 0.23921824E+00 0.31255580E+04</pdfrwt>
<totfact> 0.40379360E-01</totfact>
</mgrwt>
</event>
<event>
 6    1  0.1072514E-005  0.1711000E+04  0.7818608E-02  0.8755115E-01
         -2   -1    0    0    0  501 -0.00000000000E+00  0.00000000000E+00  0.35210360120E+03  0.35210360120E+03  0.00000000000E+00 0.  1.
          2   -1    0    0  501    0  0.00000000000E+00 -0.00000000000E+00 -0.20785946952E+04  0.20785946952E+04  0.00000000000E+00 0. -1.
         23    2    1    2    0    0 -0.46638086394E+03  0.36580704529E+03 -0.17369385645E+04  0.18378787165E+04  0.97553549863E+02 0.  0.
         13    1    3    3    0    0 -0.16316719574E+03  0.18800191303E+03 -0.74719951636E+03  0.78757562831E+03  0.00000000000E+00 0. -1.
        -13    1    3    3    0    0 -0.30321366820E+03  0.17780513227E+03 -0.98973904816E+03  0.10503030882E+04  0.00000000000E+00 0.  1.
         22    1    1    2    0    0  0.46638086394E+03 -0.36580704529E+03  0.10447470518E+02  0.59281957987E+03  0.00000000000E+00 0.  1.
<mgrwt>
<rscale>  0 0.17110005E+04</rscale>
<asrwt>0</asrwt>
<pdfrwt beam="1">  1        2 0.31978381E+00 0.17110005E+04</pdfrwt>
<pdfrwt beam="2">  1       -2 0.54169783E-01 0.17110005E+04</pdfrwt>
<totfact> 0.18430432E+01</totfact>
</mgrwt>
</event>
<event>
 6    1  0.1072514E-005  0.4016658E+04  0.7818608E-02  0.8001195E-01
         -2   -1    0    0    0  501 -0.00000000000E+00  0.00000000000E+00  0.23512522915E+04  0.23512522915E+04  0.00000000000E+00 0.  1.
          2   -1    0    0  501    0  0.00000000000E+00 -0.00000000000E+00 -0.17154199715E+04  0.17154199715E+04  0.00000000000E+00 0. -1.
         23    2    1    2    0    0  0.99576777103E+03  0.75945894422E+03  0.19064207327E+04  0.22826525725E+04  0.87928464965E+02 0.  0.
         13    1    3    3    0    0  0.65630917816E+03  0.45825242161E+03  0.11696872189E+04  0.14173585324E+04  0.00000000000E+00 0. -1.
        -13    1    3    3    0    0  0.33945859287E+03  0.30120652261E+03  0.73673351376E+03  0.86529404010E+03  0.00000000000E+00 0.  1.
         22    1    1    2    0    0 -0.99576777103E+03 -0.75945894422E+03 -0.12705884127E+04  0.17840196905E+04  0.00000000000E+00 0. -1.
<mgrwt>
<rscale>  0 0.40166579E+04</rscale>
<asrwt>0</asrwt>
<pdfrwt beam="1">  1        2 0.26391076E+00 0.40166579E+04</pdfrwt>
<pdfrwt beam="2">  1       -2 0.36173112E+00 0.40166579E+04</pdfrwt>
<totfact> 0.99281967E-02</totfact>
</mgrwt>
</event>
<event>
 6    1  0.1072514E-005  0.2082730E+04  0.7818608E-02  0.8568889E-01
         -1   -1    0    0    0  501 -0.00000000000E+00  0.00000000000E+00  0.76650778757E+03  0.76650778757E+03  0.00000000000E+00 0.  1.
          1   -1    0    0  501    0  0.00000000000E+00 -0.00000000000E+00 -0.14147812517E+04  0.14147812517E+04  0.00000000000E+00 0. -1.
         23    2    1    2    0    0 -0.69149666268E+03  0.31431795201E+03  0.41800723106E+03  0.87212215518E+03  0.94358883451E+02 0.  0.
         11    1    3    3    0    0 -0.65176188082E+03  0.27077738038E+03  0.37548216190E+03  0.79943779803E+03  0.00000000000E+00 0.  1.
        -11    1    3    3    0    0 -0.39734781857E+02  0.43540571625E+02  0.42525069162E+02  0.72684357148E+02  0.00000000000E+00 0. -1.
         22    1    1    2    0    0  0.69149666268E+03 -0.31431795201E+03 -0.10662806952E+04  0.13091668841E+04  0.00000000000E+00 0. -1.
<mgrwt>
<rscale>  0 0.20827298E+04</rscale>
<asrwt>0</asrwt>
<pdfrwt beam="1">  1        1 0.21765865E+00 0.20827298E+04</pdfrwt>
<pdfrwt beam="2">  1       -1 0.11792428E+00 0.20827298E+04</pdfrwt>
<totfact> 0.44637173E+00</totfact>
</mgrwt>
</event>
<event>
 6    1  0.1072514E-005  0.1026517E+04  0.7818608E-02  0.9279930E-01
          2   -1    0    0  501    0  0.00000000000E+00  0.00000000000E+00  0.79273024664E+03  0.79273024664E+03  0.00000000000E+00 0. -1.
         -2   -1    0    0    0  501 -0.00000000000E+00 -0.00000000000E+00 -0.33231266025E+03  0.33231266025E+03  0.00000000000E+00 0.  1.
         23    2    1    2    0    0 -0.45239820205E+03 -0.19866574166E+03  0.96978565775E+02  0.51167504676E+03  0.90963185569E+02 0.  0.
         13    1    3    3    0    0 -0.20274339242E+03 -0.50403456870E+02  0.68793202009E+02  0.21994975853E+03  0.00000000000E+00 0. -1.
        -13    1    3    3    0    0 -0.24965480964E+03 -0.14826228479E+03  0.28185363766E+02  0.29172528824E+03  0.00000000000E+00 0.  1.
         22    1    1    2    0    0  0.45239820205E+03  0.19866574166E+03  0.36343902061E+03  0.61336786012E+03  0.00000000000E+00 0.  1.
<mgrwt>
<rscale>  0 0.10265170E+04</rscale>
<asrwt>0</asrwt>
<pdfrwt beam="1">  1        2 0.12195850E+00 0.10265170E+04</pdfrwt>
<pdfrwt beam="2">  1       -2 0.51125025E-01 0.10265170E+04</pdfrwt>
<totfact> 0.12569714E+02</totfact>
</mgrwt>
</event>
<event>
 6    1  0.1072514E-005  0.1547221E+04  0.7818608E-02  0.8853645E-01
          2   -1    0    0  501    0  0.00000000000E+00  0.00000000000E+00  0.75417203296E+03  0.75417203296E+03  0.00000000000E+00 0. -1.
         -2   -1    0    0    0  501 -0.00000000000E+00 -0.00000000000E+00 -0.79355012945E+03  0.79355012945E+03  0.00000000000E+00 0.  1.
         23    2    1    2    0    0  0.54693042575E+03  0.29056037198E+03  0.43993673846E+03  0.76458684117E+03  0.86547579250E+02 0.  0.
         11    1    3    3    0    0  0.30553038066E+03  0.20685128412E+03  0.23999473553E+03  0.44015195141E+03  0.00000000000E+00 0. -1.
        -11    1    3    3    0    0  0.24140004509E+03  0.83709087854E+02  0.19994200293E+03  0.32443488976E+03  0.00000000000E+00 0.  1.
         22    1    1    2    0    0 -0.54693042575E+03 -0.29056037198E+03 -0.47931483495E+03  0.78313532124E+03  0.00000000000E+00 0.  1.
<mgrwt>
<rscale>  0 0.15472211E+04</rscale>
<asrwt>0</asrwt>
<pdfrwt beam="1">  1        2 0.11602647E+00 0.15472211E+04</pdfrwt>
<pdfrwt beam="2">  1       -2 0.12208464E+00 0.15472211E+04</pdfrwt>
<totfact> 0.18231298E+01</totfact>
</mgrwt>
</event>
<event>
 6    1  0.1072514E-005  0.1846851E+04  0.7818608E-02  0.8681774E-01
          1   -1    0    0  501    0  0.00000000000E+00  0.00000000000E+00  0.11276795924E+04  0.11276795924E+04  0.00000000000E+00 0. -1.
         -1   -1    0    0    0  501 -0.00000000000E+00 -0.00000000000E+00 -0.75616787385E+03  0.75616787385E+03  0.00000000000E+00 0.  1.
         23    2    1    2    0    0  0.71832650604E+02 -0.63455293990E+03 -0.49111693676E+03  0.81056019801E+03  0.89412671405E+02 0.  0.
         13    1    3    3    0    0  0.30649766750E+02 -0.36661850556E+03 -0.22821269096E+03  0.43293136770E+03  0.00000000000E+00 0.  1.
        -13    1    3    3    0    0  0.41182883854E+02 -0.26793443433E+03 -0.26290424581E+03  0.37762883032E+03  0.00000000000E+00 0. -1.
         22    1    1    2    0    0 -0.71832650604E+02  0.63455293990E+03  0.86262865535E+03  0.10732872683E+04  0.00000000000E+00 0. -1.
<mgrwt>
<rscale>  0 0.18468515E+04</rscale>
<asrwt>0</asrwt>
<pdfrwt beam="1">  1        1 0.17348917E+00 0.18468515E+04</pdfrwt>
<pdfrwt beam="2">  1       -1 0.11633352E+00 0.18468515E+04</pdfrwt>
<totfact> 0.75846110E+00</totfact>
</mgrwt>
</event>
<event>
 6    1  0.1072514E-005  0.4597918E+04  0.7818608E-02  0.7893715E-01
          2   -1    0    0  501    0  0.00000000000E+00  0.00000000000E+00  0.31081886273E+04  0.31081886273E+04  0.00000000000E+00 0.  1.
         -2   -1    0    0    0  501 -0.00000000000E+00 -0.00000000000E+00 -0.17004154663E+04  0.17004154663E+04  0.00000000000E+00 0. -1.
         23    2    1    2    0    0 -0.11112549972E+04  0.20114150474E+04  0.72318126792E+03  0.24108250751E+04  0.91696428179E+02 0.  0.
         11    1    3    3    0    0 -0.34193630339E+03  0.57203563514E+03  0.17327805181E+03  0.68860038243E+03  0.00000000000E+00 0. -1.
        -11    1    3    3    0    0 -0.76931869379E+03  0.14393794122E+04  0.54990321611E+03  0.17222246927E+04  0.00000000000E+00 0.  1.
         22    1    1    2    0    0  0.11112549972E+04 -0.20114150474E+04  0.68459189310E+03  0.23977790185E+04  0.00000000000E+00 0.  1.
<mgrwt>
<rscale>  0 0.45979178E+04</rscale>
<asrwt>0</asrwt>
<pdfrwt beam="1">  1        2 0.47818286E+00 0.45979178E+04</pdfrwt>
<pdfrwt beam="2">  1       -2 0.26160238E+00 0.45979178E+04</pdfrwt>
<totfact> 0.60921172E-02</totfact>
</mgrwt>
</event>
<event>
 6    1  0.1072514E-005  0.5645514E+03  0.7818608E-02  0.9981809E-01
          1   -1    0    0  501    0  0.00000000000E+00  0.00000000000E+00  0.67577048999E+03  0.67577048999E+03  0.00000000000E+00 0. -1.
         -1   -1    0    0    0  501 -0.00000000000E+00 -0.00000000000E+00 -0.11790921018E+03  0.11790921018E+03  0.00000000000E+00 0.  1.
         23    2    1    2    0    0  0.10552197963E+03  0.13473051078E+03  0.58880657350E+03  0.61976934993E+03  0.90186847075E+02 0.  0.
         13    1    3    3    0    0  0.26501326268E+02  0.94771486446E+02  0.22942127773E+03  0.24963589007E+03  0.00000000000E+00 0. -1.
        -13    1    3    3    0    0  0.79020653366E+02  0.39959024329E+02  0.35938529577E+03  0.37013345985E+03  0.00000000000E+00 0.  1.
         22    1    1    2    0    0 -0.10552197963E+03 -0.13473051078E+03 -0.30945293693E+02  0.17391035024E+03  0.00000000000E+00 0.  1.
<mgrwt>
<rscale>  0 0.56455138E+03</rscale>
<asrwt>0</asrwt>
<pdfrwt beam="1">  1        1 0.10396469E+00 0.56455138E+03</pdfrwt>
<pdfrwt beam="2">  1       -1 0.18139879E-01 0.56455138E+03</pdfrwt>
<totfact> 0.69785887E+02</totfact>
</mgrwt>
</event>
<event>
 6    1  0.1072514E-005  0.2355959E+04  0.7818608E-02  0.8456178E-01
         -1   -1    0    0    0  501 -0.00000000000E+00  0.00000000000E+00  0.11703906919E+04  0.11703906919E+04  0.00000000000E+00 0.  1.
          1   -1    0    0  501    0  0.00000000000E+00 -0.00000000000E+00 -0.11856176356E+04  0.11856176356E+04  0.00000000000E+00 0. -1.
         23    2    1    2    0    0 -0.10561959791E+04  0.50988905733E+03 -0.87054044614E+02  0.11809781451E+04  0.10767625345E+03 0.  0.
         13    1    3    3    0    0 -0.51489847332E+03  0.23046121913E+03 -0.93275288357E+02  0.57178063168E+03  0.00000000000E+00 0.  1.
        -13    1    3    3    0    0 -0.54129750573E+03  0.27942783820E+03  0.62212437426E+01  0.60919751341E+03  0.00000000000E+00 0. -1.
         22    1    1    2    0    0  0.10561959791E+04 -0.50988905733E+03  0.71827100932E+02  0.11750301823E+04  0.00000000000E+00 0. -1.
<mgrwt>
<rscale>  0 0.23559591E+04</rscale>
<asrwt>0</asrwt>
<pdfrwt beam="1">  1        1 0.18240271E+00 0.23559591E+04</pdfrwt>
<pdfrwt beam="2">  1       -1 0.18006011E+00 0.23559591E+04</pdfrwt>
<totfact> 0.20476455E+00</totfact>
</mgrwt>
</event>
<event>
 6    1  0.1072514E-005  0.1935993E+04  0.7818608E-02  0.8637145E-01
         -1   -1    0    0    0  501 -0.00000000000E+00  0.00000000000E+00  0.45906770536E+03  0.45906770536E+03  0.00000000000E+00 0.  1.
          1   -1    0    0  501    0  0.00000000000E+00 -0.00000000000E+00 -0.20411313663E+04  0.20411313663E+04  0.00000000000E+00 0. -1.
         23    2    1    2    0    0 -0.53119280536E+03  0.61499268326E+03 -0.11855899018E+03  0.82621349278E+03  0.90502511423E+02 0.  0.
         13    1    3    3    0    0 -0.18039043254E+03  0.27236440410E+03 -0.31736139417E+02  0.32822288055E+03  0.00000000000E+00 0.  1.
        -13    1    3    3    0    0 -0.35080237281E+03  0.34262827917E+03 -0.86822850767E+02  0.49799061223E+03  0.00000000000E+00 0. -1.
         22    1    1    2    0    0  0.53119280536E+03 -0.61499268326E+03 -0.14635046707E+04  0.16739855788E+04  0.00000000000E+00 0. -1.
<mgrwt>
<rscale>  0 0.19359933E+04</rscale>
<asrwt>0</asrwt>
<pdfrwt beam="1">  1        1 0.31402022E+00 0.19359933E+04</pdfrwt>
<pdfrwt beam="2">  1       -1 0.70625800E-01 0.19359933E+04</pdfrwt>
<totfact> 0.52800642E+00</totfact>
</mgrwt>
</event>
<event>
 6    1  0.1072514E-005  0.2619583E+04  0.7818608E-02  0.8361580E-01
          4   -1    0    0  501    0  0.00000000000E+00  0.00000000000E+00  0.15163479393E+04  0.15163479393E+04  0.00000000000E+00 0. -1.
         -4   -1    0    0    0  501 -0.00000000000E+00 -0.00000000000E+00 -0.11313717681E+04  0.11313717681E+04  0.00000000000E+00 0.  1.
         23    2    1    2    0    0 -0.93437199455E+03  0.73758730513E+03 -0.35550753938E+03  0.12457916841E+04  0.92332295713E+02 0.  0.
         11    1    3    3    0    0 -0.50262744844E+03  0.35313664549E+03 -0.15086541683E+03  0.63253475502E+03  0.00000000000E+00 0.  1.
        -11    1    3    3    0    0 -0.43174454611E+03  0.38445065964E+03 -0.20464212255E+03  0.61325692912E+03  0.00000000000E+00 0. -1.
         22    1    1    2    0    0  0.93437199455E+03 -0.73758730513E+03  0.74048371060E+03  0.14019280233E+04  0.00000000000E+00 0. -1.
<mgrwt>
<rscale>  0 0.26195826E+04</rscale>
<asrwt>0</asrwt>
<pdfrwt beam="1">  1        4 0.23328430E+00 0.26195826E+04</pdfrwt>
<pdfrwt beam="2">  1       -4 0.17405719E+00 0.26195826E+04</pdfrwt>
<totfact> 0.27980047E-02</totfact>
</mgrwt>
</event>
<event>
 6    1  0.1072514E-005  0.1100185E+04  0.7818608E-02  0.9205012E-01
          2   -1    0    0  501    0  0.00000000000E+00  0.00000000000E+00  0.15527624677E+04  0.15527624677E+04  0.00000000000E+00 0. -1.
         -2   -1    0    0    0  501 -0.00000000000E+00 -0.00000000000E+00 -0.19487956949E+03  0.19487956949E+03  0.00000000000E+00 0.  1.
         23    2    1    2    0    0  0.17615429754E+03 -0.51038162784E+03  0.81656173858E+03  0.98308442626E+03  0.90344748889E+02 0.  0.
         11    1    3    3    0    0  0.79264785562E+02 -0.19251810354E+03  0.24094560464E+03  0.31843509671E+03  0.00000000000E+00 0.  1.
        -11    1    3    3    0    0  0.96889511973E+02 -0.31786352429E+03  0.57561613394E+03  0.66464932954E+03  0.00000000000E+00 0. -1.
         22    1    1    2    0    0 -0.17615429754E+03  0.51038162784E+03  0.54132115960E+03  0.76455761091E+03  0.00000000000E+00 0. -1.
<mgrwt>
<rscale>  0 0.11001849E+04</rscale>
<asrwt>0</asrwt>
<pdfrwt beam="1">  1        2 0.23888653E+00 0.11001849E+04</pdfrwt>
<pdfrwt beam="2">  1       -2 0.29981473E-01 0.11001849E+04</pdfrwt>
<totfact> 0.12074776E+02</totfact>
</mgrwt>
</event>
<event>
 6    1  0.1072514E-005  0.2861395E+04  0.7818608E-02  0.8284457E-01
         -1   -1    0    0    0  501 -0.00000000000E+00  0.00000000000E+00  0.98694506544E+03  0.98694506544E+03  0.00000000000E+00 0.  1.
          1   -1    0    0  501    0  0.00000000000E+00 -0.00000000000E+00 -0.20739714711E+04  0.20739714711E+04  0.00000000000E+00 0. -1.
         23    2    1    2    0    0  0.11098765443E+04 -0.21927516722E+03  0.39031731383E+03  0.12001500256E+04  0.90027417380E+02 0.  0.
         11    1    3    3    0    0  0.37061951065E+03 -0.44674489022E+02  0.16239781998E+03  0.40709665139E+03  0.00000000000E+00 0. -1.
        -11    1    3    3    0    0  0.73925703369E+03 -0.17460067820E+03  0.22791949385E+03  0.79305337423E+03  0.00000000000E+00 0.  1.
         22    1    1    2    0    0 -0.11098765443E+04  0.21927516722E+03 -0.14773437195E+04  0.18607665109E+04  0.00000000000E+00 0. -1.
<mgrwt>
<rscale>  0 0.28613954E+04</rscale>
<asrwt>0</asrwt>
<pdfrwt beam="1">  1        1 0.31907253E+00 0.28613954E+04</pdfrwt>
<pdfrwt beam="2">  1       -1 0.15183770E+00 0.28613954E+04</pdfrwt>
<totfact> 0.77162680E-01</totfact>
</mgrwt>
</event>
<event>
 6    1  0.1072514E-005  0.9250826E+03  0.7818608E-02  0.9394759E-01
          1   -1    0    0  501    0  0.00000000000E+00  0.00000000000E+00  0.60843225867E+03  0.60843225867E+03  0.00000000000E+00 0. -1.
         -1   -1    0    0    0  501 -0.00000000000E+00 -0.00000000000E+00 -0.35163234176E+03  0.35163234176E+03  0.00000000000E+00 0.  1.
         23    2    1    2    0    0  0.13375774358E+03  0.34713508377E+03  0.40701799263E+03  0.55886717942E+03  0.90966903607E+02 0.  0.
         11    1    3    3    0    0  0.51574902407E+02  0.23964753339E+03  0.23074309416E+03  0.33665009479E+03  0.00000000000E+00 0.  1.
        -11    1    3    3    0    0  0.82182841177E+02  0.10748755038E+03  0.17627489847E+03  0.22221708463E+03  0.00000000000E+00 0. -1.
         22    1    1    2    0    0 -0.13375774358E+03 -0.34713508377E+03 -0.15021807572E+03  0.40119742101E+03  0.00000000000E+00 0.  1.
<mgrwt>
<rscale>  0 0.92508261E+03</rscale>
<asrwt>0</asrwt>
<pdfrwt beam="1">  1        1 0.93604963E-01 0.92508261E+03</pdfrwt>
<pdfrwt beam="2">  1       -1 0.54097283E-01 0.92508261E+03</pdfrwt>
<totfact> 0.11655123E+02</totfact>
</mgrwt>
</event>
<event>
 6    1  0.1072514E-005  0.2011224E+04  0.7818608E-02  0.8601391E-01
          1   -1    0    0  501    0  0.00000000000E+00  0.00000000000E+00  0.29990414808E+04  0.29990414808E+04  0.00000000000E+00 0. -1.
         -1   -1    0    0    0  501 -0.00000000000E+00 -0.00000000000E+00 -0.33719304461E+03  0.33719304461E+03  0.00000000000E+00 0.  1.
         23    2    1    2    0    0 -0.41838795943E+03  0.81901785096E+03  0.19999890726E+04  0.22031429395E+04  0.89687216292E+02 0.  0.
         13    1    3    3    0    0 -0.28253826770E+03  0.49238483210E+03  0.11503434086E+04  0.12827940807E+04  0.00000000000E+00 0. -1.
        -13    1    3    3    0    0 -0.13584969174E+03  0.32663301886E+03  0.84964566395E+03  0.92034885887E+03  0.00000000000E+00 0.  1.
         22    1    1    2    0    0  0.41838795943E+03 -0.81901785096E+03  0.66185936361E+03  0.11330915859E+04  0.00000000000E+00 0.  1.
<mgrwt>
<rscale>  0 0.20112244E+04</rscale>
<asrwt>0</asrwt>
<pdfrwt beam="1">  1        1 0.46139098E+00 0.20112244E+04</pdfrwt>
<pdfrwt beam="2">  1       -1 0.51875855E-01 0.20112244E+04</pdfrwt>
<totfact> 0.20793618E+00</totfact>
</mgrwt>
</event>
<event>
 6    1  0.1072514E-005  0.4668105E+04  0.7818608E-02  0.7881850E-01
          2   -1    0    0  501    0  0.00000000000E+00  0.00000000000E+00  0.39325473953E+04  0.39325473953E+04  0.00000000000E+00 0. -1.
         -2   -1    0    0    0  501 -0.00000000000E+00 -0.00000000000E+00 -0.13853112208E+04  0.13853112208E+04  0.00000000000E+00 0.  1.
         23    2    1    2    0    0 -0.20026977659E+04 -0.82797647579E+03  0.22590546817E+04  0.31316765654E+04  0.87901477448E+02 0.  0.
         13    1    3    3    0    0 -0.52953445553E+03 -0.25741053585E+03  0.63690852633E+03  0.86736347310E+03  0.00000000000E+00 0.  1.
        -13    1    3    3    0    0 -0.14731633104E+04 -0.57056593994E+03  0.16221461553E+04  0.22643130923E+04  0.00000000000E+00 0. -1.
         22    1    1    2    0    0  0.20026977659E+04  0.82797647579E+03  0.28818149290E+03  0.21861820507E+04  0.00000000000E+00 0.  1.
<mgrwt>
<rscale>  0 0.46681054E+04</rscale>
<asrwt>0</asrwt>
<pdfrwt beam="1">  1        2 0.60500729E+00 0.46681054E+04</pdfrwt>
<pdfrwt beam="2">  1       -2 0.21312480E+00 0.46681054E+04</pdfrwt>
<totfact> 0.31540884E-02</totfact>
</mgrwt>
</event>
<event>
 6    1  0.1072514E-005  0.1600271E+04  0.7818608E-02  0.8820381E-01
         -2   -1    0    0    0  501 -0.00000000000E+00  0.00000000000E+00  0.89620629784E+03  0.89620629784E+03  0.00000000000E+00 0.  1.
          2   -1    0    0  501    0  0.00000000000E+00 -0.00000000000E+00 -0.71436336757E+03  0.71436336757E+03  0.00000000000E+00 0. -1.
         23    2    1    2    0    0  0.34511516433E+03  0.30409235463E+03 -0.56443189238E+03  0.73392678047E+03  0.92133170723E+02 0.  0.
         11    1    3    3    0    0  0.65579811273E+02  0.20080287672E+02 -0.10881039912E+03  0.12862205314E+03  0.00000000000E+00 0.  1.
        -11    1    3    3    0    0  0.27953535306E+03  0.28401206696E+03 -0.45562149327E+03  0.60530472732E+03  0.00000000000E+00 0. -1.
         22    1    1    2    0    0 -0.34511516433E+03 -0.30409235463E+03  0.74627482266E+03  0.87664288495E+03  0.00000000000E+00 0.  1.
<mgrwt>
<rscale>  0 0.16002712E+04</rscale>
<asrwt>0</asrwt>
<pdfrwt beam="1">  1        2 0.10990206E+00 0.16002712E+04</pdfrwt>
<pdfrwt beam="2">  1       -2 0.13787789E+00 0.16002712E+04</pdfrwt>
<totfact> 0.14301441E+01</totfact>
</mgrwt>
</event>
<event>
 6    1  0.1072514E-005  0.4997739E+04  0.7818608E-02  0.7828856E-01
          2   -1    0    0  501    0  0.00000000000E+00  0.00000000000E+00  0.21670790696E+04  0.21670790696E+04  0.00000000000E+00 0.  1.
         -2   -1    0    0    0  501 -0.00000000000E+00 -0.00000000000E+00 -0.28814582788E+04  0.28814582788E+04  0.00000000000E+00 0. -1.
         23    2    1    2    0    0  0.16095720840E+02  0.21457374100E+04 -0.16491371220E+04  0.27079774881E+04  0.95082722163E+02 0.  0.
         11    1    3    3    0    0  0.17881381553E+02  0.15405253273E+04 -0.11299622158E+04  0.19105896046E+04  0.00000000000E+00 0. -1.
        -11    1    3    3    0    0 -0.17856607136E+01  0.60521208263E+03 -0.51917490614E+03  0.79738788347E+03  0.00000000000E+00 0.  1.
         22    1    1    2    0    0 -0.16095720840E+02 -0.21457374100E+04  0.93475791278E+03  0.23405598604E+04  0.00000000000E+00 0.  1.
<mgrwt>
<rscale>  0 0.49977387E+04</rscale>
<asrwt>0</asrwt>
<pdfrwt beam="1">  1        2 0.33339678E+00 0.49977387E+04</pdfrwt>
<pdfrwt beam="2">  1       -2 0.44330127E+00 0.49977387E+04</pdfrwt>
<totfact> 0.15117790E-02</totfact>
</mgrwt>
</event>
<event>
 6    1  0.1072514E-005  0.5091952E+04  0.7818608E-02  0.7814477E-01
         -2   -1    0    0    0  501 -0.00000000000E+00  0.00000000000E+00  0.20588992777E+04  0.20588992777E+04  0.00000000000E+00 0.  1.
          2   -1    0    0  501    0  0.00000000000E+00 -0.00000000000E+00 -0.31482805451E+04  0.31482805451E+04  0.00000000000E+00 0. -1.
         23    2    1    2    0    0  0.12454737906E+04  0.16489011286E+04 -0.20643832056E+04  0.29222928071E+04  0.89651191108E+02 0.  0.
         11    1    3    3    0    0  0.10392592947E+04  0.14097787738E+04 -0.17129733549E+04  0.24498599526E+04  0.00000000000E+00 0. -1.
        -11    1    3    3    0    0  0.20621449586E+03  0.23912235478E+03 -0.35140985070E+03  0.47243285452E+03  0.00000000000E+00 0.  1.
         22    1    1    2    0    0 -0.12454737906E+04 -0.16489011286E+04  0.97500193820E+03  0.22848870157E+04  0.00000000000E+00 0.  1.
<mgrwt>
<rscale>  0 0.50919515E+04</rscale>
<asrwt>0</asrwt>
<pdfrwt beam="1">  1        2 0.48435086E+00 0.50919515E+04</pdfrwt>
<pdfrwt beam="2">  1       -2 0.31675373E+00 0.50919515E+04</pdfrwt>
<totfact> 0.25370271E-02</totfact>
</mgrwt>
</event>
<event>
 6    1  0.1072514E-005  0.7365924E+03  0.7818608E-02  0.9656623E-01
          1   -1    0    0  501    0  0.00000000000E+00  0.00000000000E+00  0.59078909579E+03  0.59078909579E+03  0.00000000000E+00 0. -1.
         -1   -1    0    0    0  501 -0.00000000000E+00 -0.00000000000E+00 -0.22959477660E+03  0.22959477660E+03  0.00000000000E+00 0.  1.
         23    2    1    2    0    0 -0.28837382574E+03 -0.21132302975E+03  0.11568233783E+03  0.38668695140E+03  0.91255185200E+02 0.  0.
         13    1    3    3    0    0 -0.21149463390E+03 -0.14174346441E+03  0.12296810071E+03  0.28274077114E+03  0.00000000000E+00 0.  1.
        -13    1    3    3    0    0 -0.76879191845E+02 -0.69579565337E+02 -0.72857628851E+01  0.10394618027E+03  0.00000000000E+00 0. -1.
         22    1    1    2    0    0  0.28837382574E+03  0.21132302975E+03  0.24551198137E+03  0.43369692098E+03  0.00000000000E+00 0. -1.
<mgrwt>
<rscale>  0 0.73659240E+03</rscale>
<asrwt>0</asrwt>
<pdfrwt beam="1">  1        1 0.90890630E-01 0.73659240E+03</pdfrwt>
<pdfrwt beam="2">  1       -1 0.35322273E-01 0.73659240E+03</pdfrwt>
<totfact> 0.27043580E+02</totfact>
</mgrwt>
</event>
<event>
 6    1  0.1072514E-005  0.1577831E+04  0.7818608E-02  0.8834284E-01
          2   -1    0    0  501    0  0.00000000000E+00  0.00000000000E+00  0.22883351981E+04  0.22883351981E+04  0.00000000000E+00 0. -1.
         -2   -1    0    0    0  501 -0.00000000000E+00 -0.00000000000E+00 -0.27198263575E+03  0.27198263575E+03  0.00000000000E+00 0.  1.
         23    2    1    2    0    0  0.68026259283E+03  0.24982739381E+03  0.15081500830E+04  0.16751959880E+04  0.81203470391E+02 0.  0.
         11    1    3    3    0    0  0.42494801734E+03  0.16514343618E+03  0.10342185130E+04  0.11302482491E+04  0.00000000000E+00 0. -1.
        -11    1    3    3    0    0  0.25531457549E+03  0.84683957638E+02  0.47393156993E+03  0.54494773889E+03  0.00000000000E+00 0.  1.
         22    1    1    2    0    0 -0.68026259283E+03 -0.24982739381E+03  0.50820247936E+03  0.88512184581E+03  0.00000000000E+00 0.  1.
<mgrwt>
<rscale>  0 0.15778307E+04</rscale>
<asrwt>0</asrwt>
<pdfrwt beam="1">  1        2 0.35205156E+00 0.15778307E+04</pdfrwt>
<pdfrwt beam="2">  1       -2 0.41843484E-01 0.15778307E+04</pdfrwt>
<totfact> 0.23959598E+01</totfact>
</mgrwt>
</event>
<event>
 6    1  0.1072514E-005  0.1191581E+04  0.7818608E-02  0.9120257E-01
         -2   -1    0    0    0  501 -0.00000000000E+00  0.00000000000E+00  0.47488471513E+03  0.47488471513E+03  0.00000000000E+00 0.  1.
          2   -1    0    0  501    0  0.00000000000E+00 -0.00000000000E+00 -0.74747940629E+03  0.74747940629E+03  0.00000000000E+00 0. -1.
         23    2    1    2    0    0  0.44899101573E+03  0.37217409817E+03 -0.31529950048E+02  0.59131840123E+03  0.92503093623E+02 0.  0.
         13    1    3    3    0    0  0.17240776358E+03  0.90375898392E+02 -0.26327416528E+02  0.19643159831E+03  0.00000000000E+00 0. -1.
        -13    1    3    3    0    0  0.27658325215E+03  0.28179819977E+03 -0.52025335198E+01  0.39488680292E+03  0.00000000000E+00 0.  1.
         22    1    1    2    0    0 -0.44899101573E+03 -0.37217409817E+03 -0.24106474112E+03  0.63104572019E+03  0.00000000000E+00 0. -1.
<mgrwt>
<rscale>  0 0.11915814E+04</rscale>
<asrwt>0</asrwt>
<pdfrwt beam="1">  1        2 0.11499683E+00 0.11915814E+04</pdfrwt>
<pdfrwt beam="2">  1       -2 0.73059187E-01 0.11915814E+04</pdfrwt>
<totfact> 0.62956425E+01</totfact>
</mgrwt>
</event>
<event>
 6    1  0.1072514E-005  0.9880254E+03  0.7818608E-02  0.9321777E-01
          2   -1    0    0  501    0  0.00000000000E+00  0.00000000000E+00  0.20033992058E+04  0.20033992058E+04  0.00000000000E+00 0.  1.
         -2   -1    0    0    0  501 -0.00000000000E+00 -0.00000000000E+00 -0.12181724105E+03  0.12181724105E+03  0.00000000000E+00 0. -1.
         23    2    1    2    0    0  0.13445689299E+03  0.31606640472E+03  0.17011018511E+04  0.17372091020E+04  0.78557799637E+02 0.  0.
         11    1    3    3    0    0  0.48176883420E+02  0.48755232449E+02  0.43113752009E+03  0.43655199692E+03  0.00000000000E+00 0.  1.
        -11    1    3    3    0    0  0.86280009569E+02  0.26731117227E+03  0.12699643310E+04  0.13006571051E+04  0.00000000000E+00 0. -1.
         22    1    1    2    0    0 -0.13445689299E+03 -0.31606640472E+03  0.18048011367E+03  0.38800734490E+03  0.00000000000E+00 0. -1.
<mgrwt>
<rscale>  0 0.98802543E+03</rscale>
<asrwt>0</asrwt>
<pdfrwt beam="1">  1        2 0.30821524E+00 0.98802543E+03</pdfrwt>
<pdfrwt beam="2">  1       -2 0.18741115E-01 0.98802543E+03</pdfrwt>
<totfact> 0.15981562E+02</totfact>
</mgrwt>
</event>
<event>
 6    1  0.1072514E-005  0.2247579E+04  0.7818608E-02  0.8498882E-01
          1   -1    0    0  501    0  0.00000000000E+00  0.00000000000E+00  0.21926458586E+04  0.21926458586E+04  0.00000000000E+00 0. -1.
         -1   -1    0    0    0  501 -0.00000000000E+00 -0.00000000000E+00 -0.57597216923E+03  0.57597216923E+03  0.00000000000E+00 0.  1.
         23    2    1    2    0    0 -0.98445376130E+03 -0.28966135908E+03  0.13690993978E+04  0.17129921751E+04  0.82801689675E+02 0.  0.
         13    1    3    3    0    0 -0.40998463338E+03 -0.14978363238E+03  0.63154485558E+03  0.76770530853E+03  0.00000000000E+00 0. -1.
        -13    1    3    3    0    0 -0.57446912791E+03 -0.13987772670E+03  0.73755454226E+03  0.94528686660E+03  0.00000000000E+00 0.  1.
         22    1    1    2    0    0  0.98445376130E+03  0.28966135908E+03  0.24757429153E+03  0.10556258527E+04  0.00000000000E+00 0.  1.
<mgrwt>
<rscale>  0 0.22475791E+04</rscale>
<asrwt>0</asrwt>
<pdfrwt beam="1">  1        1 0.33733013E+00 0.22475791E+04</pdfrwt>
<pdfrwt beam="2">  1       -1 0.88611104E-01 0.22475791E+04</pdfrwt>
<totfact> 0.25010039E+00</totfact>
</mgrwt>
</event>
<event>
 6    1  0.1072514E-005  0.7802427E+03  0.7818608E-02  0.9589064E-01
          1   -1    0    0  501    0  0.00000000000E+00  0.00000000000E+00  0.12027370252E+04  0.12027370252E+04  0.00000000000E+00 0. -1.
         -1   -1    0    0    0  501 -0.00000000000E+00 -0.00000000000E+00 -0.12654025797E+03  0.12654025797E+03  0.00000000000E+00 0.  1.
         23    2    1    2    0    0 -0.25298377736E+03 -0.10705126779E+03  0.10045318453E+04  0.10453818331E+04  0.90984521306E+02 0.  0.
         11    1    3    3    0    0 -0.51695067668E+02 -0.61317961283E+02  0.35004811945E+03  0.35911830687E+03  0.00000000000E+00 0. -1.
        -11    1    3    3    0    0 -0.20128870969E+03 -0.45733306511E+02  0.65448372588E+03  0.68626352621E+03  0.00000000000E+00 0.  1.
         22    1    1    2    0    0  0.25298377736E+03  0.10705126779E+03  0.71664921871E+02  0.28389545007E+03  0.00000000000E+00 0.  1.
<mgrwt>
<rscale>  0 0.78024266E+03</rscale>
<asrwt>0</asrwt>
<pdfrwt beam="1">  1        1 0.18503646E+00 0.78024266E+03</pdfrwt>
<pdfrwt beam="2">  1       -1 0.19467733E-01 0.78024266E+03</pdfrwt>
<totfact> 0.23033479E+02</totfact>
</mgrwt>
</event>
<event>
 6    1  0.1072514E-005  0.2652889E+04  0.7818608E-02  0.8350455E-01
         -2   -1    0    0    0  501 -0.00000000000E+00  0.00000000000E+00  0.11817110619E+04  0.11817110619E+04  0.00000000000E+00 0.  1.
          2   -1    0    0  501    0  0.00000000000E+00 -0.00000000000E+00 -0.14889050329E+04  0.14889050329E+04  0.00000000000E+00 0. -1.
         23    2    1    2    0    0 -0.99143776466E+03  0.25292815914E+03  0.69348907398E+03  0.12394319517E+04  0.91339872405E+02 0.  0.
         13    1    3    3    0    0 -0.36860078263E+03  0.54918038166E+02  0.27879890638E+03  0.46541525337E+03  0.00000000000E+00 0. -1.
        -13    1    3    3    0    0 -0.62283698203E+03  0.19801012098E+03  0.41469016761E+03  0.77401669834E+03  0.00000000000E+00 0.  1.
         22    1    1    2    0    0  0.99143776466E+03 -0.25292815914E+03 -0.10006830449E+04  0.14311841431E+04  0.00000000000E+00 0. -1.
<mgrwt>
<rscale>  0 0.26528894E+04</rscale>
<asrwt>0</asrwt>
<pdfrwt beam="1">  1        2 0.22906231E+00 0.26528894E+04</pdfrwt>
<pdfrwt beam="2">  1       -2 0.18180170E+00 0.26528894E+04</pdfrwt>
<totfact> 0.19989280E+00</totfact>
</mgrwt>
</event>
<event>
 6    1  0.1072514E-005  0.4056090E+04  0.7818608E-02  0.7993326E-01
          2   -1    0    0  501    0  0.00000000000E+00  0.00000000000E+00  0.39284132196E+04  0.39284132196E+04  0.00000000000E+00 0. -1.
         -2   -1    0    0    0  501 -0.00000000000E+00 -0.00000000000E+00 -0.10469791339E+04  0.10469791339E+04  0.00000000000E+00 0.  1.
         23    2    1    2    0    0  0.19914317785E+04 -0.11263531105E+03  0.99828074741E+03  0.22322638955E+04  0.89165053718E+02 0.  0.
         13    1    3    3    0    0  0.78258708532E+03 -0.18121321111E+02  0.43073605880E+03  0.89347886418E+03  0.00000000000E+00 0.  1.
        -13    1    3    3    0    0  0.12088446932E+04 -0.94513989943E+02  0.56754468861E+03  0.13387850313E+04  0.00000000000E+00 0. -1.
         22    1    1    2    0    0 -0.19914317785E+04  0.11263531105E+03  0.18831533383E+04  0.27431284580E+04  0.00000000000E+00 0.  1.
<mgrwt>
<rscale>  0 0.40560901E+04</rscale>
<asrwt>0</asrwt>
<pdfrwt beam="1">  1        2 0.60437126E+00 0.40560901E+04</pdfrwt>
<pdfrwt beam="2">  1       -2 0.16107372E+00 0.40560901E+04</pdfrwt>
<totfact> 0.75574118E-02</totfact>
</mgrwt>
</event>
<event>
 6    1  0.1072514E-005  0.2581311E+04  0.7818608E-02  0.8374577E-01
          2   -1    0    0  501    0  0.00000000000E+00  0.00000000000E+00  0.14544564972E+04  0.14544564972E+04  0.00000000000E+00 0. -1.
         -2   -1    0    0    0  501 -0.00000000000E+00 -0.00000000000E+00 -0.11453015768E+04  0.11453015768E+04  0.00000000000E+00 0.  1.
         23    2    1    2    0    0 -0.12027389669E+04  0.26309009996E+03 -0.22944883660E+03  0.12559234747E+04  0.94337598379E+02 0.  0.
         11    1    3    3    0    0 -0.53203058052E+03  0.10262036945E+03 -0.14665652467E+03  0.56133378222E+03  0.00000000000E+00 0.  1.
        -11    1    3    3    0    0 -0.67070838639E+03  0.16046973051E+03 -0.82792311924E+02  0.69458969247E+03  0.00000000000E+00 0. -1.
         22    1    1    2    0    0  0.12027389669E+04 -0.26309009996E+03  0.53860375703E+03  0.13438345993E+04  0.00000000000E+00 0.  1.
<mgrwt>
<rscale>  0 0.25813108E+04</rscale>
<asrwt>0</asrwt>
<pdfrwt beam="1">  1        2 0.22376254E+00 0.25813108E+04</pdfrwt>
<pdfrwt beam="2">  1       -2 0.17620024E+00 0.25813108E+04</pdfrwt>
<totfact> 0.23001872E+00</totfact>
</mgrwt>
</event>
<event>
 6    1  0.1072514E-005  0.4405223E+04  0.7818608E-02  0.7927443E-01
          2   -1    0    0  501    0  0.00000000000E+00  0.00000000000E+00  0.23379745302E+04  0.23379745302E+04  0.00000000000E+00 0. -1.
         -2   -1    0    0    0  501 -0.00000000000E+00 -0.00000000000E+00 -0.20750860444E+04  0.20750860444E+04  0.00000000000E+00 0.  1.
         23    2    1    2    0    0 -0.11396709370E+04 -0.10169174679E+04  0.17200145058E+04  0.23020922614E+04  0.90597452311E+02 0.  0.
         11    1    3    3    0    0 -0.81293209353E+03 -0.72905427076E+03  0.11669360167E+04  0.15981609385E+04  0.00000000000E+00 0.  1.
        -11    1    3    3    0    0 -0.32673884348E+03 -0.28786319711E+03  0.55307848915E+03  0.70393132282E+03  0.00000000000E+00 0. -1.
         22    1    1    2    0    0  0.11396709370E+04  0.10169174679E+04 -0.14571260200E+04  0.21109683132E+04  0.00000000000E+00 0.  1.
<mgrwt>
<rscale>  0 0.44052234E+04</rscale>
<asrwt>0</asrwt>
<pdfrwt beam="1">  1        2 0.35968839E+00 0.44052234E+04</pdfrwt>
<pdfrwt beam="2">  1       -2 0.31924401E+00 0.44052234E+04</pdfrwt>
<totfact> 0.79715639E-02</totfact>
</mgrwt>
</event>
<event>
 6    1  0.1072514E-005  0.4404560E+04  0.7818608E-02  0.7927562E-01
          2   -1    0    0  501    0  0.00000000000E+00  0.00000000000E+00  0.26323413451E+04  0.26323413451E+04  0.00000000000E+00 0. -1.
         -2   -1    0    0    0  501 -0.00000000000E+00 -0.00000000000E+00 -0.18424804171E+04  0.18424804171E+04  0.00000000000E+00 0.  1.
         23    2    1    2    0    0  0.63464919002E+03  0.10109958489E+04  0.22741114161E+04  0.25701192362E+04  0.95068157262E+02 0.  0.
         13    1    3    3    0    0  0.34159810196E+03  0.60856461186E+03  0.13954189268E+04  0.15602032340E+04  0.00000000000E+00 0.  1.
        -13    1    3    3    0    0  0.29305108807E+03  0.40243123702E+03  0.87869248929E+03  0.10099160022E+04  0.00000000000E+00 0. -1.
         22    1    1    2    0    0 -0.63464919002E+03 -0.10109958489E+04 -0.14842504881E+04  0.19047025259E+04  0.00000000000E+00 0.  1.
<mgrwt>
<rscale>  0 0.44045601E+04</rscale>
<asrwt>0</asrwt>
<pdfrwt beam="1">  1        2 0.40497559E+00 0.44045601E+04</pdfrwt>
<pdfrwt beam="2">  1       -2 0.28345853E+00 0.44045601E+04</pdfrwt>
<totfact> 0.89211259E-02</totfact>
</mgrwt>
</event>
<event>
 6    1  0.1072514E-005  0.2584109E+04  0.7818608E-02  0.8373619E-01
          2   -1    0    0  501    0  0.00000000000E+00  0.00000000000E+00  0.27549655807E+04  0.27549655807E+04  0.00000000000E+00 0. -1.
         -2   -1    0    0    0  501 -0.00000000000E+00 -0.00000000000E+00 -0.60596195311E+03  0.60596195311E+03  0.00000000000E+00 0.  1.
         23    2    1    2    0    0 -0.51635134839E+03 -0.30454454480E+02 -0.46190633362E+03  0.69927447334E+03  0.89895156931E+02 0.  0.
         11    1    3    3    0    0 -0.88778921202E+02  0.14310894157E+02 -0.45573800094E+02  0.10081403571E+03  0.00000000000E+00 0. -1.
        -11    1    3    3    0    0 -0.42757242718E+03 -0.44765348637E+02 -0.41633253353E+03  0.59846043762E+03  0.00000000000E+00 0.  1.
         22    1    1    2    0    0  0.51635134839E+03  0.30454454480E+02  0.26109099612E+04  0.26616530605E+04  0.00000000000E+00 0. -1.
<mgrwt>
<rscale>  0 0.25841086E+04</rscale>
<asrwt>0</asrwt>
<pdfrwt beam="1">  1        2 0.42384085E+00 0.25841086E+04</pdfrwt>
<pdfrwt beam="2">  1       -2 0.93224917E-01 0.25841086E+04</pdfrwt>
<totfact> 0.21232032E+00</totfact>
</mgrwt>
</event>
<event>
 6    1  0.1072514E-005  0.1760196E+04  0.7818608E-02  0.8727758E-01
         -2   -1    0    0    0  501 -0.00000000000E+00  0.00000000000E+00  0.27437359295E+03  0.27437359295E+03  0.00000000000E+00 0.  1.
          2   -1    0    0  501    0  0.00000000000E+00 -0.00000000000E+00 -0.28230564965E+04  0.28230564965E+04  0.00000000000E+00 0. -1.
         23    2    1    2    0    0  0.60229900202E+03  0.56041810878E+03 -0.18159936244E+04  0.19957649297E+04  0.91718407441E+02 0.  0.
         11    1    3    3    0    0  0.16334088292E+03  0.18555563381E+03 -0.62968063486E+03  0.67646791438E+03  0.00000000000E+00 0.  1.
        -11    1    3    3    0    0  0.43895811910E+03  0.37486247498E+03 -0.11863129895E+04  0.13192970153E+04  0.00000000000E+00 0. -1.
         22    1    1    2    0    0 -0.60229900202E+03 -0.56041810878E+03 -0.73268927919E+03  0.11016651598E+04  0.00000000000E+00 0. -1.
<mgrwt>
<rscale>  0 0.17601956E+04</rscale>
<asrwt>0</asrwt>
<pdfrwt beam="1">  1        2 0.43431638E+00 0.17601956E+04</pdfrwt>
<pdfrwt beam="2">  1       -2 0.42211322E-01 0.17601956E+04</pdfrwt>
<totfact> 0.11314372E+01</totfact>
</mgrwt>
</event>
<event>
 6    1  0.1072514E-005  0.2690478E+04  0.7818608E-02  0.8338101E-01
          2   -1    0    0  501    0  0.00000000000E+00  0.00000000000E+00  0.18544088343E+04  0.18544088343E+04  0.00000000000E+00 0. -1.
         -2   -1    0    0    0  501 -0.00000000000E+00 -0.00000000000E+00 -0.97587296510E+03  0.97587296510E+03  0.00000000000E+00 0.  1.
         23    2    1    2    0    0 -0.11087504552E+04  0.53030706860E+03  0.10106676084E+04  0.15941539923E+04  0.96564887800E+02 0.  0.
         11    1    3    3    0    0 -0.96648776541E+03  0.44233704962E+03  0.90766603063E+03  0.13977189593E+04  0.00000000000E+00 0. -1.
        -11    1    3    3    0    0 -0.14226268980E+03  0.87970018979E+02  0.10300157778E+03  0.19643503296E+03  0.00000000000E+00 0.  1.
         22    1    1    2    0    0  0.11087504552E+04 -0.53030706860E+03 -0.13213173922E+03  0.12361278071E+04  0.00000000000E+00 0. -1.
<mgrwt>
<rscale>  0 0.26904776E+04</rscale>
<asrwt>0</asrwt>
<pdfrwt beam="1">  1        2 0.28529367E+00 0.26904776E+04</pdfrwt>
<pdfrwt beam="2">  1       -2 0.15013430E+00 0.26904776E+04</pdfrwt>
<totfact> 0.21126262E+00</totfact>
</mgrwt>
</event>
<event>
 6    1  0.1072514E-005  0.1850244E+04  0.7818608E-02  0.8680027E-01
          1   -1    0    0  501    0  0.00000000000E+00  0.00000000000E+00  0.47149906309E+03  0.47149906309E+03  0.00000000000E+00 0. -1.
         -1   -1    0    0    0  501 -0.00000000000E+00 -0.00000000000E+00 -0.18151689618E+04  0.18151689618E+04  0.00000000000E+00 0.  1.
         23    2    1    2    0    0 -0.40332676824E+03  0.30607104150E+03 -0.16271469200E+04  0.17063998231E+04  0.88551073503E+02 0.  0.
         13    1    3    3    0    0 -0.27151605670E+03  0.24604519477E+03 -0.10829156445E+04  0.11432259182E+04  0.00000000000E+00 0. -1.
        -13    1    3    3    0    0 -0.13181071154E+03  0.60025846735E+02 -0.54423127547E+03  0.56317390490E+03  0.00000000000E+00 0.  1.
         22    1    1    2    0    0  0.40332676824E+03 -0.30607104150E+03  0.28347702127E+03  0.58026820179E+03  0.00000000000E+00 0. -1.
<mgrwt>
<rscale>  0 0.18502437E+04</rscale>
<asrwt>0</asrwt>
<pdfrwt beam="1">  1        1 0.72538318E-01 0.18502437E+04</pdfrwt>
<pdfrwt beam="2">  1       -1 0.27925676E+00 0.18502437E+04</pdfrwt>
<totfact> 0.20328004E+00</totfact>
</mgrwt>
</event>
<event>
 6    1  0.1072514E-005  0.3179292E+04  0.7818608E-02  0.8194308E-01
         -2   -1    0    0    0  501 -0.00000000000E+00  0.00000000000E+00  0.11327111328E+04  0.11327111328E+04  0.00000000000E+00 0. -1.
          2   -1    0    0  501    0  0.00000000000E+00 -0.00000000000E+00 -0.22309076792E+04  0.22309076792E+04  0.00000000000E+00 0.  1.
         23    2    1    2    0    0  0.29480285586E+02 -0.66446188492E+03 -0.20754707668E+04  0.21814836313E+04  0.94409990081E+02 0.  0.
         11    1    3    3    0    0  0.47824933025E+02 -0.18092456501E+03 -0.62634851907E+03  0.65370741910E+03  0.00000000000E+00 0. -1.
        -11    1    3    3    0    0 -0.18344647439E+02 -0.48353731991E+03 -0.14491222477E+04  0.15277762122E+04  0.00000000000E+00 0.  1.
         22    1    1    2    0    0 -0.29480285586E+02  0.66446188492E+03  0.97727422031E+03  0.11821351807E+04  0.00000000000E+00 0. -1.
<mgrwt>
<rscale>  0 0.31792917E+04</rscale>
<asrwt>0</asrwt>
<pdfrwt beam="1">  1        2 0.34321657E+00 0.31792917E+04</pdfrwt>
<pdfrwt beam="2">  1       -2 0.17426325E+00 0.31792917E+04</pdfrwt>
<totfact> 0.83200575E-01</totfact>
</mgrwt>
</event>
<event>
 6    1  0.1072514E-005  0.2025091E+04  0.7818608E-02  0.8594979E-01
          2   -1    0    0  501    0  0.00000000000E+00  0.00000000000E+00  0.16749844138E+04  0.16749844138E+04  0.00000000000E+00 0. -1.
         -2   -1    0    0    0  501 -0.00000000000E+00 -0.00000000000E+00 -0.61209433893E+03  0.61209433893E+03  0.00000000000E+00 0.  1.
         23    2    1    2    0    0  0.66833123502E+03 -0.58139962275E+03 -0.16302958683E+02  0.89088758935E+03  0.93395660273E+02 0.  0.
         13    1    3    3    0    0  0.21619934468E+03 -0.20461634681E+03 -0.47845027355E+02  0.30149486341E+03  0.00000000000E+00 0.  1.
        -13    1    3    3    0    0  0.45213189035E+03 -0.37678327595E+03  0.31542068672E+02  0.58939272595E+03  0.00000000000E+00 0. -1.
         22    1    1    2    0    0 -0.66833123502E+03  0.58139962275E+03  0.10791930336E+04  0.13961911634E+04  0.00000000000E+00 0. -1.
<mgrwt>
<rscale>  0 0.20250911E+04</rscale>
<asrwt>0</asrwt>
<pdfrwt beam="1">  1        2 0.25768991E+00 0.20250911E+04</pdfrwt>
<pdfrwt beam="2">  1       -2 0.94168361E-01 0.20250911E+04</pdfrwt>
<totfact> 0.89326726E+00</totfact>
</mgrwt>
</event>
<event>
 6    1  0.1072514E-005  0.1107026E+04  0.7818608E-02  0.9198371E-01
         -2   -1    0    0    0  501 -0.00000000000E+00  0.00000000000E+00  0.55291678707E+03  0.55291678707E+03  0.00000000000E+00 0.  1.
          2   -1    0    0  501    0  0.00000000000E+00 -0.00000000000E+00 -0.55411003253E+03  0.55411003253E+03  0.00000000000E+00 0. -1.
         23    2    1    2    0    0  0.46356781687E+03 -0.29172796967E+03 -0.48433850387E+02  0.55727050641E+03  0.90577316827E+02 0.  0.
         13    1    3    3    0    0  0.41385452437E+03 -0.23371417298E+03 -0.63155262846E+02  0.47946477370E+03  0.00000000000E+00 0. -1.
        -13    1    3    3    0    0  0.49713292500E+02 -0.58013796689E+02  0.14721412459E+02  0.77805732708E+02  0.00000000000E+00 0.  1.
         22    1    1    2    0    0 -0.46356781687E+03  0.29172796967E+03  0.47240604927E+02  0.54975631318E+03  0.00000000000E+00 0. -1.
<mgrwt>
<rscale>  0 0.11070262E+04</rscale>
<asrwt>0</asrwt>
<pdfrwt beam="1">  1        2 0.85247698E-01 0.11070262E+04</pdfrwt>
<pdfrwt beam="2">  1       -2 0.85064121E-01 0.11070262E+04</pdfrwt>
<totfact> 0.65176472E+01</totfact>
</mgrwt>
</event>
<event>
 6    1  0.1072514E-005  0.1385053E+04  0.7818608E-02  0.8964710E-01
          2   -1    0    0  501    0  0.00000000000E+00  0.00000000000E+00  0.88030631982E+03  0.88030631982E+03  0.00000000000E+00 0. -1.
         -2   -1    0    0    0  501 -0.00000000000E+00 -0.00000000000E+00 -0.54480234053E+03  0.54480234053E+03  0.00000000000E+00 0.  1.
         23    2    1    2    0    0 -0.55466405029E+03 -0.42754639887E+02 -0.25070929391E+03  0.61694644297E+03  0.91036231949E+02 0.  0.
         13    1    3    3    0    0 -0.25834603138E+03 -0.42616179084E+02 -0.74650123210E+02  0.27227091572E+03  0.00000000000E+00 0. -1.
        -13    1    3    3    0    0 -0.29631801891E+03 -0.13846080309E+00 -0.17605917070E+03  0.34467552725E+03  0.00000000000E+00 0.  1.
         22    1    1    2    0    0  0.55466405029E+03  0.42754639887E+02  0.58621327319E+03  0.80816221737E+03  0.00000000000E+00 0. -1.
<mgrwt>
<rscale>  0 0.13850530E+04</rscale>
<asrwt>0</asrwt>
<pdfrwt beam="1">  1        2 0.13543174E+00 0.13850530E+04</pdfrwt>
<pdfrwt beam="2">  1       -2 0.83815745E-01 0.13850530E+04</pdfrwt>
<totfact> 0.36668524E+01</totfact>
</mgrwt>
</event>
<event>
 6    1  0.1072514E-005  0.2600927E+04  0.7818608E-02  0.8367886E-01
         -1   -1    0    0    0  501 -0.00000000000E+00  0.00000000000E+00  0.73395198698E+03  0.73395198698E+03  0.00000000000E+00 0.  1.
          1   -1    0    0  501    0  0.00000000000E+00 -0.00000000000E+00 -0.23042456272E+04  0.23042456272E+04  0.00000000000E+00 0. -1.
         23    2    1    2    0    0  0.11106436831E+04  0.67343243438E+03 -0.79345986607E+03  0.15247540747E+04  0.90861404744E+02 0.  0.
         13    1    3    3    0    0  0.77642842241E+03  0.48296092834E+03 -0.60480469800E+03  0.10963033687E+04  0.00000000000E+00 0. -1.
        -13    1    3    3    0    0  0.33421526067E+03  0.19047150605E+03 -0.18865516807E+03  0.42845070606E+03  0.00000000000E+00 0.  1.
         22    1    1    2    0    0 -0.11106436831E+04 -0.67343243438E+03 -0.77683377411E+03  0.15134435394E+04  0.00000000000E+00 0.  1.
<mgrwt>
<rscale>  0 0.26009273E+04</rscale>
<asrwt>0</asrwt>
<pdfrwt beam="1">  1        1 0.35449932E+00 0.26009273E+04</pdfrwt>
<pdfrwt beam="2">  1       -1 0.11291569E+00 0.26009273E+04</pdfrwt>
<totfact> 0.11672164E+00</totfact>
</mgrwt>
</event>
<event>
 6    1  0.1072514E-005  0.5833073E+04  0.7818608E-02  0.7711450E-01
         -1   -1    0    0    0  501 -0.00000000000E+00  0.00000000000E+00  0.31399737960E+04  0.31399737960E+04  0.00000000000E+00 0.  1.
          1   -1    0    0  501    0  0.00000000000E+00 -0.00000000000E+00 -0.27089983501E+04  0.27089983501E+04  0.00000000000E+00 0. -1.
         23    2    1    2    0    0  0.27615689045E+04  0.82237207936E+03  0.66328559817E+03  0.29582063898E+04  0.92079361286E+02 0.  0.
         13    1    3    3    0    0  0.44889087807E+03  0.10473376626E+03  0.12586403087E+03  0.47782207617E+03  0.00000000000E+00 0.  1.
        -13    1    3    3    0    0  0.23126780264E+04  0.71763831310E+03  0.53742156730E+03  0.24803843137E+04  0.00000000000E+00 0. -1.
         22    1    1    2    0    0 -0.27615689045E+04 -0.82237207936E+03 -0.23231015228E+03  0.28907657564E+04  0.00000000000E+00 0. -1.
<mgrwt>
<rscale>  0 0.58330725E+04</rscale>
<asrwt>0</asrwt>
<pdfrwt beam="1">  1        1 0.41676898E+00 0.58330725E+04</pdfrwt>
<pdfrwt beam="2">  1       -1 0.48307289E+00 0.58330725E+04</pdfrwt>
<totfact> 0.12695603E-03</totfact>
</mgrwt>
</event>
<event>
 6    1  0.1072514E-005  0.2727108E+04  0.7818608E-02  0.8326263E-01
         -2   -1    0    0    0  501 -0.00000000000E+00  0.00000000000E+00  0.15789188798E+04  0.15789188798E+04  0.00000000000E+00 0.  1.
          2   -1    0    0  501    0  0.00000000000E+00 -0.00000000000E+00 -0.11775649215E+04  0.11775649215E+04  0.00000000000E+00 0. -1.
         23    2    1    2    0    0  0.48721238261E+03  0.10214554897E+04  0.96698654475E+03  0.14913010294E+04  0.90380082415E+02 0.  0.
         11    1    3    3    0    0  0.17495680356E+03  0.34624003875E+03  0.27719536931E+03  0.47679064621E+03  0.00000000000E+00 0.  1.
        -11    1    3    3    0    0  0.31225557905E+03  0.67521545098E+03  0.68979117543E+03  0.10145103832E+04  0.00000000000E+00 0. -1.
         22    1    1    2    0    0 -0.48721238261E+03 -0.10214554897E+04 -0.56563258645E+03  0.12651827718E+04  0.00000000000E+00 0. -1.
<mgrwt>
<rscale>  0 0.27271080E+04</rscale>
<asrwt>0</asrwt>
<pdfrwt beam="1">  1        2 0.18116383E+00 0.27271080E+04</pdfrwt>
<pdfrwt beam="2">  1       -2 0.24291060E+00 0.27271080E+04</pdfrwt>
<totfact> 0.12153689E+00</totfact>
</mgrwt>
</event>
<event>
 6    1  0.1072514E-005  0.2310904E+04  0.7818608E-02  0.8473634E-01
          2   -1    0    0  501    0  0.00000000000E+00  0.00000000000E+00  0.15457374030E+04  0.15457374030E+04  0.00000000000E+00 0. -1.
         -2   -1    0    0    0  501 -0.00000000000E+00 -0.00000000000E+00 -0.86371017549E+03  0.86371017549E+03  0.00000000000E+00 0.  1.
         23    2    1    2    0    0 -0.42875553097E+03  0.91339040816E+03  0.92438646490E+03  0.13717330980E+04  0.95121042284E+02 0.  0.
         13    1    3    3    0    0 -0.91796016474E+02  0.20517963219E+03  0.15476247342E+03  0.27290403677E+03  0.00000000000E+00 0.  1.
        -13    1    3    3    0    0 -0.33695951450E+03  0.70821077597E+03  0.76962399148E+03  0.10988290613E+04  0.00000000000E+00 0. -1.
         22    1    1    2    0    0  0.42875553097E+03 -0.91339040816E+03 -0.24235923738E+03  0.10377144805E+04  0.00000000000E+00 0.  1.
<mgrwt>
<rscale>  0 0.23109038E+04</rscale>
<asrwt>0</asrwt>
<pdfrwt beam="1">  1        2 0.23780575E+00 0.23109038E+04</pdfrwt>
<pdfrwt beam="2">  1       -2 0.13287849E+00 0.23109038E+04</pdfrwt>
<totfact> 0.44517928E+00</totfact>
</mgrwt>
</event>
<event>
 6    1  0.1072514E-005  0.2180730E+04  0.7818608E-02  0.8526492E-01
         -2   -1    0    0    0  501 -0.00000000000E+00  0.00000000000E+00  0.71942939077E+03  0.71942939077E+03  0.00000000000E+00 0.  1.
          2   -1    0    0  501    0  0.00000000000E+00 -0.00000000000E+00 -0.16525542355E+04  0.16525542355E+04  0.00000000000E+00 0. -1.
         23    2    1    2    0    0  0.96341171127E+03 -0.50257960999E+03 -0.39783531998E+03  0.11606689417E+04  0.90172393651E+02 0.  0.
         11    1    3    3    0    0  0.61065555023E+03 -0.28094331860E+03 -0.27574239789E+03  0.72654195975E+03  0.00000000000E+00 0.  1.
        -11    1    3    3    0    0  0.35275616104E+03 -0.22163629139E+03 -0.12209292209E+03  0.43412698193E+03  0.00000000000E+00 0. -1.
         22    1    1    2    0    0 -0.96341171127E+03  0.50257960999E+03 -0.53528952477E+03  0.12113146846E+04  0.00000000000E+00 0.  1.
<mgrwt>
<rscale>  0 0.21807302E+04</rscale>
<asrwt>0</asrwt>
<pdfrwt beam="1">  1        2 0.25423911E+00 0.21807302E+04</pdfrwt>
<pdfrwt beam="2">  1       -2 0.11068145E+00 0.21807302E+04</pdfrwt>
<totfact> 0.61765116E+00</totfact>
</mgrwt>
</event>
<event>
 6    1  0.1072514E-005  0.2885907E+04  0.7818608E-02  0.8277083E-01
          1   -1    0    0  501    0  0.00000000000E+00  0.00000000000E+00  0.79149639237E+03  0.79149639237E+03  0.00000000000E+00 0. -1.
         -1   -1    0    0    0  501 -0.00000000000E+00 -0.00000000000E+00 -0.26306054948E+04  0.26306054948E+04  0.00000000000E+00 0.  1.
         23    2    1    2    0    0  0.11166963703E+04  0.13208656732E+02 -0.20012848487E+04  0.22936134181E+04  0.91302870623E+02 0.  0.
         11    1    3    3    0    0  0.37652241265E+03 -0.36915510268E+01 -0.76357119700E+03  0.85136580132E+03  0.00000000000E+00 0.  1.
        -11    1    3    3    0    0  0.74017395767E+03  0.16900207759E+02 -0.12377136517E+04  0.14422476168E+04  0.00000000000E+00 0. -1.
         22    1    1    2    0    0 -0.11166963703E+04 -0.13208656732E+02  0.16217574625E+03  0.11284884690E+04  0.00000000000E+00 0. -1.
<mgrwt>
<rscale>  0 0.28859070E+04</rscale>
<asrwt>0</asrwt>
<pdfrwt beam="1">  1        1 0.12176868E+00 0.28859070E+04</pdfrwt>
<pdfrwt beam="2">  1       -1 0.40470854E+00 0.28859070E+04</pdfrwt>
<totfact> 0.12830529E-01</totfact>
</mgrwt>
</event>
<event>
 6    1  0.1072514E-005  0.3652919E+04  0.7818608E-02  0.8078476E-01
         -2   -1    0    0    0  501 -0.00000000000E+00  0.00000000000E+00  0.10464804155E+04  0.10464804155E+04  0.00000000000E+00 0.  1.
          2   -1    0    0  501    0  0.00000000000E+00 -0.00000000000E+00 -0.31877844123E+04  0.31877844123E+04  0.00000000000E+00 0. -1.
         23    2    1    2    0    0  0.12800147557E+04  0.74348226939E+03  0.16664350504E+03  0.14923995264E+04  0.91008948913E+02 0.  0.
         13    1    3    3    0    0  0.11507476942E+04  0.69850390229E+03  0.15461916325E+03  0.13550037058E+04  0.00000000000E+00 0. -1.
        -13    1    3    3    0    0  0.12926706153E+03  0.44978367099E+02  0.12024341793E+02  0.13739582053E+03  0.00000000000E+00 0.  1.
         22    1    1    2    0    0 -0.12800147557E+04 -0.74348226939E+03 -0.23079475019E+04  0.27418653014E+04  0.00000000000E+00 0. -1.
<mgrwt>
<rscale>  0 0.36529188E+04</rscale>
<asrwt>0</asrwt>
<pdfrwt beam="1">  1        2 0.49042836E+00 0.36529188E+04</pdfrwt>
<pdfrwt beam="2">  1       -2 0.16099699E+00 0.36529188E+04</pdfrwt>
<totfact> 0.26517573E-01</totfact>
</mgrwt>
</event>
<event>
 6    1  0.1072514E-005  0.1568475E+04  0.7818608E-02  0.8840153E-01
          2   -1    0    0  501    0  0.00000000000E+00  0.00000000000E+00  0.18087438310E+04  0.18087438310E+04  0.00000000000E+00 0. -1.
         -2   -1    0    0    0  501 -0.00000000000E+00 -0.00000000000E+00 -0.34003053439E+03  0.34003053439E+03  0.00000000000E+00 0.  1.
         23    2    1    2    0    0 -0.12860529484E+03  0.72582501786E+03  0.38074805064E+03  0.83460936250E+03  0.90787837750E+02 0.  0.
         13    1    3    3    0    0 -0.89880603892E+02  0.62055182752E+03  0.35090160103E+03  0.71853672641E+03  0.00000000000E+00 0. -1.
        -13    1    3    3    0    0 -0.38724690949E+02  0.10527319034E+03  0.29846449617E+02  0.11607263609E+03  0.00000000000E+00 0.  1.
         22    1    1    2    0    0  0.12860529484E+03 -0.72582501786E+03  0.10879652460E+04  0.13141650029E+04  0.00000000000E+00 0.  1.
<mgrwt>
<rscale>  0 0.15684746E+04</rscale>
<asrwt>0</asrwt>
<pdfrwt beam="1">  1        2 0.27826828E+00 0.15684746E+04</pdfrwt>
<pdfrwt beam="2">  1       -2 0.52312391E-01 0.15684746E+04</pdfrwt>
<totfact> 0.28287351E+01</totfact>
</mgrwt>
</event>
<event>
 6    1  0.1072514E-005  0.6104879E+03  0.7818608E-02  0.9883883E-01
         -1   -1    0    0    0  501 -0.00000000000E+00  0.00000000000E+00  0.65710975473E+02  0.65710975473E+02  0.00000000000E+00 0.  1.
          1   -1    0    0  501    0  0.00000000000E+00 -0.00000000000E+00 -0.14179347412E+04  0.14179347412E+04  0.00000000000E+00 0. -1.
         23    2    1    2    0    0  0.31177234273E+02  0.11972273300E+03 -0.13526612738E+04  0.13599293308E+04  0.66405650992E+02 0.  0.
         11    1    3    3    0    0  0.50806415327E+02  0.94520219005E+02 -0.96287164661E+03  0.96883289141E+03  0.00000000000E+00 0.  1.
        -11    1    3    3    0    0 -0.19629181055E+02  0.25202513993E+02 -0.38978962715E+03  0.39109643938E+03  0.00000000000E+00 0. -1.
         22    1    1    2    0    0 -0.31177234273E+02 -0.11972273300E+03  0.43750798774E+00  0.12371638593E+03  0.00000000000E+00 0.  1.
<mgrwt>
<rscale>  0 0.61048792E+03</rscale>
<asrwt>0</asrwt>
<pdfrwt beam="1">  1        1 0.21814382E+00 0.61048792E+03</pdfrwt>
<pdfrwt beam="2">  1       -1 0.10109380E-01 0.61048792E+03</pdfrwt>
<totfact> 0.47395375E+02</totfact>
</mgrwt>
</event>
<event>
 6    1  0.1072514E-005  0.2396454E+04  0.7818608E-02  0.8440832E-01
         -2   -1    0    0    0  501 -0.00000000000E+00  0.00000000000E+00  0.14388020207E+04  0.14388020207E+04  0.00000000000E+00 0.  1.
          2   -1    0    0  501    0  0.00000000000E+00 -0.00000000000E+00 -0.99787728670E+03  0.99787728670E+03  0.00000000000E+00 0. -1.
         23    2    1    2    0    0  0.21808625243E+03 -0.10238401392E+04 -0.36837200701E+03  0.11135120999E+04  0.91657061506E+02 0.  0.
         13    1    3    3    0    0  0.14603638533E+03 -0.50005044743E+03 -0.20890861770E+03  0.56126632392E+03  0.00000000000E+00 0.  1.
        -13    1    3    3    0    0  0.72049867097E+02 -0.52378969174E+03 -0.15946338932E+03  0.55224577595E+03  0.00000000000E+00 0. -1.
         22    1    1    2    0    0 -0.21808625243E+03  0.10238401392E+04  0.80929674102E+03  0.13231672075E+04  0.00000000000E+00 0.  1.
<mgrwt>
<rscale>  0 0.23964539E+04</rscale>
<asrwt>0</asrwt>
<pdfrwt beam="1">  1        2 0.15351958E+00 0.23964539E+04</pdfrwt>
<pdfrwt beam="2">  1       -2 0.22135416E+00 0.23964539E+04</pdfrwt>
<totfact> 0.22019878E+00</totfact>
</mgrwt>
</event>
<event>
 6    1  0.1072514E-005  0.2740192E+04  0.7818608E-02  0.8322081E-01
         -2   -1    0    0    0  501 -0.00000000000E+00  0.00000000000E+00  0.74331680498E+03  0.74331680498E+03  0.00000000000E+00 0. -1.
          2   -1    0    0  501    0  0.00000000000E+00 -0.00000000000E+00 -0.25253882270E+04  0.25253882270E+04  0.00000000000E+00 0.  1.
         23    2    1    2    0    0 -0.78231000213E+03 -0.79344139063E+03 -0.18399244387E+04  0.21529518553E+04  0.91222647441E+02 0.  0.
         11    1    3    3    0    0 -0.96689495114E+02 -0.11337405627E+03 -0.30616718917E+03  0.34050092925E+03  0.00000000000E+00 0. -1.
        -11    1    3    3    0    0 -0.68562050701E+03 -0.68006733437E+03 -0.15337572495E+04  0.18124509261E+04  0.00000000000E+00 0.  1.
         22    1    1    2    0    0  0.78231000213E+03  0.79344139063E+03  0.57853016624E+02  0.11157531767E+04  0.00000000000E+00 0. -1.
<mgrwt>
<rscale>  0 0.27401923E+04</rscale>
<asrwt>0</asrwt>
<pdfrwt beam="1">  1        2 0.38852126E+00 0.27401923E+04</pdfrwt>
<pdfrwt beam="2">  1       -2 0.11435643E+00 0.27401923E+04</pdfrwt>
<totfact> 0.17584359E+00</totfact>
</mgrwt>
</event>
<event>
 6    1  0.1072514E-005  0.5701795E+04  0.7818608E-02  0.7728516E-01
          1   -1    0    0  501    0  0.00000000000E+00  0.00000000000E+00  0.18624605114E+04  0.18624605114E+04  0.00000000000E+00 0. -1.
         -1   -1    0    0    0  501 -0.00000000000E+00 -0.00000000000E+00 -0.43639140090E+04  0.43639140090E+04  0.00000000000E+00 0.  1.
         23    2    1    2    0    0 -0.21222483721E+02 -0.12413204602E+04  0.15505904967E+04  0.19884047931E+04  0.89976964191E+02 0.  0.
         11    1    3    3    0    0 -0.51265937031E+02 -0.59962299215E+03  0.72056503093E+03  0.93882367504E+03  0.00000000000E+00 0. -1.
        -11    1    3    3    0    0  0.30043453310E+02 -0.64169746808E+03  0.83002546573E+03  0.10495811181E+04  0.00000000000E+00 0.  1.
         22    1    1    2    0    0  0.21222483721E+02  0.12413204602E+04 -0.40520439942E+04  0.42379697274E+04  0.00000000000E+00 0.  1.
<mgrwt>
<rscale>  0 0.57017953E+04</rscale>
<asrwt>0</asrwt>
<pdfrwt beam="1">  1        1 0.28653239E+00 0.57017953E+04</pdfrwt>
<pdfrwt beam="2">  1       -1 0.67137138E+00 0.57017953E+04</pdfrwt>
<totfact> 0.64090522E-04</totfact>
</mgrwt>
</event>
<event>
 6    1  0.1072514E-005  0.9455435E+03  0.7818608E-02  0.9370375E-01
         -1   -1    0    0    0  501 -0.00000000000E+00  0.00000000000E+00  0.10783037341E+03  0.10783037341E+03  0.00000000000E+00 0.  1.
          1   -1    0    0  501    0  0.00000000000E+00 -0.00000000000E+00 -0.20728214835E+04  0.20728214835E+04  0.00000000000E+00 0. -1.
         23    2    1    2    0    0  0.32354421990E+03 -0.14403578313E+03 -0.16984283736E+04  0.17373879835E+04  0.91819908906E+02 0.  0.
         11    1    3    3    0    0  0.11335861896E+03 -0.88274158376E+01 -0.44578684449E+03  0.46005870330E+03  0.00000000000E+00 0. -1.
        -11    1    3    3    0    0  0.21018560094E+03 -0.13520836729E+03 -0.12526415292E+04  0.12773292802E+04  0.00000000000E+00 0.  1.
         22    1    1    2    0    0 -0.32354421990E+03  0.14403578313E+03 -0.26656273648E+03  0.44326387348E+03  0.00000000000E+00 0.  1.
<mgrwt>
<rscale>  0 0.94554347E+03</rscale>
<asrwt>0</asrwt>
<pdfrwt beam="1">  1        1 0.31889562E+00 0.94554347E+03</pdfrwt>
<pdfrwt beam="2">  1       -1 0.16589288E-01 0.94554347E+03</pdfrwt>
<totfact> 0.75172276E+01</totfact>
</mgrwt>
</event>
<event>
 6    1  0.1072514E-005  0.3243926E+04  0.7818608E-02  0.8177312E-01
          1   -1    0    0  501    0  0.00000000000E+00  0.00000000000E+00  0.24930440132E+04  0.24930440132E+04  0.00000000000E+00 0. -1.
         -1   -1    0    0    0  501 -0.00000000000E+00 -0.00000000000E+00 -0.10552416243E+04  0.10552416243E+04  0.00000000000E+00 0.  1.
         23    2    1    2    0    0 -0.28944194827E+03  0.85771449888E+03 -0.75078754928E+03  0.11798733591E+04  0.94701617267E+02 0.  0.
         11    1    3    3    0    0 -0.21592121409E+03  0.70297862625E+03 -0.56676806584E+03  0.92845407001E+03  0.00000000000E+00 0.  1.
        -11    1    3    3    0    0 -0.73520734174E+02  0.15473587262E+03 -0.18401948344E+03  0.25141928907E+03  0.00000000000E+00 0. -1.
         22    1    1    2    0    0  0.28944194827E+03 -0.85771449888E+03  0.21885899382E+04  0.23684122784E+04  0.00000000000E+00 0. -1.
<mgrwt>
<rscale>  0 0.32439259E+04</rscale>
<asrwt>0</asrwt>
<pdfrwt beam="1">  1        1 0.38354523E+00 0.32439259E+04</pdfrwt>
<pdfrwt beam="2">  1       -1 0.16234487E+00 0.32439259E+04</pdfrwt>
<totfact> 0.32025602E-01</totfact>
</mgrwt>
</event>
<event>
 6    1  0.1072514E-005  0.1705063E+04  0.7818608E-02  0.8758482E-01
          2   -1    0    0  501    0  0.00000000000E+00  0.00000000000E+00  0.83596288724E+03  0.83596288724E+03  0.00000000000E+00 0. -1.
         -2   -1    0    0    0  501 -0.00000000000E+00 -0.00000000000E+00 -0.86942829259E+03  0.86942829259E+03  0.00000000000E+00 0.  1.
         23    2    1    2    0    0  0.21901559073E+03  0.63212509776E+03 -0.54111703609E+03  0.86559349801E+03  0.94310597739E+02 0.  0.
         13    1    3    3    0    0  0.20108212113E+03  0.45500218387E+03 -0.40575343382E+03  0.64194770490E+03  0.00000000000E+00 0.  1.
        -13    1    3    3    0    0  0.17933469599E+02  0.17712291389E+03 -0.13536360227E+03  0.22364579311E+03  0.00000000000E+00 0. -1.
         22    1    1    2    0    0 -0.21901559073E+03 -0.63212509776E+03  0.50765163074E+03  0.83979768182E+03  0.00000000000E+00 0. -1.
<mgrwt>
<rscale>  0 0.17050628E+04</rscale>
<asrwt>0</asrwt>
<pdfrwt beam="1">  1        2 0.12860967E+00 0.17050628E+04</pdfrwt>
<pdfrwt beam="2">  1       -2 0.13375820E+00 0.17050628E+04</pdfrwt>
<totfact> 0.12472063E+01</totfact>
</mgrwt>
</event>
<event>
 6    1  0.1072514E-005  0.5576650E+04  0.7818608E-02  0.7745229E-01
         -2   -1    0    0    0  501 -0.00000000000E+00  0.00000000000E+00  0.18816462298E+04  0.18816462298E+04  0.00000000000E+00 0.  1.
          2   -1    0    0  501    0  0.00000000000E+00 -0.00000000000E+00 -0.41318909410E+04  0.41318909410E+04  0.00000000000E+00 0. -1.
         23    2    1    2    0    0 -0.11197075781E+04  0.16723689305E+04 -0.32052058297E+04  0.37858671688E+04  0.94249185777E+02 0.  0.
         13    1    3    3    0    0 -0.29324568956E+03  0.51367650174E+03 -0.92553291006E+03  0.10983932586E+04  0.00000000000E+00 0. -1.
        -13    1    3    3    0    0 -0.82646188850E+03  0.11586924288E+04 -0.22796729196E+04  0.26874739102E+04  0.00000000000E+00 0.  1.
         22    1    1    2    0    0  0.11197075781E+04 -0.16723689305E+04  0.95496111846E+03  0.22276700020E+04  0.00000000000E+00 0.  1.
<mgrwt>
<rscale>  0 0.55766503E+04</rscale>
<asrwt>0</asrwt>
<pdfrwt beam="1">  1        2 0.63567552E+00 0.55766503E+04</pdfrwt>
<pdfrwt beam="2">  1       -2 0.28948404E+00 0.55766503E+04</pdfrwt>
<totfact> 0.67764841E-03</totfact>
</mgrwt>
</event>
<event>
 6    1  0.1072514E-005  0.8693153E+03  0.7818608E-02  0.9464773E-01
         -2   -1    0    0    0  501 -0.00000000000E+00  0.00000000000E+00  0.39009239912E+03  0.39009239912E+03  0.00000000000E+00 0.  1.
          2   -1    0    0  501    0  0.00000000000E+00 -0.00000000000E+00 -0.48431421436E+03  0.48431421436E+03  0.00000000000E+00 0. -1.
         23    2    1    2    0    0  0.34475873310E+03  0.12816514104E+03  0.17598069774E+03  0.41801392571E+03  0.92095323885E+02 0.  0.
         13    1    3    3    0    0  0.28929417390E+03  0.84841949978E+02  0.10821118756E+03  0.32031068767E+03  0.00000000000E+00 0.  1.
        -13    1    3    3    0    0  0.55464559204E+02  0.43323191064E+02  0.67769510184E+02  0.97703238033E+02  0.00000000000E+00 0. -1.
         22    1    1    2    0    0 -0.34475873310E+03 -0.12816514104E+03 -0.27020251298E+03  0.45639268777E+03  0.00000000000E+00 0. -1.
<mgrwt>
<rscale>  0 0.86931535E+03</rscale>
<asrwt>0</asrwt>
<pdfrwt beam="1">  1        2 0.74509879E-01 0.86931535E+03</pdfrwt>
<pdfrwt beam="2">  1       -2 0.60014215E-01 0.86931535E+03</pdfrwt>
<totfact> 0.16627941E+02</totfact>
</mgrwt>
</event>
<event>
 6    1  0.1072514E-005  0.3062708E+04  0.7818608E-02  0.8226047E-01
         -2   -1    0    0    0  501 -0.00000000000E+00  0.00000000000E+00  0.20496988000E+04  0.20496988000E+04  0.00000000000E+00 0. -1.
          2   -1    0    0  501    0  0.00000000000E+00 -0.00000000000E+00 -0.11440927457E+04  0.11440927457E+04  0.00000000000E+00 0.  1.
         23    2    1    2    0    0 -0.10357501217E+04 -0.93588572806E+03  0.11061516800E+04  0.17835153463E+04  0.93247200712E+02 0.  0.
         11    1    3    3    0    0 -0.56342769456E+03 -0.53159710944E+03  0.55828986304E+03  0.95484754015E+03  0.00000000000E+00 0. -1.
        -11    1    3    3    0    0 -0.47232242719E+03 -0.40428861863E+03  0.54786181700E+03  0.82866780612E+03  0.00000000000E+00 0.  1.
         22    1    1    2    0    0  0.10357501217E+04  0.93588572806E+03 -0.20054562568E+03  0.14102761994E+04  0.00000000000E+00 0.  1.
<mgrwt>
<rscale>  0 0.30627083E+04</rscale>
<asrwt>0</asrwt>
<pdfrwt beam="1">  1        2 0.17601427E+00 0.30627083E+04</pdfrwt>
<pdfrwt beam="2">  1       -2 0.31533828E+00 0.30627083E+04</pdfrwt>
<totfact> 0.44595992E-01</totfact>
</mgrwt>
</event>
<event>
 6    1  0.1072514E-005  0.2642966E+04  0.7818608E-02  0.8353752E-01
         -2   -1    0    0    0  501 -0.00000000000E+00  0.00000000000E+00  0.14693442087E+04  0.14693442087E+04  0.00000000000E+00 0.  1.
          2   -1    0    0  501    0  0.00000000000E+00 -0.00000000000E+00 -0.11885007407E+04  0.11885007407E+04  0.00000000000E+00 0. -1.
         23    2    1    2    0    0 -0.56452914847E+03  0.98933710051E+03  0.81103149899E+03  0.14014292514E+04  0.93545691067E+02 0.  0.
         13    1    3    3    0    0 -0.30998962678E+03  0.45008828905E+03  0.37905716997E+03  0.66509952245E+03  0.00000000000E+00 0. -1.
        -13    1    3    3    0    0 -0.25453952169E+03  0.53924881145E+03  0.43197432901E+03  0.73632972892E+03  0.00000000000E+00 0.  1.
         22    1    1    2    0    0  0.56452914847E+03 -0.98933710051E+03 -0.53018803096E+03  0.12564156980E+04  0.00000000000E+00 0. -1.
<mgrwt>
<rscale>  0 0.26429655E+04</rscale>
<asrwt>0</asrwt>
<pdfrwt beam="1">  1        2 0.18284627E+00 0.26429655E+04</pdfrwt>
<pdfrwt beam="2">  1       -2 0.22605296E+00 0.26429655E+04</pdfrwt>
<totfact> 0.15352468E+00</totfact>
</mgrwt>
</event>
<event>
 6    1  0.1072514E-005  0.2236287E+04  0.7818608E-02  0.8503475E-01
         -1   -1    0    0    0  501 -0.00000000000E+00  0.00000000000E+00  0.11891989296E+04  0.11891989296E+04  0.00000000000E+00 0.  1.
          1   -1    0    0  501    0  0.00000000000E+00 -0.00000000000E+00 -0.10513338405E+04  0.10513338405E+04  0.00000000000E+00 0. -1.
         23    2    1    2    0    0 -0.53128809692E+03  0.44424413203E+03  0.94629925126E+03  0.11760208232E+04  0.89010183623E+02 0.  0.
         13    1    3    3    0    0 -0.21102361080E+03  0.12312273157E+03  0.35040381888E+03  0.42716859392E+03  0.00000000000E+00 0. -1.
        -13    1    3    3    0    0 -0.32026448612E+03  0.32112140046E+03  0.59589543238E+03  0.74885222924E+03  0.00000000000E+00 0.  1.
         22    1    1    2    0    0  0.53128809692E+03 -0.44424413203E+03 -0.80843416211E+03  0.10645119470E+04  0.00000000000E+00 0. -1.
<mgrwt>
<rscale>  0 0.22362872E+04</rscale>
<asrwt>0</asrwt>
<pdfrwt beam="1">  1        1 0.16174367E+00 0.22362872E+04</pdfrwt>
<pdfrwt beam="2">  1       -1 0.18295368E+00 0.22362872E+04</pdfrwt>
<totfact> 0.24872802E+00</totfact>
</mgrwt>
</event>
<event>
 6    1  0.1072514E-005  0.1779430E+04  0.7818608E-02  0.8717316E-01
         -1   -1    0    0    0  501 -0.00000000000E+00  0.00000000000E+00  0.63841768048E+03  0.63841768048E+03  0.00000000000E+00 0.  1.
          1   -1    0    0  501    0  0.00000000000E+00 -0.00000000000E+00 -0.12399286861E+04  0.12399286861E+04  0.00000000000E+00 0. -1.
         23    2    1    2    0    0  0.28925917890E+03 -0.29974093769E+03  0.52576007924E+03  0.67657450759E+03  0.88396273084E+02 0.  0.
         11    1    3    3    0    0  0.70733755215E+02 -0.13096508766E+03  0.16386569992E+03  0.22137544110E+03  0.00000000000E+00 0. -1.
        -11    1    3    3    0    0  0.21852542369E+03 -0.16877585003E+03  0.36189437932E+03  0.45519906649E+03  0.00000000000E+00 0.  1.
         22    1    1    2    0    0 -0.28925917890E+03  0.29974093769E+03 -0.11272710849E+04  0.12017718590E+04  0.00000000000E+00 0. -1.
<mgrwt>
<rscale>  0 0.17794296E+04</rscale>
<asrwt>0</asrwt>
<pdfrwt beam="1">  1        1 0.19075826E+00 0.17794296E+04</pdfrwt>
<pdfrwt beam="2">  1       -1 0.98218105E-01 0.17794296E+04</pdfrwt>
<totfact> 0.93813236E+00</totfact>
</mgrwt>
</event>
<event>
 6    1  0.1072514E-005  0.1493734E+04  0.7818608E-02  0.8888630E-01
          1   -1    0    0  501    0  0.00000000000E+00  0.00000000000E+00  0.74974390332E+03  0.74974390332E+03  0.00000000000E+00 0. -1.
         -1   -1    0    0    0  501 -0.00000000000E+00 -0.00000000000E+00 -0.74400111093E+03  0.74400111093E+03  0.00000000000E+00 0.  1.
         23    2    1    2    0    0  0.16089249521E+03 -0.23250846128E+03 -0.68553225388E+03  0.74687971904E+03  0.89040799728E+02 0.  0.
         13    1    3    3    0    0 -0.69775063556E+01 -0.27955159121E+02 -0.10502397733E+03  0.10890460198E+03  0.00000000000E+00 0. -1.
        -13    1    3    3    0    0  0.16787000157E+03 -0.20455330216E+03 -0.58050827655E+03  0.63797511706E+03  0.00000000000E+00 0.  1.
         22    1    1    2    0    0 -0.16089249521E+03  0.23250846128E+03  0.69127504627E+03  0.74686529520E+03  0.00000000000E+00 0. -1.
<mgrwt>
<rscale>  0 0.14937340E+04</rscale>
<asrwt>0</asrwt>
<pdfrwt beam="1">  1        1 0.11534522E+00 0.14937340E+04</pdfrwt>
<pdfrwt beam="2">  1       -1 0.11446171E+00 0.14937340E+04</pdfrwt>
<totfact> 0.16469881E+01</totfact>
</mgrwt>
</event>
<event>
 6    1  0.1072514E-005  0.4560521E+04  0.7818608E-02  0.7900126E-01
          1   -1    0    0  501    0  0.00000000000E+00  0.00000000000E+00  0.17676431288E+04  0.17676431288E+04  0.00000000000E+00 0. -1.
         -1   -1    0    0    0  501 -0.00000000000E+00 -0.00000000000E+00 -0.29415371318E+04  0.29415371318E+04  0.00000000000E+00 0.  1.
         23    2    1    2    0    0  0.68761140447E+03 -0.19958555697E+04  0.30062237865E+03  0.21342147349E+04  0.90828527957E+02 0.  0.
         11    1    3    3    0    0  0.43748850723E+03 -0.11421628804E+04  0.15709783603E+03  0.12331309620E+04  0.00000000000E+00 0. -1.
        -11    1    3    3    0    0  0.25012289724E+03 -0.85369268932E+03  0.14352454262E+03  0.90108377294E+03  0.00000000000E+00 0.  1.
         22    1    1    2    0    0 -0.68761140447E+03  0.19958555697E+04 -0.14745163816E+04  0.25749655257E+04  0.00000000000E+00 0.  1.
<mgrwt>
<rscale>  0 0.45605210E+04</rscale>
<asrwt>0</asrwt>
<pdfrwt beam="1">  1        1 0.27194510E+00 0.45605210E+04</pdfrwt>
<pdfrwt beam="2">  1       -1 0.45254417E+00 0.45605210E+04</pdfrwt>
<totfact> 0.99719262E-03</totfact>
</mgrwt>
</event>
<event>
 6    1  0.1072514E-005  0.2157773E+04  0.7818608E-02  0.8536212E-01
          2   -1    0    0  501    0  0.00000000000E+00  0.00000000000E+00  0.25015649848E+04  0.25015649848E+04  0.00000000000E+00 0.  1.
         -2   -1    0    0    0  501 -0.00000000000E+00 -0.00000000000E+00 -0.46530736316E+03  0.46530736316E+03  0.00000000000E+00 0. -1.
         23    2    1    2    0    0  0.23956891765E+02 -0.60890383412E+03  0.22409375248E+04  0.23240413634E+04  0.89607238606E+02 0.  0.
         13    1    3    3    0    0 -0.45379224888E+01 -0.14743973043E+03  0.69331946079E+03  0.70883773994E+03  0.00000000000E+00 0. -1.
        -13    1    3    3    0    0  0.28494814254E+02 -0.46146410368E+03  0.15476180640E+04  0.16152036235E+04  0.00000000000E+00 0.  1.
         22    1    1    2    0    0 -0.23956891765E+02  0.60890383412E+03 -0.20467990316E+03  0.64283098449E+03  0.00000000000E+00 0. -1.
<mgrwt>
<rscale>  0 0.21577735E+04</rscale>
<asrwt>0</asrwt>
<pdfrwt beam="1">  1        2 0.38485614E+00 0.21577735E+04</pdfrwt>
<pdfrwt beam="2">  1       -2 0.71585750E-01 0.21577735E+04</pdfrwt>
<totfact> 0.56402319E+00</totfact>
</mgrwt>
</event>
<event>
 6    1  0.1072514E-005  0.2494852E+04  0.7818608E-02  0.8404822E-01
          2   -1    0    0  501    0  0.00000000000E+00  0.00000000000E+00  0.24768596263E+04  0.24768596263E+04  0.00000000000E+00 0. -1.
         -2   -1    0    0    0  501 -0.00000000000E+00 -0.00000000000E+00 -0.62824389871E+03  0.62824389871E+03  0.00000000000E+00 0.  1.
         23    2    1    2    0    0  0.38241764373E+03  0.11694865363E+04  0.11656890658E+04  0.16978612437E+04  0.99798757566E+02 0.  0.
         13    1    3    3    0    0  0.91692762974E+02  0.34726395134E+03  0.39677802204E+03  0.53519399609E+03  0.00000000000E+00 0.  1.
        -13    1    3    3    0    0  0.29072488076E+03  0.82222258495E+03  0.76891104379E+03  0.11626672476E+04  0.00000000000E+00 0. -1.
         22    1    1    2    0    0 -0.38241764373E+03 -0.11694865363E+04  0.68292666173E+03  0.14072422812E+04  0.00000000000E+00 0.  1.
<mgrwt>
<rscale>  0 0.24948523E+04</rscale>
<asrwt>0</asrwt>
<pdfrwt beam="1">  1        2 0.38105532E+00 0.24948523E+04</pdfrwt>
<pdfrwt beam="2">  1       -2 0.96652909E-01 0.24948523E+04</pdfrwt>
<totfact> 0.28668158E+00</totfact>
</mgrwt>
</event>
<event>
 6    1  0.1072514E-005  0.9837155E+03  0.7818608E-02  0.9326588E-01
          2   -1    0    0  501    0  0.00000000000E+00  0.00000000000E+00  0.66693678344E+03  0.66693678344E+03  0.00000000000E+00 0. -1.
         -2   -1    0    0    0  501 -0.00000000000E+00 -0.00000000000E+00 -0.36273912299E+03  0.36273912299E+03  0.00000000000E+00 0.  1.
         23    2    1    2    0    0  0.21319235005E+03  0.16985316432E+03 -0.26999764296E+03  0.39406492321E+03  0.89929755656E+02 0.  0.
         11    1    3    3    0    0  0.10595460254E+03  0.14024170717E+03 -0.16734860128E+03  0.24269253919E+03  0.00000000000E+00 0.  1.
        -11    1    3    3    0    0  0.10723774751E+03  0.29611457148E+02 -0.10264904168E+03  0.15137238402E+03  0.00000000000E+00 0. -1.
         22    1    1    2    0    0 -0.21319235005E+03 -0.16985316432E+03  0.57419530340E+03  0.63561098323E+03  0.00000000000E+00 0. -1.
<mgrwt>
<rscale>  0 0.98371554E+03</rscale>
<asrwt>0</asrwt>
<pdfrwt beam="1">  1        2 0.10260566E+00 0.98371554E+03</pdfrwt>
<pdfrwt beam="2">  1       -2 0.55806019E-01 0.98371554E+03</pdfrwt>
<totfact> 0.13129256E+02</totfact>
</mgrwt>
</event>
<event>
 6    1  0.1072514E-005  0.3372400E+04  0.7818608E-02  0.8144714E-01
         -2   -1    0    0    0  501 -0.00000000000E+00  0.00000000000E+00  0.14440998831E+04  0.14440998831E+04  0.00000000000E+00 0.  1.
          2   -1    0    0  501    0  0.00000000000E+00 -0.00000000000E+00 -0.19688876658E+04  0.19688876658E+04  0.00000000000E+00 0. -1.
         23    2    1    2    0    0 -0.64839720340E+03  0.46039562815E+03 -0.17659724677E+04  0.19389039387E+04  0.91140874788E+02 0.  0.
         13    1    3    3    0    0 -0.35732499967E+03  0.19859601154E+03 -0.92014679683E+03  0.10068722158E+04  0.00000000000E+00 0. -1.
        -13    1    3    3    0    0 -0.29107220373E+03  0.26179961661E+03 -0.84582567086E+03  0.93203172292E+03  0.00000000000E+00 0.  1.
         22    1    1    2    0    0  0.64839720340E+03 -0.46039562815E+03  0.12411846849E+04  0.14740836102E+04  0.00000000000E+00 0.  1.
<mgrwt>
<rscale>  0 0.33724000E+04</rscale>
<asrwt>0</asrwt>
<pdfrwt beam="1">  1        2 0.30290580E+00 0.33724000E+04</pdfrwt>
<pdfrwt beam="2">  1       -2 0.22216921E+00 0.33724000E+04</pdfrwt>
<totfact> 0.55285796E-01</totfact>
</mgrwt>
</event>
<event>
 6    1  0.1072514E-005  0.7769820E+03  0.7818608E-02  0.9593946E-01
         -2   -1    0    0    0  501 -0.00000000000E+00  0.00000000000E+00  0.32290523767E+03  0.32290523767E+03  0.00000000000E+00 0.  1.
          2   -1    0    0  501    0  0.00000000000E+00 -0.00000000000E+00 -0.46739800652E+03  0.46739800652E+03  0.00000000000E+00 0. -1.
         23    2    1    2    0    0 -0.16514642181E+03  0.34629476227E+03 -0.28087100044E+02  0.38937471846E+03  0.60252661146E+02 0.  0.
         11    1    3    3    0    0 -0.79298434728E+02  0.19837870379E+03  0.11064558577E+02  0.21392703504E+03  0.00000000000E+00 0. -1.
        -11    1    3    3    0    0 -0.85847987083E+02  0.14791605848E+03 -0.39151658621E+02  0.17544768341E+03  0.00000000000E+00 0.  1.
         22    1    1    2    0    0  0.16514642181E+03 -0.34629476227E+03 -0.11640566880E+03  0.40092852573E+03  0.00000000000E+00 0. -1.
<mgrwt>
<rscale>  0 0.77698202E+03</rscale>
<asrwt>0</asrwt>
<pdfrwt beam="1">  1        2 0.71907386E-01 0.77698202E+03</pdfrwt>
<pdfrwt beam="2">  1       -2 0.49677729E-01 0.77698202E+03</pdfrwt>
<totfact> 0.25728145E+02</totfact>
</mgrwt>
</event>
<event>
 6    1  0.1072514E-005  0.2685948E+04  0.7818608E-02  0.8339579E-01
         -1   -1    0    0    0  501 -0.00000000000E+00  0.00000000000E+00  0.73843084137E+03  0.73843084137E+03  0.00000000000E+00 0.  1.
          1   -1    0    0  501    0  0.00000000000E+00 -0.00000000000E+00 -0.24424479196E+04  0.24424479196E+04  0.00000000000E+00 0. -1.
         23    2    1    2    0    0 -0.44783505578E+03  0.67892924879E+02 -0.23480082932E+04  0.23935475909E+04  0.10373735345E+03 0.  0.
         11    1    3    3    0    0 -0.35272951826E+03  0.16714466795E+02 -0.16630831984E+04  0.17001597605E+04  0.00000000000E+00 0. -1.
        -11    1    3    3    0    0 -0.95105537517E+02  0.51178458084E+02 -0.68492509479E+03  0.69338783038E+03  0.00000000000E+00 0.  1.
         22    1    1    2    0    0  0.44783505578E+03 -0.67892924879E+02  0.64399121496E+03  0.78733117008E+03  0.00000000000E+00 0.  1.
<mgrwt>
<rscale>  0 0.26859478E+04</rscale>
<asrwt>0</asrwt>
<pdfrwt beam="1">  1        1 0.37576121E+00 0.26859478E+04</pdfrwt>
<pdfrwt beam="2">  1       -1 0.11360475E+00 0.26859478E+04</pdfrwt>
<totfact> 0.91718827E-01</totfact>
</mgrwt>
</event>
<event>
 6    1  0.1072514E-005  0.1926226E+04  0.7818608E-02  0.8641911E-01
          2   -1    0    0  501    0  0.00000000000E+00  0.00000000000E+00  0.95133865162E+03  0.95133865162E+03  0.00000000000E+00 0.  1.
         -2   -1    0    0    0  501 -0.00000000000E+00 -0.00000000000E+00 -0.97503335280E+03  0.97503335280E+03  0.00000000000E+00 0. -1.
         23    2    1    2    0    0 -0.51189831587E+01 -0.79035878127E+03  0.53366522767E+03  0.95924052557E+03  0.10320176140E+03 0.  0.
         13    1    3    3    0    0  0.48962891165E+02 -0.35156831487E+03  0.23500591564E+03  0.42570579644E+03  0.00000000000E+00 0.  1.
        -13    1    3    3    0    0 -0.54081874324E+02 -0.43879046639E+03  0.29865931202E+03  0.53353472913E+03  0.00000000000E+00 0. -1.
         22    1    1    2    0    0  0.51189831587E+01  0.79035878127E+03 -0.55735992885E+03  0.96713147886E+03  0.00000000000E+00 0. -1.
<mgrwt>
<rscale>  0 0.19262263E+04</rscale>
<asrwt>0</asrwt>
<pdfrwt beam="1">  1        2 0.14635979E+00 0.19262263E+04</pdfrwt>
<pdfrwt beam="2">  1       -2 0.15000513E+00 0.19262263E+04</pdfrwt>
<totfact> 0.75851999E+00</totfact>
</mgrwt>
</event>
<event>
 6    1  0.1072514E-005  0.1808331E+04  0.7818608E-02  0.8701881E-01
          1   -1    0    0  501    0  0.00000000000E+00  0.00000000000E+00  0.16961853605E+04  0.16961853605E+04  0.00000000000E+00 0. -1.
         -1   -1    0    0    0  501 -0.00000000000E+00 -0.00000000000E+00 -0.48197306335E+03  0.48197306335E+03  0.00000000000E+00 0.  1.
         23    2    1    2    0    0 -0.60862322192E+03  0.43383716800E+03  0.12165435085E+04  0.14307346156E+04  0.91577930705E+02 0.  0.
         11    1    3    3    0    0 -0.21567105576E+03  0.16733118231E+03  0.52750020911E+03  0.59394460977E+03  0.00000000000E+00 0. -1.
        -11    1    3    3    0    0 -0.39295216616E+03  0.26650598569E+03  0.68904329943E+03  0.83679000579E+03  0.00000000000E+00 0.  1.
         22    1    1    2    0    0  0.60862322192E+03 -0.43383716800E+03 -0.23312114406E+01  0.74742380825E+03  0.00000000000E+00 0.  1.
<mgrwt>
<rscale>  0 0.18083314E+04</rscale>
<asrwt>0</asrwt>
<pdfrwt beam="1">  1        1 0.26095159E+00 0.18083314E+04</pdfrwt>
<pdfrwt beam="2">  1       -1 0.74149703E-01 0.18083314E+04</pdfrwt>
<totfact> 0.82777807E+00</totfact>
</mgrwt>
</event>
<event>
 6    1  0.1072514E-005  0.1184999E+04  0.7818608E-02  0.9126089E-01
          2   -1    0    0  501    0  0.00000000000E+00  0.00000000000E+00  0.30672874408E+04  0.30672874408E+04  0.00000000000E+00 0. -1.
         -2   -1    0    0    0  501 -0.00000000000E+00 -0.00000000000E+00 -0.11445153258E+03  0.11445153258E+03  0.00000000000E+00 0.  1.
         23    2    1    2    0    0 -0.50459192873E+03 -0.51588126096E+02  0.68075315552E+03  0.85372815201E+03  0.90291469550E+02 0.  0.
         13    1    3    3    0    0 -0.12731625321E+03  0.19175172498E+02  0.20981844079E+03  0.24617248763E+03  0.00000000000E+00 0.  1.
        -13    1    3    3    0    0 -0.37727567552E+03 -0.70763298594E+02  0.47093471474E+03  0.60755566438E+03  0.00000000000E+00 0. -1.
         22    1    1    2    0    0  0.50459192873E+03  0.51588126096E+02  0.22720827527E+04  0.23280108214E+04  0.00000000000E+00 0. -1.
<mgrwt>
<rscale>  0 0.11849992E+04</rscale>
<asrwt>0</asrwt>
<pdfrwt beam="1">  1        2 0.47189031E+00 0.11849992E+04</pdfrwt>
<pdfrwt beam="2">  1       -2 0.17607930E-01 0.11849992E+04</pdfrwt>
<totfact> 0.42314891E+01</totfact>
</mgrwt>
</event>
<event>
 6    1  0.1072514E-005  0.8127234E+03  0.7818608E-02  0.9541781E-01
          2   -1    0    0  501    0  0.00000000000E+00  0.00000000000E+00  0.27716938778E+03  0.27716938778E+03  0.00000000000E+00 0. -1.
         -2   -1    0    0    0  501 -0.00000000000E+00 -0.00000000000E+00 -0.59577221482E+03  0.59577221482E+03  0.00000000000E+00 0.  1.
         23    2    1    2    0    0 -0.32381369807E+02 -0.39374216641E+03 -0.23627932179E+03  0.46938416402E+03  0.91717658099E+02 0.  0.
         11    1    3    3    0    0 -0.64371895298E+02 -0.27304041053E+03 -0.15695103220E+03  0.32144740347E+03  0.00000000000E+00 0. -1.
        -11    1    3    3    0    0  0.31990525491E+02 -0.12070175588E+03 -0.79328289593E+02  0.14793676055E+03  0.00000000000E+00 0.  1.
         22    1    1    2    0    0  0.32381369807E+02  0.39374216641E+03 -0.82323505243E+02  0.40355743858E+03  0.00000000000E+00 0. -1.
<mgrwt>
<rscale>  0 0.81272337E+03</rscale>
<asrwt>0</asrwt>
<pdfrwt beam="1">  1        2 0.42641444E-01 0.81272337E+03</pdfrwt>
<pdfrwt beam="2">  1       -2 0.91657263E-01 0.81272337E+03</pdfrwt>
<totfact> 0.12234322E+02</totfact>
</mgrwt>
</event>
<event>
 6    1  0.1072514E-005  0.3423679E+04  0.7818608E-02  0.8132119E-01
         -2   -1    0    0    0  501 -0.00000000000E+00  0.00000000000E+00  0.27545030424E+04  0.27545030424E+04  0.00000000000E+00 0.  1.
          2   -1    0    0  501    0  0.00000000000E+00 -0.00000000000E+00 -0.10638558543E+04  0.10638558543E+04  0.00000000000E+00 0. -1.
         23    2    1    2    0    0 -0.49723976493E+03  0.10829982510E+04  0.22146421196E+04  0.25165511983E+04  0.90871449361E+02 0.  0.
         13    1    3    3    0    0 -0.46417523646E+03  0.10163976765E+04  0.20244551822E+04  0.23123454914E+04  0.00000000000E+00 0. -1.
        -13    1    3    3    0    0 -0.33064528469E+02  0.66600574427E+02  0.19018693740E+03  0.20420570686E+03  0.00000000000E+00 0.  1.
         22    1    1    2    0    0  0.49723976493E+03 -0.10829982510E+04 -0.52399493147E+03  0.13018076984E+04  0.00000000000E+00 0. -1.
<mgrwt>
<rscale>  0 0.34236788E+04</rscale>
<asrwt>0</asrwt>
<pdfrwt beam="1">  1        2 0.16367013E+00 0.34236788E+04</pdfrwt>
<pdfrwt beam="2">  1       -2 0.42376969E+00 0.34236788E+04</pdfrwt>
<totfact> 0.98113311E-02</totfact>
</mgrwt>
</event>
<event>
 6    1  0.1072514E-005  0.2907593E+04  0.7818608E-02  0.8270622E-01
          1   -1    0    0  501    0  0.00000000000E+00  0.00000000000E+00  0.18899015097E+04  0.18899015097E+04  0.00000000000E+00 0. -1.
         -1   -1    0    0    0  501 -0.00000000000E+00 -0.00000000000E+00 -0.11183247910E+04  0.11183247910E+04  0.00000000000E+00 0.  1.
         23    2    1    2    0    0  0.61028275824E+03  0.99344147673E+03 -0.50981597750E+03  0.12757892153E+04  0.91404476768E+02 0.  0.
         11    1    3    3    0    0  0.11712358504E+03  0.17740491831E+03 -0.56071835085E+02  0.21985106300E+03  0.00000000000E+00 0.  1.
        -11    1    3    3    0    0  0.49315917321E+03  0.81603655842E+03 -0.45374414242E+03  0.10559381523E+04  0.00000000000E+00 0. -1.
         22    1    1    2    0    0 -0.61028275824E+03 -0.99344147673E+03  0.12813926963E+04  0.17324370854E+04  0.00000000000E+00 0. -1.
<mgrwt>
<rscale>  0 0.29075926E+04</rscale>
<asrwt>0</asrwt>
<pdfrwt beam="1">  1        1 0.29075408E+00 0.29075926E+04</pdfrwt>
<pdfrwt beam="2">  1       -1 0.17204997E+00 0.29075926E+04</pdfrwt>
<totfact> 0.72166798E-01</totfact>
</mgrwt>
</event>
<event>
 6    1  0.1072514E-005  0.2217943E+04  0.7818608E-02  0.8510997E-01
          2   -1    0    0  501    0  0.00000000000E+00  0.00000000000E+00  0.26872772181E+04  0.26872772181E+04  0.00000000000E+00 0. -1.
         -2   -1    0    0    0  501 -0.00000000000E+00 -0.00000000000E+00 -0.45764472920E+03  0.45764472920E+03  0.00000000000E+00 0.  1.
         23    2    1    2    0    0  0.10843798068E+04  0.76839475259E+02  0.14140368602E+04  0.17858854872E+04  0.90015893178E+02 0.  0.
         13    1    3    3    0    0  0.10180537129E+04  0.93304285064E+02  0.13326637423E+04  0.16796224879E+04  0.00000000000E+00 0. -1.
        -13    1    3    3    0    0  0.66326093924E+02 -0.16464809805E+02  0.81373117924E+02  0.10626299929E+03  0.00000000000E+00 0.  1.
         22    1    1    2    0    0 -0.10843798068E+04 -0.76839475259E+02  0.81559562871E+03  0.13590364601E+04  0.00000000000E+00 0.  1.
<mgrwt>
<rscale>  0 0.22179434E+04</rscale>
<asrwt>0</asrwt>
<pdfrwt beam="1">  1        2 0.41342725E+00 0.22179434E+04</pdfrwt>
<pdfrwt beam="2">  1       -2 0.70406883E-01 0.22179434E+04</pdfrwt>
<totfact> 0.45285307E+00</totfact>
</mgrwt>
</event>
<event>
 6    1  0.1072514E-005  0.6021508E+04  0.7818608E-02  0.7687741E-01
         -2   -1    0    0    0  501 -0.00000000000E+00  0.00000000000E+00  0.25140070328E+04  0.25140070328E+04  0.00000000000E+00 0.  1.
          2   -1    0    0  501    0  0.00000000000E+00 -0.00000000000E+00 -0.36056544168E+04  0.36056544168E+04  0.00000000000E+00 0. -1.
         23    2    1    2    0    0 -0.75862138686E+02 -0.26396139855E+04 -0.20142950661E+04  0.33224135519E+04  0.87921214188E+02 0.  0.
         13    1    3    3    0    0 -0.61923721944E+02 -0.10106953130E+04 -0.80661988992E+03  0.12945946121E+04  0.00000000000E+00 0. -1.
        -13    1    3    3    0    0 -0.13938416742E+02 -0.16289186725E+04 -0.12076751762E+04  0.20278189397E+04  0.00000000000E+00 0.  1.
         22    1    1    2    0    0  0.75862138686E+02  0.26396139855E+04  0.92264768205E+03  0.27972478978E+04  0.00000000000E+00 0.  1.
<mgrwt>
<rscale>  0 0.60215083E+04</rscale>
<asrwt>0</asrwt>
<pdfrwt beam="1">  1        2 0.55471606E+00 0.60215083E+04</pdfrwt>
<pdfrwt beam="2">  1       -2 0.38677031E+00 0.60215083E+04</pdfrwt>
<totfact> 0.41525422E-03</totfact>
</mgrwt>
</event>
<event>
 6    1  0.1072514E-005  0.3993373E+04  0.7818608E-02  0.8005885E-01
         -1   -1    0    0    0  501 -0.00000000000E+00  0.00000000000E+00  0.19553660716E+04  0.19553660716E+04  0.00000000000E+00 0.  1.
          1   -1    0    0  501    0  0.00000000000E+00 -0.00000000000E+00 -0.20388796740E+04  0.20388796740E+04  0.00000000000E+00 0. -1.
         23    2    1    2    0    0 -0.47882300315E+03  0.16836482601E+04  0.91691896125E+03  0.19781087843E+04  0.90725128548E+02 0.  0.
         13    1    3    3    0    0 -0.32143472839E+03  0.98774991282E+03  0.56791218690E+03  0.11838472988E+04  0.00000000000E+00 0.  1.
        -13    1    3    3    0    0 -0.15738827476E+03  0.69589834731E+03  0.34900677436E+03  0.79426148551E+03  0.00000000000E+00 0. -1.
         22    1    1    2    0    0  0.47882300315E+03 -0.16836482601E+04 -0.10004325637E+04  0.20161369613E+04  0.00000000000E+00 0. -1.
<mgrwt>
<rscale>  0 0.39933726E+04</rscale>
<asrwt>0</asrwt>
<pdfrwt beam="1">  1        1 0.31367380E+00 0.39933726E+04</pdfrwt>
<pdfrwt beam="2">  1       -1 0.30082555E+00 0.39933726E+04</pdfrwt>
<totfact> 0.71630484E-02</totfact>
</mgrwt>
</event>
<event>
 6    1  0.1072514E-005  0.1664175E+04  0.7818608E-02  0.8782064E-01
          1   -1    0    0  501    0  0.00000000000E+00  0.00000000000E+00  0.18606498754E+04  0.18606498754E+04  0.00000000000E+00 0. -1.
         -1   -1    0    0    0  501 -0.00000000000E+00 -0.00000000000E+00 -0.37211182695E+03  0.37211182695E+03  0.00000000000E+00 0.  1.
         23    2    1    2    0    0 -0.26579682801E+03  0.48265491563E+03  0.15785851670E+04  0.16744497780E+04  0.90814139924E+02 0.  0.
         13    1    3    3    0    0 -0.20168293628E+03  0.35655963659E+03  0.12819675406E+04  0.13458274616E+04  0.00000000000E+00 0. -1.
        -13    1    3    3    0    0 -0.64113891731E+02  0.12609527905E+03  0.29661762642E+03  0.32862231637E+03  0.00000000000E+00 0.  1.
         22    1    1    2    0    0  0.26579682801E+03 -0.48265491563E+03 -0.90047118563E+02  0.55831192440E+03  0.00000000000E+00 0.  1.
<mgrwt>
<rscale>  0 0.16641753E+04</rscale>
<asrwt>0</asrwt>
<pdfrwt beam="1">  1        1 0.28625382E+00 0.16641753E+04</pdfrwt>
<pdfrwt beam="2">  1       -1 0.57247975E-01 0.16641753E+04</pdfrwt>
<totfact> 0.10928267E+01</totfact>
</mgrwt>
</event>
<event>
 6    1  0.1072514E-005  0.2373436E+04  0.7818608E-02  0.8449516E-01
          2   -1    0    0  501    0  0.00000000000E+00  0.00000000000E+00  0.86129010146E+03  0.86129010146E+03  0.00000000000E+00 0. -1.
         -2   -1    0    0    0  501 -0.00000000000E+00 -0.00000000000E+00 -0.16351048648E+04  0.16351048648E+04  0.00000000000E+00 0.  1.
         23    2    1    2    0    0  0.98637594471E+03 -0.39252153125E+03 -0.94138226601E+03  0.14216440533E+04  0.88659950595E+02 0.  0.
         13    1    3    3    0    0  0.71395949613E+03 -0.28797707992E+03 -0.73383942703E+03  0.10635738175E+04  0.00000000000E+00 0. -1.
        -13    1    3    3    0    0  0.27241644858E+03 -0.10454445133E+03 -0.20754283899E+03  0.35807023581E+03  0.00000000000E+00 0.  1.
         22    1    1    2    0    0 -0.98637594471E+03  0.39252153125E+03  0.16756750269E+03  0.10747509129E+04  0.00000000000E+00 0.  1.
<mgrwt>
<rscale>  0 0.23734360E+04</rscale>
<asrwt>0</asrwt>
<pdfrwt beam="1">  1        2 0.13250617E+00 0.23734360E+04</pdfrwt>
<pdfrwt beam="2">  1       -2 0.25155459E+00 0.23734360E+04</pdfrwt>
<totfact> 0.17654875E+00</totfact>
</mgrwt>
</event>
<event>
 6    1  0.1072514E-005  0.3002319E+04  0.7818608E-02  0.8243069E-01
          2   -1    0    0  501    0  0.00000000000E+00  0.00000000000E+00  0.12780273225E+04  0.12780273225E+04  0.00000000000E+00 0.  1.
         -2   -1    0    0    0  501 -0.00000000000E+00 -0.00000000000E+00 -0.17632485358E+04  0.17632485358E+04  0.00000000000E+00 0. -1.
         23    2    1    2    0    0 -0.28440314117E+03 -0.11547721106E+04 -0.11684359253E+04  0.16697197650E+04  0.91311596932E+02 0.  0.
         13    1    3    3    0    0 -0.22864853178E+03 -0.74802169214E+03 -0.75990421631E+03  0.10905370333E+04  0.00000000000E+00 0. -1.
        -13    1    3    3    0    0 -0.55754609396E+02 -0.40675041849E+03 -0.40853170902E+03  0.57918273169E+03  0.00000000000E+00 0.  1.
         22    1    1    2    0    0  0.28440314117E+03  0.11547721106E+04  0.68321471207E+03  0.13715560933E+04  0.00000000000E+00 0.  1.
<mgrwt>
<rscale>  0 0.30023190E+04</rscale>
<asrwt>0</asrwt>
<pdfrwt beam="1">  1        2 0.19661959E+00 0.30023190E+04</pdfrwt>
<pdfrwt beam="2">  1       -2 0.27126901E+00 0.30023190E+04</pdfrwt>
<totfact> 0.69383492E-01</totfact>
</mgrwt>
</event>
<event>
 6    1  0.1072514E-005  0.1339863E+04  0.7818608E-02  0.8998538E-01
          2   -1    0    0  501    0  0.00000000000E+00  0.00000000000E+00  0.44757492218E+03  0.44757492218E+03  0.00000000000E+00 0. -1.
         -2   -1    0    0    0  501 -0.00000000000E+00 -0.00000000000E+00 -0.10027551574E+04  0.10027551574E+04  0.00000000000E+00 0.  1.
         23    2    1    2    0    0  0.75271238786E+02  0.43001247977E+03 -0.82463233902E+03  0.93731845359E+03  0.89279878624E+02 0.  0.
         13    1    3    3    0    0  0.88312777122E+02  0.25209585862E+03 -0.48593801514E+03  0.55451530465E+03  0.00000000000E+00 0.  1.
        -13    1    3    3    0    0 -0.13041538336E+02  0.17791662115E+03 -0.33869432388E+03  0.38280314893E+03  0.00000000000E+00 0. -1.
         22    1    1    2    0    0 -0.75271238786E+02 -0.43001247977E+03  0.26945210381E+03  0.51301162598E+03  0.00000000000E+00 0. -1.
<mgrwt>
<rscale>  0 0.13398628E+04</rscale>
<asrwt>0</asrwt>
<pdfrwt beam="1">  1        2 0.68857680E-01 0.13398628E+04</pdfrwt>
<pdfrwt beam="2">  1       -2 0.15427002E+00 0.13398628E+04</pdfrwt>
<totfact> 0.18997825E+01</totfact>
</mgrwt>
</event>
<event>
 6    1  0.1072514E-005  0.3297297E+04  0.7818608E-02  0.8163584E-01
         -1   -1    0    0    0  501 -0.00000000000E+00  0.00000000000E+00  0.14186349401E+04  0.14186349401E+04  0.00000000000E+00 0.  1.
          1   -1    0    0  501    0  0.00000000000E+00 -0.00000000000E+00 -0.19159552960E+04  0.19159552960E+04  0.00000000000E+00 0. -1.
         23    2    1    2    0    0  0.77780445998E+03  0.14518654714E+04 -0.21750286026E+03  0.16639044620E+04  0.91528353437E+02 0.  0.
         13    1    3    3    0    0  0.45875609204E+03  0.89247033453E+03 -0.17405005392E+03  0.10184566124E+04  0.00000000000E+00 0. -1.
        -13    1    3    3    0    0  0.31904836794E+03  0.55939513687E+03 -0.43452806342E+02  0.64544784965E+03  0.00000000000E+00 0.  1.
         22    1    1    2    0    0 -0.77780445998E+03 -0.14518654714E+04 -0.27981749561E+03  0.16706857741E+04  0.00000000000E+00 0.  1.
<mgrwt>
<rscale>  0 0.32972965E+04</rscale>
<asrwt>0</asrwt>
<pdfrwt beam="1">  1        1 0.29476235E+00 0.32972965E+04</pdfrwt>
<pdfrwt beam="2">  1       -1 0.21825153E+00 0.32972965E+04</pdfrwt>
<totfact> 0.31885833E-01</totfact>
</mgrwt>
</event>
<event>
 6    1  0.1072514E-005  0.3184284E+04  0.7818608E-02  0.8192980E-01
         -2   -1    0    0    0  501 -0.00000000000E+00  0.00000000000E+00  0.87213308541E+03  0.87213308541E+03  0.00000000000E+00 0.  1.
          2   -1    0    0  501    0  0.00000000000E+00 -0.00000000000E+00 -0.29065706663E+04  0.29065706663E+04  0.00000000000E+00 0. -1.
         23    2    1    2    0    0  0.97355295030E+03 -0.11233461751E+04 -0.16902384047E+04  0.22528646222E+04  0.93707870897E+02 0.  0.
         11    1    3    3    0    0  0.92478625112E+03 -0.10763638896E+04 -0.16388284523E+04  0.21678439817E+04  0.00000000000E+00 0. -1.
        -11    1    3    3    0    0  0.48766699184E+02 -0.46982285457E+02 -0.51409952463E+02  0.85020640484E+02  0.00000000000E+00 0.  1.
         22    1    1    2    0    0 -0.97355295030E+03  0.11233461751E+04 -0.34419917613E+03  0.15258391295E+04  0.00000000000E+00 0.  1.
<mgrwt>
<rscale>  0 0.31842842E+04</rscale>
<asrwt>0</asrwt>
<pdfrwt beam="1">  1        2 0.44716472E+00 0.31842842E+04</pdfrwt>
<pdfrwt beam="2">  1       -2 0.13417432E+00 0.31842842E+04</pdfrwt>
<totfact> 0.67214216E-01</totfact>
</mgrwt>
</event>
<event>
 6    1  0.1072514E-005  0.3417690E+04  0.7818608E-02  0.8133578E-01
          3   -1    0    0  501    0  0.00000000000E+00  0.00000000000E+00  0.31674254766E+04  0.31674254766E+04  0.00000000000E+00 0. -1.
         -3   -1    0    0    0  501 -0.00000000000E+00 -0.00000000000E+00 -0.92193236428E+03  0.92193236428E+03  0.00000000000E+00 0.  1.
         23    2    1    2    0    0 -0.69708090624E+03  0.10738238444E+04  0.24756919168E+04  0.27885846369E+04  0.90190752314E+02 0.  0.
         11    1    3    3    0    0 -0.92845758565E+02  0.16347515030E+03  0.43236826399E+03  0.47147298476E+03  0.00000000000E+00 0.  1.
        -11    1    3    3    0    0 -0.60423514767E+03  0.91034869412E+03  0.20433236528E+04  0.23171116522E+04  0.00000000000E+00 0. -1.
         22    1    1    2    0    0  0.69708090624E+03 -0.10738238444E+04 -0.23019880440E+03  0.13007732040E+04  0.00000000000E+00 0.  1.
<mgrwt>
<rscale>  0 0.34176905E+04</rscale>
<asrwt>0</asrwt>
<pdfrwt beam="1">  1        3 0.48729622E+00 0.34176905E+04</pdfrwt>
<pdfrwt beam="2">  1       -3 0.14183575E+00 0.34176905E+04</pdfrwt>
<totfact> 0.31587028E-03</totfact>
</mgrwt>
</event>
<event>
 6    1  0.1072514E-005  0.2831071E+04  0.7818608E-02  0.8293687E-01
          2   -1    0    0  501    0  0.00000000000E+00  0.00000000000E+00  0.22119211330E+04  0.22119211330E+04  0.00000000000E+00 0. -1.
         -2   -1    0    0    0  501 -0.00000000000E+00 -0.00000000000E+00 -0.90588226901E+03  0.90588226901E+03  0.00000000000E+00 0.  1.
         23    2    1    2    0    0  0.40418970301E+03  0.98356943404E+03  0.16804388914E+04  0.19904376547E+04  0.84788219907E+02 0.  0.
         11    1    3    3    0    0  0.19428834267E+03  0.55509890252E+03  0.87478106694E+03  0.10540989834E+04  0.00000000000E+00 0.  1.
        -11    1    3    3    0    0  0.20990136034E+03  0.42847053152E+03  0.80565782441E+03  0.93633867137E+03  0.00000000000E+00 0. -1.
         22    1    1    2    0    0 -0.40418970301E+03 -0.98356943404E+03 -0.37440002737E+03  0.11273657473E+04  0.00000000000E+00 0.  1.
<mgrwt>
<rscale>  0 0.28310706E+04</rscale>
<asrwt>0</asrwt>
<pdfrwt beam="1">  1        2 0.34029556E+00 0.28310706E+04</pdfrwt>
<pdfrwt beam="2">  1       -2 0.13936650E+00 0.28310706E+04</pdfrwt>
<totfact> 0.16037520E+00</totfact>
</mgrwt>
</event>
<event>
 6    1  0.1072514E-005  0.1561654E+04  0.7818608E-02  0.8844458E-01
         -1   -1    0    0    0  501 -0.00000000000E+00  0.00000000000E+00  0.21618213242E+03  0.21618213242E+03  0.00000000000E+00 0.  1.
          1   -1    0    0  501    0  0.00000000000E+00 -0.00000000000E+00 -0.28202643917E+04  0.28202643917E+04  0.00000000000E+00 0. -1.
         23    2    1    2    0    0  0.42088496148E+03  0.99057433240E+02 -0.25643142579E+04  0.26022368745E+04  0.94723872319E+02 0.  0.
         13    1    3    3    0    0  0.22901561264E+03  0.24315058185E+02 -0.11312696248E+04  0.11544740521E+04  0.00000000000E+00 0. -1.
        -13    1    3    3    0    0  0.19186934884E+03  0.74742375055E+02 -0.14330446330E+04  0.14477628224E+04  0.00000000000E+00 0.  1.
         22    1    1    2    0    0 -0.42088496148E+03 -0.99057433240E+02 -0.39768001398E+02  0.43420964961E+03  0.00000000000E+00 0.  1.
<mgrwt>
<rscale>  0 0.15616540E+04</rscale>
<asrwt>0</asrwt>
<pdfrwt beam="1">  1        1 0.43388683E+00 0.15616540E+04</pdfrwt>
<pdfrwt beam="2">  1       -1 0.33258790E-01 0.15616540E+04</pdfrwt>
<totfact> 0.66231394E+00</totfact>
</mgrwt>
</event>
<event>
 6    1  0.1072514E-005  0.2757848E+04  0.7818608E-02  0.8316476E-01
         -1   -1    0    0    0  501 -0.00000000000E+00  0.00000000000E+00  0.13142281045E+04  0.13142281045E+04  0.00000000000E+00 0.  1.
          1   -1    0    0  501    0  0.00000000000E+00 -0.00000000000E+00 -0.14468047207E+04  0.14468047207E+04  0.00000000000E+00 0. -1.
         23    2    1    2    0    0 -0.13267903888E+04 -0.18102651145E+03  0.25647228622E+03  0.13665786733E+04  0.92821889416E+02 0.  0.
         11    1    3    3    0    0 -0.53641972983E+03 -0.38704111170E+02  0.72340781467E+02  0.54265764846E+03  0.00000000000E+00 0. -1.
        -11    1    3    3    0    0 -0.79037065892E+03 -0.14232240028E+03  0.18413150475E+03  0.82392102482E+03  0.00000000000E+00 0.  1.
         22    1    1    2    0    0  0.13267903888E+04  0.18102651145E+03 -0.38904890243E+03  0.13944541520E+04  0.00000000000E+00 0. -1.
<mgrwt>
<rscale>  0 0.27578480E+04</rscale>
<asrwt>0</asrwt>
<pdfrwt beam="1">  1        1 0.22258534E+00 0.27578480E+04</pdfrwt>
<pdfrwt beam="2">  1       -1 0.20218894E+00 0.27578480E+04</pdfrwt>
<totfact> 0.89980984E-01</totfact>
</mgrwt>
</event>
<event>
 6    1  0.1072514E-005  0.7656755E+03  0.7818608E-02  0.9611074E-01
         -2   -1    0    0    0  501 -0.00000000000E+00  0.00000000000E+00  0.18988462656E+03  0.18988462656E+03  0.00000000000E+00 0.  1.
          2   -1    0    0  501    0  0.00000000000E+00 -0.00000000000E+00 -0.77186200558E+03  0.77186200558E+03  0.00000000000E+00 0. -1.
         23    2    1    2    0    0 -0.79107043980E+02 -0.20919636963E+03  0.86934647778E+02  0.25643510873E+03  0.90444936460E+02 0.  0.
         13    1    3    3    0    0  0.17679557926E+02 -0.34726613896E+02  0.29316141973E+02  0.48764132939E+02  0.00000000000E+00 0.  1.
        -13    1    3    3    0    0 -0.96786601906E+02 -0.17446975573E+03  0.57618505805E+02  0.20767097579E+03  0.00000000000E+00 0. -1.
         22    1    1    2    0    0  0.79107043980E+02  0.20919636963E+03 -0.66891202679E+03  0.70531152341E+03  0.00000000000E+00 0. -1.
<mgrwt>
<rscale>  0 0.76567546E+03</rscale>
<asrwt>0</asrwt>
<pdfrwt beam="1">  1        2 0.11874800E+00 0.76567546E+03</pdfrwt>
<pdfrwt beam="2">  1       -2 0.29213019E-01 0.76567546E+03</pdfrwt>
<totfact> 0.39111106E+02</totfact>
</mgrwt>
</event>
<event>
 6    1  0.1072514E-005  0.3352560E+04  0.7818608E-02  0.8149649E-01
          1   -1    0    0  501    0  0.00000000000E+00  0.00000000000E+00  0.14488213216E+04  0.14488213216E+04  0.00000000000E+00 0. -1.
         -1   -1    0    0    0  501 -0.00000000000E+00 -0.00000000000E+00 -0.19394483092E+04  0.19394483092E+04  0.00000000000E+00 0.  1.
         23    2    1    2    0    0  0.41102078746E+03 -0.15460822216E+04  0.25621918667E+03  0.16227420803E+04  0.91297667588E+02 0.  0.
         11    1    3    3    0    0  0.21983020995E+03 -0.99017425169E+03  0.17564018934E+03  0.10293783785E+04  0.00000000000E+00 0. -1.
        -11    1    3    3    0    0  0.19119057751E+03 -0.55590796988E+03  0.80578997328E+02  0.59336370188E+03  0.00000000000E+00 0.  1.
         22    1    1    2    0    0 -0.41102078746E+03  0.15460822216E+04 -0.74684617422E+03  0.17655275505E+04  0.00000000000E+00 0.  1.
<mgrwt>
<rscale>  0 0.33525597E+04</rscale>
<asrwt>0</asrwt>
<pdfrwt beam="1">  1        1 0.22289559E+00 0.33525597E+04</pdfrwt>
<pdfrwt beam="2">  1       -1 0.29837666E+00 0.33525597E+04</pdfrwt>
<totfact> 0.19842095E-01</totfact>
</mgrwt>
</event>
<event>
 6    1  0.1072514E-005  0.1052165E+04  0.7818608E-02  0.9253112E-01
         -2   -1    0    0    0  501 -0.00000000000E+00  0.00000000000E+00  0.51693981345E+03  0.51693981345E+03  0.00000000000E+00 0.  1.
          2   -1    0    0  501    0  0.00000000000E+00 -0.00000000000E+00 -0.53538694585E+03  0.53538694585E+03  0.00000000000E+00 0. -1.
         23    2    1    2    0    0 -0.35440204536E+03 -0.10849533842E+03 -0.37573111873E+03  0.53752204379E+03  0.10190204003E+03 0.  0.
         13    1    3    3    0    0 -0.13613305869E+03 -0.83307959658E+02 -0.11589071052E+03  0.19723864377E+03  0.00000000000E+00 0.  1.
        -13    1    3    3    0    0 -0.21826898668E+03 -0.25187378763E+02 -0.25984040821E+03  0.34028340003E+03  0.00000000000E+00 0. -1.
         22    1    1    2    0    0  0.35440204536E+03  0.10849533842E+03  0.35728398634E+03  0.51480471551E+03  0.00000000000E+00 0.  1.
<mgrwt>
<rscale>  0 0.10521651E+04</rscale>
<asrwt>0</asrwt>
<pdfrwt beam="1">  1        2 0.82367222E-01 0.10521651E+04</pdfrwt>
<pdfrwt beam="2">  1       -2 0.79529203E-01 0.10521651E+04</pdfrwt>
<totfact> 0.79316488E+01</totfact>
</mgrwt>
</event>
<event>
 6    1  0.1072514E-005  0.2264557E+04  0.7818608E-02  0.8492028E-01
         -1   -1    0    0    0  501 -0.00000000000E+00  0.00000000000E+00  0.22206941182E+04  0.22206941182E+04  0.00000000000E+00 0.  1.
          1   -1    0    0  501    0  0.00000000000E+00 -0.00000000000E+00 -0.57732157206E+03  0.57732157206E+03  0.00000000000E+00 0. -1.
         23    2    1    2    0    0 -0.22653274987E+03 -0.34611883464E+02  0.21907600257E+04  0.22045949946E+04  0.91074316009E+02 0.  0.
         11    1    3    3    0    0 -0.21681496806E+03 -0.27930181896E+02  0.17397228992E+04  0.17534037161E+04  0.00000000000E+00 0.  1.
        -11    1    3    3    0    0 -0.97177818149E+01 -0.66817015678E+01  0.45103712643E+03  0.45119127855E+03  0.00000000000E+00 0. -1.
         22    1    1    2    0    0  0.22653274987E+03  0.34611883464E+02 -0.54738747953E+03  0.59342069562E+03  0.00000000000E+00 0. -1.
<mgrwt>
<rscale>  0 0.22645570E+04</rscale>
<asrwt>0</asrwt>
<pdfrwt beam="1">  1        1 0.88818705E-01 0.22645570E+04</pdfrwt>
<pdfrwt beam="2">  1       -1 0.34164524E+00 0.22645570E+04</pdfrwt>
<totfact> 0.57963986E-01</totfact>
</mgrwt>
</event>
<event>
 6    1  0.1072514E-005  0.1341930E+04  0.7818608E-02  0.8996960E-01
         -2   -1    0    0    0  501 -0.00000000000E+00  0.00000000000E+00  0.54137431087E+03  0.54137431087E+03  0.00000000000E+00 0.  1.
          2   -1    0    0  501    0  0.00000000000E+00 -0.00000000000E+00 -0.83157633391E+03  0.83157633391E+03  0.00000000000E+00 0. -1.
         23    2    1    2    0    0 -0.21256240823E+03 -0.56839769727E+03  0.14211873853E+03  0.62786007273E+03  0.75840724102E+02 0.  0.
         11    1    3    3    0    0 -0.16511661852E+03 -0.34383713839E+03  0.10235666155E+03  0.39492323508E+03  0.00000000000E+00 0.  1.
        -11    1    3    3    0    0 -0.47445789714E+02 -0.22456055888E+03  0.39762076983E+02  0.23293683765E+03  0.00000000000E+00 0. -1.
         22    1    1    2    0    0  0.21256240823E+03  0.56839769727E+03 -0.43232076157E+03  0.74509057204E+03  0.00000000000E+00 0.  1.
<mgrwt>
<rscale>  0 0.13419300E+04</rscale>
<asrwt>0</asrwt>
<pdfrwt beam="1">  1        2 0.12793482E+00 0.13419300E+04</pdfrwt>
<pdfrwt beam="2">  1       -2 0.83288355E-01 0.13419300E+04</pdfrwt>
<totfact> 0.40345552E+01</totfact>
</mgrwt>
</event>
<event>
 6    1  0.1072514E-005  0.1303952E+04  0.7818608E-02  0.9026437E-01
          2   -1    0    0  501    0  0.00000000000E+00  0.00000000000E+00  0.27062147899E+03  0.27062147899E+03  0.00000000000E+00 0. -1.
         -2   -1    0    0    0  501 -0.00000000000E+00 -0.00000000000E+00 -0.15707288352E+04  0.15707288352E+04  0.00000000000E+00 0.  1.
         23    2    1    2    0    0  0.49447715850E+03 -0.39153480883E+03 -0.86815102888E+03  0.10768940136E+04  0.90594374558E+02 0.  0.
         11    1    3    3    0    0  0.15706046700E+03 -0.13561668396E+03 -0.35883058311E+03  0.41451087155E+03  0.00000000000E+00 0. -1.
        -11    1    3    3    0    0  0.33741669149E+03 -0.25591812487E+03 -0.50932044578E+03  0.66238314201E+03  0.00000000000E+00 0.  1.
         22    1    1    2    0    0 -0.49447715850E+03  0.39153480883E+03 -0.43195632728E+03  0.76445630057E+03  0.00000000000E+00 0.  1.
<mgrwt>
<rscale>  0 0.13039524E+04</rscale>
<asrwt>0</asrwt>
<pdfrwt beam="1">  1        2 0.41634074E-01 0.13039524E+04</pdfrwt>
<pdfrwt beam="2">  1       -2 0.24165059E+00 0.13039524E+04</pdfrwt>
<totfact> 0.87433969E+00</totfact>
</mgrwt>
</event>
<event>
 6    1  0.1072514E-005  0.2418113E+04  0.7818608E-02  0.8432753E-01
          2   -1    0    0  501    0  0.00000000000E+00  0.00000000000E+00  0.74613423259E+03  0.74613423259E+03  0.00000000000E+00 0. -1.
         -2   -1    0    0    0  501 -0.00000000000E+00 -0.00000000000E+00 -0.19591891424E+04  0.19591891424E+04  0.00000000000E+00 0.  1.
         23    2    1    2    0    0  0.34345410244E+03  0.69740601695E+03  0.42624532051E+03  0.89103532783E+03  0.89011287034E+02 0.  0.
         11    1    3    3    0    0  0.17272975623E+03  0.35095127642E+03  0.26513357036E+03  0.47254436537E+03  0.00000000000E+00 0.  1.
        -11    1    3    3    0    0  0.17072434622E+03  0.34645474053E+03  0.16111175015E+03  0.41849096246E+03  0.00000000000E+00 0. -1.
         22    1    1    2    0    0 -0.34345410244E+03 -0.69740601695E+03 -0.16393002303E+04  0.18142880472E+04  0.00000000000E+00 0.  1.
<mgrwt>
<rscale>  0 0.24181134E+04</rscale>
<asrwt>0</asrwt>
<pdfrwt beam="1">  1        2 0.11478988E+00 0.24181134E+04</pdfrwt>
<pdfrwt beam="2">  1       -2 0.30141371E+00 0.24181134E+04</pdfrwt>
<totfact> 0.10564199E+00</totfact>
</mgrwt>
</event>
<event>
 6    1  0.1072514E-005  0.1501149E+04  0.7818608E-02  0.8883689E-01
          2   -1    0    0  501    0  0.00000000000E+00  0.00000000000E+00  0.14602238413E+04  0.14602238413E+04  0.00000000000E+00 0. -1.
         -2   -1    0    0    0  501 -0.00000000000E+00 -0.00000000000E+00 -0.38580507332E+03  0.38580507332E+03  0.00000000000E+00 0.  1.
         23    2    1    2    0    0  0.15798623018E+03  0.55002662002E+03 -0.52712738536E+02  0.58194253914E+03  0.91594510779E+02 0.  0.
         11    1    3    3    0    0  0.53929055594E+02  0.78141685081E+02  0.61786470558E+01  0.95145371217E+02  0.00000000000E+00 0. -1.
        -11    1    3    3    0    0  0.10405717458E+03  0.47188493494E+03 -0.58891385592E+02  0.48679716793E+03  0.00000000000E+00 0.  1.
         22    1    1    2    0    0 -0.15798623018E+03 -0.55002662002E+03  0.11271315065E+04  0.12640863754E+04  0.00000000000E+00 0. -1.
<mgrwt>
<rscale>  0 0.15011486E+04</rscale>
<asrwt>0</asrwt>
<pdfrwt beam="1">  1        2 0.22464982E+00 0.15011486E+04</pdfrwt>
<pdfrwt beam="2">  1       -2 0.59354627E-01 0.15011486E+04</pdfrwt>
<totfact> 0.34223483E+01</totfact>
</mgrwt>
</event>
<event>
 6    1  0.1072514E-005  0.2111595E+04  0.7818608E-02  0.8556153E-01
          1   -1    0    0  501    0  0.00000000000E+00  0.00000000000E+00  0.61967003485E+03  0.61967003485E+03  0.00000000000E+00 0. -1.
         -1   -1    0    0    0  501 -0.00000000000E+00 -0.00000000000E+00 -0.17988734995E+04  0.17988734995E+04  0.00000000000E+00 0.  1.
         23    2    1    2    0    0  0.25225290470E+02 -0.10354837684E+04 -0.36847592617E+03  0.11031948766E+04  0.91659574614E+02 0.  0.
         11    1    3    3    0    0 -0.34329165153E+02 -0.45115622897E+03 -0.16402666926E+03  0.48127453989E+03  0.00000000000E+00 0. -1.
        -11    1    3    3    0    0  0.59554455623E+02 -0.58432753942E+03 -0.20444925691E+03  0.62192033667E+03  0.00000000000E+00 0.  1.
         22    1    1    2    0    0 -0.25225290470E+02  0.10354837684E+04 -0.81072753847E+03  0.13153486578E+04  0.00000000000E+00 0. -1.
<mgrwt>
<rscale>  0 0.21115947E+04</rscale>
<asrwt>0</asrwt>
<pdfrwt beam="1">  1        1 0.95333852E-01 0.21115947E+04</pdfrwt>
<pdfrwt beam="2">  1       -1 0.27674977E+00 0.21115947E+04</pdfrwt>
<totfact> 0.14028609E+00</totfact>
</mgrwt>
</event>
<event>
 6    1  0.1072514E-005  0.1704194E+04  0.7818608E-02  0.8758976E-01
          2   -1    0    0  501    0  0.00000000000E+00  0.00000000000E+00  0.35115779816E+04  0.35115779816E+04  0.00000000000E+00 0. -1.
         -2   -1    0    0    0  501 -0.00000000000E+00 -0.00000000000E+00 -0.20676438620E+03  0.20676438620E+03  0.00000000000E+00 0.  1.
         23    2    1    2    0    0 -0.16565089807E+03  0.46340569294E+03  0.31683231637E+04  0.32076421678E+04  0.92258066891E+02 0.  0.
         13    1    3    3    0    0 -0.30817172408E+02  0.15394131419E+03  0.78635263303E+03  0.80187161678E+03  0.00000000000E+00 0. -1.
        -13    1    3    3    0    0 -0.13483372566E+03  0.30946437875E+03  0.23819705306E+04  0.24057705510E+04  0.00000000000E+00 0.  1.
         22    1    1    2    0    0  0.16565089807E+03 -0.46340569294E+03  0.13649043168E+03  0.51070019995E+03  0.00000000000E+00 0.  1.
<mgrwt>
<rscale>  0 0.17041940E+04</rscale>
<asrwt>0</asrwt>
<pdfrwt beam="1">  1        2 0.54024272E+00 0.17041940E+04</pdfrwt>
<pdfrwt beam="2">  1       -2 0.31809908E-01 0.17041940E+04</pdfrwt>
<totfact> 0.70429865E+00</totfact>
</mgrwt>
</event>
<event>
 6    1  0.1072514E-005  0.4321194E+04  0.7818608E-02  0.7942711E-01
          2   -1    0    0  501    0  0.00000000000E+00  0.00000000000E+00  0.24935642926E+04  0.24935642926E+04  0.00000000000E+00 0. -1.
         -2   -1    0    0    0  501 -0.00000000000E+00 -0.00000000000E+00 -0.18720912075E+04  0.18720912075E+04  0.00000000000E+00 0.  1.
         23    2    1    2    0    0 -0.90650238453E+03 -0.18061178379E+04  0.10797463850E+04  0.22935013951E+04  0.10241179558E+03 0.  0.
         13    1    3    3    0    0 -0.46917914280E+03 -0.82095259495E+03  0.50654310674E+03  0.10726966720E+04  0.00000000000E+00 0.  1.
        -13    1    3    3    0    0 -0.43732324173E+03 -0.98516524290E+03  0.57320327827E+03  0.12208047230E+04  0.00000000000E+00 0. -1.
         22    1    1    2    0    0  0.90650238453E+03  0.18061178379E+04 -0.45827329987E+03  0.20721541050E+04  0.00000000000E+00 0.  1.
<mgrwt>
<rscale>  0 0.43211942E+04</rscale>
<asrwt>0</asrwt>
<pdfrwt beam="1">  1        2 0.38362528E+00 0.43211942E+04</pdfrwt>
<pdfrwt beam="2">  1       -2 0.28801403E+00 0.43211942E+04</pdfrwt>
<totfact> 0.10155838E-01</totfact>
</mgrwt>
</event>
<event>
 6    1  0.1072514E-005  0.1234054E+04  0.7818608E-02  0.9083560E-01
          1   -1    0    0  501    0  0.00000000000E+00  0.00000000000E+00  0.26584143123E+03  0.26584143123E+03  0.00000000000E+00 0. -1.
         -1   -1    0    0    0  501 -0.00000000000E+00 -0.00000000000E+00 -0.14321417911E+04  0.14321417911E+04  0.00000000000E+00 0.  1.
         23    2    1    2    0    0  0.36292732700E+03 -0.42849165797E+03 -0.24594243577E+03  0.61984591472E+03  0.91651135561E+02 0.  0.
         11    1    3    3    0    0  0.22091367583E+03 -0.32611550114E+03 -0.17082708112E+03  0.42934375959E+03  0.00000000000E+00 0. -1.
        -11    1    3    3    0    0  0.14201365117E+03 -0.10237615683E+03 -0.75115354651E+02  0.19050215513E+03  0.00000000000E+00 0.  1.
         22    1    1    2    0    0 -0.36292732700E+03  0.42849165797E+03 -0.92035792413E+03  0.10781373076E+04  0.00000000000E+00 0.  1.
<mgrwt>
<rscale>  0 0.12340545E+04</rscale>
<asrwt>0</asrwt>
<pdfrwt beam="1">  1        1 0.40898681E-01 0.12340545E+04</pdfrwt>
<pdfrwt beam="2">  1       -1 0.22032951E+00 0.12340545E+04</pdfrwt>
<totfact> 0.11105316E+01</totfact>
</mgrwt>
</event>
<event>
 6    1  0.1072514E-005  0.2428439E+04  0.7818608E-02  0.8428932E-01
          2   -1    0    0  501    0  0.00000000000E+00  0.00000000000E+00  0.27991181454E+04  0.27991181454E+04  0.00000000000E+00 0. -1.
         -2   -1    0    0    0  501 -0.00000000000E+00 -0.00000000000E+00 -0.52671203135E+03  0.52671203135E+03  0.00000000000E+00 0.  1.
         23    2    1    2    0    0  0.71112759214E+03  0.28698725458E+03  0.24239174035E+04  0.25441526170E+04  0.96295499584E+02 0.  0.
         13    1    3    3    0    0  0.34019806805E+03  0.12438361217E+03  0.99209879571E+03  0.10561562521E+04  0.00000000000E+00 0. -1.
        -13    1    3    3    0    0  0.37092952409E+03  0.16260364241E+03  0.14318186078E+04  0.14879963649E+04  0.00000000000E+00 0.  1.
         22    1    1    2    0    0 -0.71112759214E+03 -0.28698725458E+03 -0.15151128940E+03  0.78167755975E+03  0.00000000000E+00 0.  1.
<mgrwt>
<rscale>  0 0.24284392E+04</rscale>
<asrwt>0</asrwt>
<pdfrwt beam="1">  1        2 0.43063355E+00 0.24284392E+04</pdfrwt>
<pdfrwt beam="2">  1       -2 0.81032622E-01 0.24284392E+04</pdfrwt>
<totfact> 0.27895771E+00</totfact>
</mgrwt>
</event>
<event>
 6    1  0.1072514E-005  0.1753994E+04  0.7818608E-02  0.8731155E-01
         -1   -1    0    0    0  501 -0.00000000000E+00  0.00000000000E+00  0.57035644760E+03  0.57035644760E+03  0.00000000000E+00 0.  1.
          1   -1    0    0  501    0  0.00000000000E+00 -0.00000000000E+00 -0.13484969186E+04  0.13484969186E+04  0.00000000000E+00 0. -1.
         23    2    1    2    0    0 -0.46175475636E+03  0.16421312769E+03  0.40399953175E+03  0.63915090375E+03  0.71518178023E+02 0.  0.
         11    1    3    3    0    0 -0.17634669860E+03  0.91267876987E+02  0.19204345348E+03  0.27624024236E+03  0.00000000000E+00 0.  1.
        -11    1    3    3    0    0 -0.28540805776E+03  0.72945250705E+02  0.21195607827E+03  0.36291066139E+03  0.00000000000E+00 0. -1.
         22    1    1    2    0    0  0.46175475636E+03 -0.16421312769E+03 -0.11821400028E+04  0.12797024625E+04  0.00000000000E+00 0. -1.
<mgrwt>
<rscale>  0 0.17539942E+04</rscale>
<asrwt>0</asrwt>
<pdfrwt beam="1">  1        1 0.20746106E+00 0.17539942E+04</pdfrwt>
<pdfrwt beam="2">  1       -1 0.87747148E-01 0.17539942E+04</pdfrwt>
<totfact> 0.10108181E+01</totfact>
</mgrwt>
</event>
<event>
 6    1  0.2387890E-005  0.3764799E+04  0.7818608E-02  0.8053751E-01
         -2   -1    0    0    0  501 -0.00000000000E+00  0.00000000000E+00  0.15289801360E+04  0.15289801360E+04  0.00000000000E+00 0.  1.
          2   -1    0    0  501    0  0.00000000000E+00 -0.00000000000E+00 -0.23175105845E+04  0.23175105845E+04  0.00000000000E+00 0. -1.
         23    2    1    2    0    0  0.42617423656E+03  0.14281286979E+04  0.77853877431E+03  0.16838807217E+04  0.90308383365E+02 0.  0.
         11    1    3    3    0    0  0.30426869379E+03  0.10534828038E+04  0.61570642349E+03  0.12575769781E+04  0.00000000000E+00 0. -1.
        -11    1    3    3    0    0  0.12190554277E+03  0.37464589414E+03  0.16283235082E+03  0.42630374363E+03  0.00000000000E+00 0.  1.
         22    1    1    2    0    0 -0.42617423656E+03 -0.14281286979E+04 -0.15670692228E+04  0.21626099988E+04  0.00000000000E+00 0. -1.
<mgrwt>
<rscale>  0 0.37647989E+04</rscale>
<asrwt>0</asrwt>
<pdfrwt beam="1">  1        2 0.35654009E+00 0.37647989E+04</pdfrwt>
<pdfrwt beam="2">  1       -2 0.23522772E+00 0.37647989E+04</pdfrwt>
<totfact> 0.28258543E-01</totfact>
</mgrwt>
</event>
<event>
 6    1  0.1072514E-005  0.2663947E+04  0.7818608E-02  0.8346799E-01
          2   -1    0    0  501    0  0.00000000000E+00  0.00000000000E+00  0.12957429565E+04  0.12957429565E+04  0.00000000000E+00 0.  1.
         -2   -1    0    0    0  501 -0.00000000000E+00 -0.00000000000E+00 -0.13692167375E+04  0.13692167375E+04  0.00000000000E+00 0. -1.
         23    2    1    2    0    0  0.51587243232E+03  0.12155069457E+04  0.12585531874E+03  0.13295520441E+04  0.91036119881E+02 0.  0.
         13    1    3    3    0    0  0.26360340021E+03  0.51308646761E+03  0.70969039888E+02  0.58118936713E+03  0.00000000000E+00 0. -1.
        -13    1    3    3    0    0  0.25226903211E+03  0.70242047812E+03  0.54886278856E+02  0.74836267695E+03  0.00000000000E+00 0.  1.
         22    1    1    2    0    0 -0.51587243232E+03 -0.12155069457E+04 -0.19932909973E+03  0.13354076500E+04  0.00000000000E+00 0. -1.
<mgrwt>
<rscale>  0 0.26639467E+04</rscale>
<asrwt>0</asrwt>
<pdfrwt beam="1">  1        2 0.19934507E+00 0.26639467E+04</pdfrwt>
<pdfrwt beam="2">  1       -2 0.21064873E+00 0.26639467E+04</pdfrwt>
<totfact> 0.16592295E+00</totfact>
</mgrwt>
</event>
<event>
 6    1  0.1072514E-005  0.2595005E+04  0.7818608E-02  0.8369900E-01
          1   -1    0    0  501    0  0.00000000000E+00  0.00000000000E+00  0.45441717936E+03  0.45441717936E+03  0.00000000000E+00 0. -1.
         -1   -1    0    0    0  501 -0.00000000000E+00 -0.00000000000E+00 -0.37047738150E+04  0.37047738150E+04  0.00000000000E+00 0.  1.
         23    2    1    2    0    0 -0.11254843899E+04 -0.64225606500E+03 -0.16137444465E+04  0.20716787375E+04  0.92052636369E+02 0.  0.
         11    1    3    3    0    0 -0.36467350319E+03 -0.17370518297E+03 -0.55166457694E+03  0.68373537276E+03  0.00000000000E+00 0. -1.
        -11    1    3    3    0    0 -0.76081088671E+03 -0.46855088203E+03 -0.10620798695E+04  0.13879433647E+04  0.00000000000E+00 0.  1.
         22    1    1    2    0    0  0.11254843899E+04  0.64225606500E+03 -0.16366121892E+04  0.20875122569E+04  0.00000000000E+00 0.  1.
<mgrwt>
<rscale>  0 0.25950051E+04</rscale>
<asrwt>0</asrwt>
<pdfrwt beam="1">  1        1 0.69910338E-01 0.25950051E+04</pdfrwt>
<pdfrwt beam="2">  1       -1 0.56996518E+00 0.25950051E+04</pdfrwt>
<totfact> 0.26174451E-02</totfact>
</mgrwt>
</event>
<event>
 6    1  0.1072514E-005  0.9868751E+03  0.7818608E-02  0.9323058E-01
          1   -1    0    0  501    0  0.00000000000E+00  0.00000000000E+00  0.22582812127E+04  0.22582812127E+04  0.00000000000E+00 0. -1.
         -1   -1    0    0    0  501 -0.00000000000E+00 -0.00000000000E+00 -0.10781679317E+03  0.10781679317E+03  0.00000000000E+00 0.  1.
         23    2    1    2    0    0  0.17697842378E+03  0.29226564887E+03  0.19238211017E+04  0.19560885358E+04  0.91946488882E+02 0.  0.
         11    1    3    3    0    0  0.81138603973E+02  0.21789345939E+03  0.12699762376E+04  0.12910850773E+04  0.00000000000E+00 0. -1.
        -11    1    3    3    0    0  0.95839819808E+02  0.74372189484E+02  0.65384486404E+03  0.66500345854E+03  0.00000000000E+00 0.  1.
         22    1    1    2    0    0 -0.17697842378E+03 -0.29226564887E+03  0.22664331791E+03  0.41000947007E+03  0.00000000000E+00 0.  1.
<mgrwt>
<rscale>  0 0.98687515E+03</rscale>
<asrwt>0</asrwt>
<pdfrwt beam="1">  1        1 0.34742784E+00 0.98687515E+03</pdfrwt>
<pdfrwt beam="2">  1       -1 0.16587201E-01 0.98687515E+03</pdfrwt>
<totfact> 0.56160630E+01</totfact>
</mgrwt>
</event>
<event>
 6    1  0.1072514E-005  0.2428973E+04  0.7818608E-02  0.8428735E-01
         -2   -1    0    0    0  501 -0.00000000000E+00  0.00000000000E+00  0.95550725627E+03  0.95550725627E+03  0.00000000000E+00 0.  1.
          2   -1    0    0  501    0  0.00000000000E+00 -0.00000000000E+00 -0.15436593386E+04  0.15436593386E+04  0.00000000000E+00 0. -1.
         23    2    1    2    0    0 -0.23840193555E+03 -0.34294541639E+03  0.87696555069E+03  0.97567825554E+03  0.91828316683E+02 0.  0.
         13    1    3    3    0    0 -0.72241366977E+02 -0.18377915959E+03  0.39550050839E+03  0.44205683655E+03  0.00000000000E+00 0.  1.
        -13    1    3    3    0    0 -0.16616056858E+03 -0.15916625680E+03  0.48146504229E+03  0.53362141899E+03  0.00000000000E+00 0. -1.
         22    1    1    2    0    0  0.23840193555E+03  0.34294541639E+03 -0.14651176330E+04  0.15234883393E+04  0.00000000000E+00 0. -1.
<mgrwt>
<rscale>  0 0.24289732E+04</rscale>
<asrwt>0</asrwt>
<pdfrwt beam="1">  1        2 0.23748605E+00 0.24289732E+04</pdfrwt>
<pdfrwt beam="2">  1       -2 0.14700112E+00 0.24289732E+04</pdfrwt>
<totfact> 0.34014157E+00</totfact>
</mgrwt>
</event>
<event>
 6    1  0.1357743E-005  0.2006016E+04  0.7818608E-02  0.8603813E-01
         -1   -1    0    0    0  501 -0.00000000000E+00  0.00000000000E+00  0.12311551370E+04  0.12311551370E+04  0.00000000000E+00 0.  1.
          1   -1    0    0  501    0  0.00000000000E+00 -0.00000000000E+00 -0.81713897230E+03  0.81713897230E+03  0.00000000000E+00 0. -1.
         23    2    1    2    0    0  0.32626208278E+02 -0.89868879300E+03  0.65658512953E+03  0.11168727660E+04  0.87147730679E+02 0.  0.
         11    1    3    3    0    0  0.77664784141E+01 -0.34807820112E+03  0.30700897481E+03  0.46419097675E+03  0.00000000000E+00 0. -1.
        -11    1    3    3    0    0  0.24859729864E+02 -0.55061059188E+03  0.34957615473E+03  0.65268178925E+03  0.00000000000E+00 0.  1.
         22    1    1    2    0    0 -0.32626208278E+02  0.89868879300E+03 -0.24256896482E+03  0.93142134333E+03  0.00000000000E+00 0. -1.
<mgrwt>
<rscale>  0 0.20060158E+04</rscale>
<asrwt>0</asrwt>
<pdfrwt beam="1">  1        1 0.12571369E+00 0.20060158E+04</pdfrwt>
<pdfrwt beam="2">  1       -1 0.18940848E+00 0.20060158E+04</pdfrwt>
<totfact> 0.35335767E+00</totfact>
</mgrwt>
</event>
<event>
 6    1  0.1072514E-005  0.7518058E+03  0.7818608E-02  0.9632522E-01
          1   -1    0    0  501    0  0.00000000000E+00  0.00000000000E+00  0.19406177972E+04  0.19406177972E+04  0.00000000000E+00 0. -1.
         -1   -1    0    0    0  501 -0.00000000000E+00 -0.00000000000E+00 -0.72813408013E+02  0.72813408013E+02  0.00000000000E+00 0.  1.
         23    2    1    2    0    0 -0.12091736953E+03  0.33125674791E+03  0.12496951758E+04  0.13018055712E+04  0.92777527074E+02 0.  0.
         11    1    3    3    0    0 -0.14314313500E+02  0.21423236577E+02  0.21324513703E+03  0.21479605002E+03  0.00000000000E+00 0. -1.
        -11    1    3    3    0    0 -0.10660305603E+03  0.30983351133E+03  0.10364500388E+04  0.10870095212E+04  0.00000000000E+00 0.  1.
         22    1    1    2    0    0  0.12091736953E+03 -0.33125674791E+03  0.61810921335E+03  0.71162563397E+03  0.00000000000E+00 0.  1.
<mgrwt>
<rscale>  0 0.75180581E+03</rscale>
<asrwt>0</asrwt>
<pdfrwt beam="1">  1        1 0.29855654E+00 0.75180581E+03</pdfrwt>
<pdfrwt beam="2">  1       -1 0.11202064E-01 0.75180581E+03</pdfrwt>
<totfact> 0.17703066E+02</totfact>
</mgrwt>
</event>
<event>
 6    1  0.1072514E-005  0.2004410E+04  0.7818608E-02  0.8604562E-01
         -2   -1    0    0    0  501 -0.00000000000E+00  0.00000000000E+00  0.81497872184E+03  0.81497872184E+03  0.00000000000E+00 0.  1.
          2   -1    0    0  501    0  0.00000000000E+00 -0.00000000000E+00 -0.12324427915E+04  0.12324427915E+04  0.00000000000E+00 0. -1.
         23    2    1    2    0    0 -0.64285986872E+03 -0.12025330352E+03 -0.98206963087E+03  0.11834139280E+04  0.90984049176E+02 0.  0.
         11    1    3    3    0    0 -0.58399188031E+03 -0.92998601160E+02 -0.84044990407E+03  0.10276435653E+04  0.00000000000E+00 0. -1.
        -11    1    3    3    0    0 -0.58867988411E+02 -0.27254702365E+02 -0.14161972681E+03  0.15577036265E+03  0.00000000000E+00 0.  1.
         22    1    1    2    0    0  0.64285986872E+03  0.12025330352E+03  0.56460556122E+03  0.86400758537E+03  0.00000000000E+00 0.  1.
<mgrwt>
<rscale>  0 0.20044098E+04</rscale>
<asrwt>0</asrwt>
<pdfrwt beam="1">  1        2 0.18960658E+00 0.20044098E+04</pdfrwt>
<pdfrwt beam="2">  1       -2 0.12538134E+00 0.20044098E+04</pdfrwt>
<totfact> 0.80070345E+00</totfact>
</mgrwt>
</event>
<event>
 6    1  0.1072514E-005  0.2918081E+04  0.7818608E-02  0.8267518E-01
          2   -1    0    0  501    0  0.00000000000E+00  0.00000000000E+00  0.31132302682E+04  0.31132302682E+04  0.00000000000E+00 0. -1.
         -2   -1    0    0    0  501 -0.00000000000E+00 -0.00000000000E+00 -0.68379123319E+03  0.68379123319E+03  0.00000000000E+00 0.  1.
         23    2    1    2    0    0  0.32744215058E+03  0.20913898983E+03  0.30439537411E+04  0.30699824356E+04  0.90445001053E+02 0.  0.
         13    1    3    3    0    0  0.28676714944E+02  0.42922577308E+02  0.60237547027E+03  0.60458325217E+03  0.00000000000E+00 0. -1.
        -13    1    3    3    0    0  0.29876543563E+03  0.16621641253E+03  0.24415782708E+04  0.24653991835E+04  0.00000000000E+00 0.  1.
         22    1    1    2    0    0 -0.32744215058E+03 -0.20913898983E+03 -0.61451470611E+03  0.72703906571E+03  0.00000000000E+00 0.  1.
<mgrwt>
<rscale>  0 0.29180813E+04</rscale>
<asrwt>0</asrwt>
<pdfrwt beam="1">  1        2 0.47895849E+00 0.29180813E+04</pdfrwt>
<pdfrwt beam="2">  1       -2 0.10519865E+00 0.29180813E+04</pdfrwt>
<totfact> 0.93010314E-01</totfact>
</mgrwt>
</event>
<event>
 6    1  0.1072514E-005  0.2653872E+04  0.7818608E-02  0.8350129E-01
         -1   -1    0    0    0  501 -0.00000000000E+00  0.00000000000E+00  0.12778490447E+04  0.12778490447E+04  0.00000000000E+00 0.  1.
          1   -1    0    0  501    0  0.00000000000E+00 -0.00000000000E+00 -0.13779086279E+04  0.13779086279E+04  0.00000000000E+00 0. -1.
         23    2    1    2    0    0 -0.78391568460E+03  0.13016078450E+03 -0.11117293495E+04  0.13693124361E+04  0.87228267291E+02 0.  0.
         13    1    3    3    0    0 -0.19096485344E+03 -0.44827796852E+01 -0.24853855105E+03  0.31346304713E+03  0.00000000000E+00 0.  1.
        -13    1    3    3    0    0 -0.59295083116E+03  0.13464356419E+03 -0.86319079845E+03  0.10558493889E+04  0.00000000000E+00 0. -1.
         22    1    1    2    0    0  0.78391568460E+03 -0.13016078450E+03  0.10116697663E+04  0.12864452365E+04  0.00000000000E+00 0.  1.
<mgrwt>
<rscale>  0 0.26538721E+04</rscale>
<asrwt>0</asrwt>
<pdfrwt beam="1">  1        1 0.21198594E+00 0.26538721E+04</pdfrwt>
<pdfrwt beam="2">  1       -1 0.19659216E+00 0.26538721E+04</pdfrwt>
<totfact> 0.11093756E+00</totfact>
</mgrwt>
</event>
<event>
 6    1  0.1072514E-005  0.2681253E+04  0.7818608E-02  0.8341113E-01
          2   -1    0    0  501    0  0.00000000000E+00  0.00000000000E+00  0.22717883597E+04  0.22717883597E+04  0.00000000000E+00 0. -1.
         -2   -1    0    0    0  501 -0.00000000000E+00 -0.00000000000E+00 -0.79112971104E+03  0.79112971104E+03  0.00000000000E+00 0.  1.
         23    2    1    2    0    0 -0.84653379740E+03  0.72894906154E+03  0.15846195026E+04  0.19409581501E+04  0.91177671128E+02 0.  0.
         11    1    3    3    0    0 -0.59927830845E+03  0.46862140118E+03  0.11154603939E+04  0.13501823576E+04  0.00000000000E+00 0.  1.
        -11    1    3    3    0    0 -0.24725548895E+03  0.26032766036E+03  0.46915910877E+03  0.59077579241E+03  0.00000000000E+00 0. -1.
         22    1    1    2    0    0  0.84653379740E+03 -0.72894906154E+03 -0.10396085397E+03  0.11219599207E+04  0.00000000000E+00 0.  1.
<mgrwt>
<rscale>  0 0.26812529E+04</rscale>
<asrwt>0</asrwt>
<pdfrwt beam="1">  1        2 0.34950590E+00 0.26812529E+04</pdfrwt>
<pdfrwt beam="2">  1       -2 0.12171226E+00 0.26812529E+04</pdfrwt>
<totfact> 0.21181677E+00</totfact>
</mgrwt>
</event>
<event>
 6    1  0.1072514E-005  0.1517603E+04  0.7818608E-02  0.8872831E-01
          2   -1    0    0  501    0  0.00000000000E+00  0.00000000000E+00  0.12048357506E+04  0.12048357506E+04  0.00000000000E+00 0. -1.
         -2   -1    0    0    0  501 -0.00000000000E+00 -0.00000000000E+00 -0.47789057752E+03  0.47789057752E+03  0.00000000000E+00 0.  1.
         23    2    1    2    0    0 -0.23628739099E+02 -0.25351683468E+03  0.11541104436E+04  0.11854343907E+04  0.91949311369E+02 0.  0.
         13    1    3    3    0    0  0.14404977188E+02 -0.11327414660E+03  0.68117752830E+03  0.69068180859E+03  0.00000000000E+00 0. -1.
        -13    1    3    3    0    0 -0.38033716287E+02 -0.14024268808E+03  0.47293291526E+03  0.49475258208E+03  0.00000000000E+00 0.  1.
         22    1    1    2    0    0  0.23628739099E+02  0.25351683468E+03 -0.42716527047E+03  0.49729193747E+03  0.00000000000E+00 0.  1.
<mgrwt>
<rscale>  0 0.15176029E+04</rscale>
<asrwt>0</asrwt>
<pdfrwt beam="1">  1        2 0.18535934E+00 0.15176029E+04</pdfrwt>
<pdfrwt beam="2">  1       -2 0.73521628E-01 0.15176029E+04</pdfrwt>
<totfact> 0.30300063E+01</totfact>
</mgrwt>
</event>
<event>
 6    1  0.1072514E-005  0.8014273E+03  0.7818608E-02  0.9557953E-01
         -2   -1    0    0    0  501 -0.00000000000E+00  0.00000000000E+00  0.53042049877E+02  0.53042049877E+02  0.00000000000E+00 0.  1.
          2   -1    0    0  501    0  0.00000000000E+00 -0.00000000000E+00 -0.30272481250E+04  0.30272481250E+04  0.00000000000E+00 0. -1.
         23    2    1    2    0    0 -0.61429605687E+02 -0.16484819012E+03 -0.28679492964E+04  0.28747688250E+04  0.90631717683E+02 0.  0.
         13    1    3    3    0    0 -0.18150340876E+02 -0.12375665958E+03 -0.13904050982E+04  0.13960198719E+04  0.00000000000E+00 0.  1.
        -13    1    3    3    0    0 -0.43279264811E+02 -0.41091530544E+02 -0.14775441981E+04  0.14787489530E+04  0.00000000000E+00 0. -1.
         22    1    1    2    0    0  0.61429605687E+02  0.16484819012E+03 -0.10625677878E+03  0.20552134993E+03  0.00000000000E+00 0.  1.
<mgrwt>
<rscale>  0 0.80142734E+03</rscale>
<asrwt>0</asrwt>
<pdfrwt beam="1">  1        2 0.46573043E+00 0.80142734E+03</pdfrwt>
<pdfrwt beam="2">  1       -2 0.81603162E-02 0.80142734E+03</pdfrwt>
<totfact> 0.16754870E+02</totfact>
</mgrwt>
</event>
<event>
 6    1  0.1072514E-005  0.1968178E+04  0.7818608E-02  0.8621645E-01
          2   -1    0    0  501    0  0.00000000000E+00  0.00000000000E+00  0.16141042129E+04  0.16141042129E+04  0.00000000000E+00 0. -1.
         -2   -1    0    0    0  501 -0.00000000000E+00 -0.00000000000E+00 -0.59998033738E+03  0.59998033738E+03  0.00000000000E+00 0.  1.
         23    2    1    2    0    0 -0.71279024403E+03  0.56124182649E+03  0.93082636769E+03  0.13030407563E+04  0.91734213382E+02 0.  0.
         13    1    3    3    0    0 -0.59670439414E+03  0.42353990284E+03  0.74454764935E+03  0.10439316958E+04  0.00000000000E+00 0. -1.
        -13    1    3    3    0    0 -0.11608584989E+03  0.13770192365E+03  0.18627871834E+03  0.25910906049E+03  0.00000000000E+00 0.  1.
         22    1    1    2    0    0  0.71279024403E+03 -0.56124182649E+03  0.83297507819E+02  0.91104379401E+03  0.00000000000E+00 0.  1.
<mgrwt>
<rscale>  0 0.19681776E+04</rscale>
<asrwt>0</asrwt>
<pdfrwt beam="1">  1        2 0.24832372E+00 0.19681776E+04</pdfrwt>
<pdfrwt beam="2">  1       -2 0.92304668E-01 0.19681776E+04</pdfrwt>
<totfact> 0.10166891E+01</totfact>
</mgrwt>
</event>
<event>
 6    1  0.1072514E-005  0.4863972E+03  0.7818608E-02  0.1017392E+00
          1   -1    0    0  501    0  0.00000000000E+00  0.00000000000E+00  0.10516417513E+03  0.10516417513E+03  0.00000000000E+00 0. -1.
         -1   -1    0    0    0  501 -0.00000000000E+00 -0.00000000000E+00 -0.56241159362E+03  0.56241159362E+03  0.00000000000E+00 0.  1.
         23    2    1    2    0    0 -0.14027777204E+03 -0.14126580367E+03 -0.66293886944E+02  0.22885200094E+03  0.91348115866E+02 0.  0.
         11    1    3    3    0    0 -0.77951627204E+02 -0.79078105527E+02 -0.83764251802E+02  0.13909080788E+03  0.00000000000E+00 0.  1.
        -11    1    3    3    0    0 -0.62326144840E+02 -0.62187698139E+02  0.17470364859E+02  0.89761193055E+02  0.00000000000E+00 0. -1.
         22    1    1    2    0    0  0.14027777204E+03  0.14126580367E+03 -0.39095353155E+03  0.43872376782E+03  0.00000000000E+00 0.  1.
<mgrwt>
<rscale>  0 0.48639717E+03</rscale>
<asrwt>0</asrwt>
<pdfrwt beam="1">  1        1 0.16179104E-01 0.48639717E+03</pdfrwt>
<pdfrwt beam="2">  1       -1 0.86524859E-01 0.48639717E+03</pdfrwt>
<totfact> 0.46529358E+02</totfact>
</mgrwt>
</event>
<event>
 6    1  0.1072514E-005  0.9949312E+03  0.7818608E-02  0.9314122E-01
         -1   -1    0    0    0  501 -0.00000000000E+00  0.00000000000E+00  0.51910332322E+03  0.51910332322E+03  0.00000000000E+00 0.  1.
          1   -1    0    0  501    0  0.00000000000E+00 -0.00000000000E+00 -0.47672981223E+03  0.47672981223E+03  0.00000000000E+00 0. -1.
         23    2    1    2    0    0  0.41581175479E+03 -0.19660088200E+03  0.19952331070E+03  0.50978027641E+03  0.92277063664E+02 0.  0.
         13    1    3    3    0    0  0.85704319202E+02 -0.63863796047E+02  0.11891139931E+02  0.10754168487E+03  0.00000000000E+00 0.  1.
        -13    1    3    3    0    0  0.33010743559E+03 -0.13273708596E+03  0.18763217077E+03  0.40223859155E+03  0.00000000000E+00 0. -1.
         22    1    1    2    0    0 -0.41581175479E+03  0.19660088200E+03 -0.15714979970E+03  0.48605285904E+03  0.00000000000E+00 0.  1.
<mgrwt>
<rscale>  0 0.99493121E+03</rscale>
<asrwt>0</asrwt>
<pdfrwt beam="1">  1        1 0.73343048E-01 0.99493121E+03</pdfrwt>
<pdfrwt beam="2">  1       -1 0.79862050E-01 0.99493121E+03</pdfrwt>
<totfact> 0.74361130E+01</totfact>
</mgrwt>
</event>
<event>
 6    1  0.1072514E-005  0.2169862E+04  0.7818608E-02  0.8531078E-01
          1   -1    0    0  501    0  0.00000000000E+00  0.00000000000E+00  0.14197664315E+04  0.14197664315E+04  0.00000000000E+00 0. -1.
         -1   -1    0    0    0  501 -0.00000000000E+00 -0.00000000000E+00 -0.82906277569E+03  0.82906277569E+03  0.00000000000E+00 0.  1.
         23    2    1    2    0    0  0.49236528047E+03 -0.61128759199E+03 -0.47748756349E+03  0.92326194351E+03  0.91225838050E+02 0.  0.
         13    1    3    3    0    0  0.20073777376E+03 -0.21659405483E+03 -0.13424598298E+03  0.32439269774E+03  0.00000000000E+00 0. -1.
        -13    1    3    3    0    0  0.29162750670E+03 -0.39469353716E+03 -0.34324158051E+03  0.59886924577E+03  0.00000000000E+00 0.  1.
         22    1    1    2    0    0 -0.49236528047E+03  0.61128759199E+03  0.10681912193E+04  0.13255672636E+04  0.00000000000E+00 0. -1.
<mgrwt>
<rscale>  0 0.21698622E+04</rscale>
<asrwt>0</asrwt>
<pdfrwt beam="1">  1        1 0.21842561E+00 0.21698622E+04</pdfrwt>
<pdfrwt beam="2">  1       -1 0.12754812E+00 0.21698622E+04</pdfrwt>
<totfact> 0.36193723E+00</totfact>
</mgrwt>
</event>
<event>
 6    1  0.1072514E-005  0.1492393E+04  0.7818608E-02  0.8889527E-01
         -1   -1    0    0    0  501 -0.00000000000E+00  0.00000000000E+00  0.36146427548E+03  0.36146427548E+03  0.00000000000E+00 0.  1.
          1   -1    0    0  501    0  0.00000000000E+00 -0.00000000000E+00 -0.15404276804E+04  0.15404276804E+04  0.00000000000E+00 0. -1.
         23    2    1    2    0    0 -0.26008167487E+03 -0.63075057671E+03 -0.21555964074E+03  0.72136852093E+03  0.91748660241E+02 0.  0.
         13    1    3    3    0    0 -0.59493578092E+02 -0.25060968632E+03 -0.61877316351E+02  0.26490281801E+03  0.00000000000E+00 0.  1.
        -13    1    3    3    0    0 -0.20058809677E+03 -0.38014089038E+03 -0.15368232439E+03  0.45646570292E+03  0.00000000000E+00 0. -1.
         22    1    1    2    0    0  0.26008167487E+03  0.63075057671E+03 -0.96340376413E+03  0.11805234349E+04  0.00000000000E+00 0. -1.
<mgrwt>
<rscale>  0 0.14923935E+04</rscale>
<asrwt>0</asrwt>
<pdfrwt beam="1">  1        1 0.23698888E+00 0.14923935E+04</pdfrwt>
<pdfrwt beam="2">  1       -1 0.55609887E-01 0.14923935E+04</pdfrwt>
<totfact> 0.19412967E+01</totfact>
</mgrwt>
</event>
<event>
 6    1  0.1072514E-005  0.6164520E+04  0.7818608E-02  0.7670331E-01
          1   -1    0    0  501    0  0.00000000000E+00  0.00000000000E+00  0.25783791864E+04  0.25783791864E+04  0.00000000000E+00 0. -1.
         -1   -1    0    0    0  501 -0.00000000000E+00 -0.00000000000E+00 -0.36846115700E+04  0.36846115700E+04  0.00000000000E+00 0.  1.
         23    2    1    2    0    0 -0.10949436961E+04  0.24797527588E+03 -0.34689005488E+04  0.36471554607E+04  0.89880490647E+02 0.  0.
         11    1    3    3    0    0 -0.41868227212E+03  0.10184134045E+03 -0.11939709049E+04  0.12693435411E+04  0.00000000000E+00 0.  1.
        -11    1    3    3    0    0 -0.67626142393E+03  0.14613393543E+03 -0.22749296439E+04  0.23778119197E+04  0.00000000000E+00 0. -1.
         22    1    1    2    0    0  0.10949436961E+04 -0.24797527588E+03  0.23626681652E+04  0.26158352956E+04  0.00000000000E+00 0. -1.
<mgrwt>
<rscale>  0 0.61645197E+04</rscale>
<asrwt>0</asrwt>
<pdfrwt beam="1">  1        1 0.39667372E+00 0.61645197E+04</pdfrwt>
<pdfrwt beam="2">  1       -1 0.56686332E+00 0.61645197E+04</pdfrwt>
<totfact> 0.49571190E-04</totfact>
</mgrwt>
</event>
<event>
 6    1  0.1072514E-005  0.1973302E+04  0.7818608E-02  0.8619206E-01
         -1   -1    0    0    0  501 -0.00000000000E+00  0.00000000000E+00  0.46178672848E+03  0.46178672848E+03  0.00000000000E+00 0.  1.
          1   -1    0    0  501    0  0.00000000000E+00 -0.00000000000E+00 -0.21080722845E+04  0.21080722845E+04  0.00000000000E+00 0. -1.
         23    2    1    2    0    0  0.79711751648E+03  0.40994292668E+03 -0.13553484716E+04  0.16274716588E+04  0.90801886304E+02 0.  0.
         11    1    3    3    0    0  0.51631062757E+03  0.21738908382E+03 -0.82441707880E+03  0.99674379743E+03  0.00000000000E+00 0. -1.
        -11    1    3    3    0    0  0.28080688891E+03  0.19255384285E+03 -0.53093139280E+03  0.63072786138E+03  0.00000000000E+00 0.  1.
         22    1    1    2    0    0 -0.79711751648E+03 -0.40994292668E+03 -0.29093708440E+03  0.94238735416E+03  0.00000000000E+00 0.  1.
<mgrwt>
<rscale>  0 0.19733016E+04</rscale>
<asrwt>0</asrwt>
<pdfrwt beam="1">  1        1 0.32431881E+00 0.19733016E+04</pdfrwt>
<pdfrwt beam="2">  1       -1 0.71044112E-01 0.19733016E+04</pdfrwt>
<totfact> 0.46823786E+00</totfact>
</mgrwt>
</event>
<event>
 6    1  0.1072514E-005  0.3291290E+04  0.7818608E-02  0.8165115E-01
         -2   -1    0    0    0  501 -0.00000000000E+00  0.00000000000E+00  0.14173921081E+04  0.14173921081E+04  0.00000000000E+00 0.  1.
          2   -1    0    0  501    0  0.00000000000E+00 -0.00000000000E+00 -0.19106556135E+04  0.19106556135E+04  0.00000000000E+00 0. -1.
         23    2    1    2    0    0 -0.52436803390E+03  0.30785618556E+03 -0.17916422129E+04  0.18943376623E+04  0.93787493034E+02 0.  0.
         11    1    3    3    0    0 -0.29860606476E+02  0.29733543051E+02 -0.20558518452E+03  0.20985949465E+03  0.00000000000E+00 0. -1.
        -11    1    3    3    0    0 -0.49450742742E+03  0.27812264251E+03 -0.15860570284E+04  0.16844781676E+04  0.00000000000E+00 0.  1.
         22    1    1    2    0    0  0.52436803390E+03 -0.30785618556E+03  0.12983787075E+04  0.14337100592E+04  0.00000000000E+00 0.  1.
<mgrwt>
<rscale>  0 0.32912904E+04</rscale>
<asrwt>0</asrwt>
<pdfrwt beam="1">  1        2 0.29394702E+00 0.32912904E+04</pdfrwt>
<pdfrwt beam="2">  1       -2 0.21806033E+00 0.32912904E+04</pdfrwt>
<totfact> 0.63663058E-01</totfact>
</mgrwt>
</event>
<event>
 6    1  0.1072514E-005  0.2702586E+04  0.7818608E-02  0.8334166E-01
          1   -1    0    0  501    0  0.00000000000E+00  0.00000000000E+00  0.25266840908E+04  0.25266840908E+04  0.00000000000E+00 0. -1.
         -1   -1    0    0    0  501 -0.00000000000E+00 -0.00000000000E+00 -0.72268333933E+03  0.72268333933E+03  0.00000000000E+00 0.  1.
         23    2    1    2    0    0  0.44233083756E+02 -0.89151496224E+03 -0.31470403013E+03  0.95030991776E+03  0.85409716145E+02 0.  0.
         13    1    3    3    0    0  0.11614058548E+02 -0.40893552813E+03 -0.10016468080E+03  0.42118418275E+03  0.00000000000E+00 0. -1.
        -13    1    3    3    0    0  0.32619025208E+02 -0.48257943411E+03 -0.21453934933E+03  0.52912573501E+03  0.00000000000E+00 0.  1.
         22    1    1    2    0    0 -0.44233083756E+02  0.89151496224E+03  0.21187047816E+04  0.22990575123E+04  0.00000000000E+00 0. -1.
<mgrwt>
<rscale>  0 0.27025858E+04</rscale>
<asrwt>0</asrwt>
<pdfrwt beam="1">  1        1 0.38872063E+00 0.27025858E+04</pdfrwt>
<pdfrwt beam="2">  1       -1 0.11118205E+00 0.27025858E+04</pdfrwt>
<totfact> 0.84279954E-01</totfact>
</mgrwt>
</event>
<event>
 6    1  0.1072514E-005  0.3660928E+04  0.7818608E-02  0.8076676E-01
         -2   -1    0    0    0  501 -0.00000000000E+00  0.00000000000E+00  0.81460340062E+03  0.81460340062E+03  0.00000000000E+00 0.  1.
          2   -1    0    0  501    0  0.00000000000E+00 -0.00000000000E+00 -0.41131655852E+04  0.41131655852E+04  0.00000000000E+00 0. -1.
         23    2    1    2    0    0  0.69617516954E+03 -0.16372779090E+04 -0.10772483004E+04  0.20817938998E+04  0.89794891763E+02 0.  0.
         13    1    3    3    0    0  0.28770960015E+03 -0.79112506473E+03 -0.51104510345E+03  0.98479580616E+03  0.00000000000E+00 0. -1.
        -13    1    3    3    0    0  0.40846556939E+03 -0.84615284428E+03 -0.56620319694E+03  0.10969980937E+04  0.00000000000E+00 0.  1.
         22    1    1    2    0    0 -0.69617516954E+03  0.16372779090E+04 -0.22213138842E+04  0.28459750860E+04  0.00000000000E+00 0. -1.
<mgrwt>
<rscale>  0 0.36609281E+04</rscale>
<asrwt>0</asrwt>
<pdfrwt beam="1">  1        2 0.63279472E+00 0.36609281E+04</pdfrwt>
<pdfrwt beam="2">  1       -2 0.12532360E+00 0.36609281E+04</pdfrwt>
<totfact> 0.10620810E-01</totfact>
</mgrwt>
</event>
<event>
 6    1  0.1072514E-005  0.2171609E+04  0.7818608E-02  0.8530339E-01
         -2   -1    0    0    0  501 -0.00000000000E+00  0.00000000000E+00  0.49840925895E+03  0.49840925895E+03  0.00000000000E+00 0.  1.
          2   -1    0    0  501    0  0.00000000000E+00 -0.00000000000E+00 -0.23654681609E+04  0.23654681609E+04  0.00000000000E+00 0. -1.
         23    2    1    2    0    0  0.19451508325E+03 -0.47207988679E+03  0.32551877597E+03  0.61263500492E+03  0.93078669002E+02 0.  0.
         13    1    3    3    0    0  0.44777812560E+02 -0.17636971895E+03  0.73508960757E+02  0.19625212756E+03  0.00000000000E+00 0.  1.
        -13    1    3    3    0    0  0.14973727069E+03 -0.29571016784E+03  0.25200981521E+03  0.41638287736E+03  0.00000000000E+00 0. -1.
         22    1    1    2    0    0 -0.19451508325E+03  0.47207988679E+03 -0.21925776779E+04  0.22512424149E+04  0.00000000000E+00 0. -1.
<mgrwt>
<rscale>  0 0.21716088E+04</rscale>
<asrwt>0</asrwt>
<pdfrwt beam="1">  1        2 0.36391819E+00 0.21716088E+04</pdfrwt>
<pdfrwt beam="2">  1       -2 0.76678346E-01 0.21716088E+04</pdfrwt>
<totfact> 0.57943106E+00</totfact>
</mgrwt>
</event>
<event>
 6    1  0.1072514E-005  0.2861850E+04  0.7818608E-02  0.8284320E-01
          2   -1    0    0  501    0  0.00000000000E+00  0.00000000000E+00  0.28281580789E+04  0.28281580789E+04  0.00000000000E+00 0. -1.
         -2   -1    0    0    0  501 -0.00000000000E+00 -0.00000000000E+00 -0.72398582867E+03  0.72398582867E+03  0.00000000000E+00 0.  1.
         23    2    1    2    0    0 -0.55652536645E+03  0.41814689021E+03 -0.49657779720E+03  0.85984598302E+03  0.90433956839E+02 0.  0.
         11    1    3    3    0    0 -0.50182775213E+03  0.33984358451E+03 -0.43835519553E+03  0.74798397856E+03  0.00000000000E+00 0.  1.
        -11    1    3    3    0    0 -0.54697614324E+02  0.78303305701E+02 -0.58222601672E+02  0.11186200446E+03  0.00000000000E+00 0. -1.
         22    1    1    2    0    0  0.55652536645E+03 -0.41814689021E+03  0.26007500474E+04  0.26922979245E+04  0.00000000000E+00 0. -1.
<mgrwt>
<rscale>  0 0.28618500E+04</rscale>
<asrwt>0</asrwt>
<pdfrwt beam="1">  1        2 0.43510124E+00 0.28618500E+04</pdfrwt>
<pdfrwt beam="2">  1       -2 0.11138244E+00 0.28618500E+04</pdfrwt>
<totfact> 0.12263227E+00</totfact>
</mgrwt>
</event>
<event>
 6    1  0.1072514E-005  0.2701578E+04  0.7818608E-02  0.8334493E-01
         -2   -1    0    0    0  501 -0.00000000000E+00  0.00000000000E+00  0.15233798581E+04  0.15233798581E+04  0.00000000000E+00 0. -1.
          2   -1    0    0  501    0  0.00000000000E+00 -0.00000000000E+00 -0.11977515448E+04  0.11977515448E+04  0.00000000000E+00 0.  1.
         23    2    1    2    0    0  0.56977022600E+03 -0.82930751708E+03  0.10684571842E+04  0.14704580642E+04  0.90868563392E+02 0.  0.
         13    1    3    3    0    0  0.94520226915E+02 -0.12429078484E+03  0.21538124832E+03  0.26602886050E+03  0.00000000000E+00 0. -1.
        -13    1    3    3    0    0  0.47524999908E+03 -0.70501673225E+03  0.85307593592E+03  0.12044292037E+04  0.00000000000E+00 0.  1.
         22    1    1    2    0    0 -0.56977022600E+03  0.82930751708E+03 -0.74282887098E+03  0.12506733386E+04  0.00000000000E+00 0.  1.
<mgrwt>
<rscale>  0 0.27015777E+04</rscale>
<asrwt>0</asrwt>
<pdfrwt beam="1">  1        2 0.18426947E+00 0.27015777E+04</pdfrwt>
<pdfrwt beam="2">  1       -2 0.23436613E+00 0.27015777E+04</pdfrwt>
<totfact> 0.13381554E+00</totfact>
</mgrwt>
</event>
<event>
 6    1  0.1072514E-005  0.3185258E+04  0.7818608E-02  0.8192721E-01
          1   -1    0    0  501    0  0.00000000000E+00  0.00000000000E+00  0.29230402786E+04  0.29230402786E+04  0.00000000000E+00 0. -1.
         -1   -1    0    0    0  501 -0.00000000000E+00 -0.00000000000E+00 -0.86774953617E+03  0.86774953617E+03  0.00000000000E+00 0.  1.
         23    2    1    2    0    0  0.56113839240E+03  0.29526780839E+03 -0.70846263961E+03  0.95523129291E+03  0.92131086670E+02 0.  0.
         13    1    3    3    0    0  0.11336114273E+03  0.10147404782E+03 -0.18755695536E+03  0.24150640274E+03  0.00000000000E+00 0.  1.
        -13    1    3    3    0    0  0.44777724967E+03  0.19379376057E+03 -0.52090568425E+03  0.71372489017E+03  0.00000000000E+00 0. -1.
         22    1    1    2    0    0 -0.56113839240E+03 -0.29526780839E+03  0.27637533820E+04  0.28355585218E+04  0.00000000000E+00 0. -1.
<mgrwt>
<rscale>  0 0.31852578E+04</rscale>
<asrwt>0</asrwt>
<pdfrwt beam="1">  1        1 0.44969850E+00 0.31852578E+04</pdfrwt>
<pdfrwt beam="2">  1       -1 0.13349993E+00 0.31852578E+04</pdfrwt>
<totfact> 0.26978294E-01</totfact>
</mgrwt>
</event>
<event>
 6    1  0.1072514E-005  0.4733908E+04  0.7818608E-02  0.7870919E-01
         -1   -1    0    0    0  501 -0.00000000000E+00  0.00000000000E+00  0.22588713100E+04  0.22588713100E+04  0.00000000000E+00 0.  1.
          1   -1    0    0  501    0  0.00000000000E+00 -0.00000000000E+00 -0.24802082265E+04  0.24802082265E+04  0.00000000000E+00 0. -1.
         23    2    1    2    0    0  0.21374804030E+04 -0.21366011497E+03  0.88237114376E+03  0.23239926643E+04  0.88825393192E+02 0.  0.
         13    1    3    3    0    0  0.13045810999E+04 -0.98756999063E+02  0.50488398760E+03  0.14023525349E+04  0.00000000000E+00 0. -1.
        -13    1    3    3    0    0  0.83289930308E+03 -0.11490311591E+03  0.37748715615E+03  0.92164012943E+03  0.00000000000E+00 0.  1.
         22    1    1    2    0    0 -0.21374804030E+04  0.21366011497E+03 -0.11037080603E+04  0.24150868722E+04  0.00000000000E+00 0. -1.
<mgrwt>
<rscale>  0 0.47339080E+04</rscale>
<asrwt>0</asrwt>
<pdfrwt beam="1">  1        1 0.38157049E+00 0.47339080E+04</pdfrwt>
<pdfrwt beam="2">  1       -1 0.34751866E+00 0.47339080E+04</pdfrwt>
<totfact> 0.16638543E-02</totfact>
</mgrwt>
</event>
<event>
 6    1  0.1072514E-005  0.3138394E+04  0.7818608E-02  0.8205279E-01
          2   -1    0    0  501    0  0.00000000000E+00  0.00000000000E+00  0.20955859323E+04  0.20955859323E+04  0.00000000000E+00 0. -1.
         -2   -1    0    0    0  501 -0.00000000000E+00 -0.00000000000E+00 -0.11750316990E+04  0.11750316990E+04  0.00000000000E+00 0.  1.
         23    2    1    2    0    0  0.13427782784E+04  0.36454662467E+03 -0.29246314178E+03  0.14247143569E+04  0.91260960804E+02 0.  0.
         11    1    3    3    0    0  0.57584528312E+03  0.11158501479E+03 -0.10994907027E+03  0.59677282417E+03  0.00000000000E+00 0.  1.
        -11    1    3    3    0    0  0.76693299524E+03  0.25296160988E+03 -0.18251407151E+03  0.82794153270E+03  0.00000000000E+00 0. -1.
         22    1    1    2    0    0 -0.13427782784E+04 -0.36454662467E+03  0.12130173750E+04  0.18459032744E+04  0.00000000000E+00 0. -1.
<mgrwt>
<rscale>  0 0.31383944E+04</rscale>
<asrwt>0</asrwt>
<pdfrwt beam="1">  1        2 0.32239784E+00 0.31383944E+04</pdfrwt>
<pdfrwt beam="2">  1       -2 0.18077411E+00 0.31383944E+04</pdfrwt>
<totfact> 0.89582472E-01</totfact>
</mgrwt>
</event>
<event>
 6    1  0.1072514E-005  0.1610556E+04  0.7818608E-02  0.8814089E-01
          2   -1    0    0  501    0  0.00000000000E+00  0.00000000000E+00  0.31947759815E+04  0.31947759815E+04  0.00000000000E+00 0. -1.
         -2   -1    0    0    0  501 -0.00000000000E+00 -0.00000000000E+00 -0.20297897997E+03  0.20297897997E+03  0.00000000000E+00 0.  1.
         23    2    1    2    0    0 -0.69795220536E+03 -0.19826060924E+03  0.22247901395E+04  0.23419405476E+04  0.92465201405E+02 0.  0.
         13    1    3    3    0    0 -0.32347808851E+03 -0.55888867260E+02  0.10997066623E+04  0.11476569096E+04  0.00000000000E+00 0.  1.
        -13    1    3    3    0    0 -0.37447411685E+03 -0.14237174198E+03  0.11250834773E+04  0.11942836380E+04  0.00000000000E+00 0. -1.
         22    1    1    2    0    0  0.69795220536E+03  0.19826060924E+03  0.76700686203E+03  0.10558144139E+04  0.00000000000E+00 0. -1.
<mgrwt>
<rscale>  0 0.16105556E+04</rscale>
<asrwt>0</asrwt>
<pdfrwt beam="1">  1        2 0.49150396E+00 0.16105556E+04</pdfrwt>
<pdfrwt beam="2">  1       -2 0.31227538E-01 0.16105556E+04</pdfrwt>
<totfact> 0.12005806E+01</totfact>
</mgrwt>
</event>
<event>
 6    1  0.1072514E-005  0.3332524E+04  0.7818608E-02  0.8154669E-01
         -2   -1    0    0    0  501 -0.00000000000E+00  0.00000000000E+00  0.87816122027E+03  0.87816122027E+03  0.00000000000E+00 0.  1.
          2   -1    0    0  501    0  0.00000000000E+00 -0.00000000000E+00 -0.31616395772E+04  0.31616395772E+04  0.00000000000E+00 0. -1.
         23    2    1    2    0    0  0.11417287469E+04  0.89046145189E+03 -0.14605472906E+03  0.14581257804E+04  0.91283506705E+02 0.  0.
         11    1    3    3    0    0  0.48986272297E+03  0.36351098526E+03 -0.18709614224E+02  0.61029154789E+03  0.00000000000E+00 0.  1.
        -11    1    3    3    0    0  0.65186602398E+03  0.52695046663E+03 -0.12734511483E+03  0.84783423248E+03  0.00000000000E+00 0. -1.
         22    1    1    2    0    0 -0.11417287469E+04 -0.89046145189E+03 -0.21374236279E+04  0.25816750171E+04  0.00000000000E+00 0. -1.
<mgrwt>
<rscale>  0 0.33325241E+04</rscale>
<asrwt>0</asrwt>
<pdfrwt beam="1">  1        2 0.48640608E+00 0.33325241E+04</pdfrwt>
<pdfrwt beam="2">  1       -2 0.13510173E+00 0.33325241E+04</pdfrwt>
<totfact> 0.45006059E-01</totfact>
</mgrwt>
</event>
<event>
 6    1  0.1072514E-005  0.2637494E+04  0.7818608E-02  0.8355576E-01
         -1   -1    0    0    0  501 -0.00000000000E+00  0.00000000000E+00  0.79509011014E+03  0.79509011014E+03  0.00000000000E+00 0.  1.
          1   -1    0    0  501    0  0.00000000000E+00 -0.00000000000E+00 -0.21872906993E+04  0.21872906993E+04  0.00000000000E+00 0. -1.
         23    2    1    2    0    0 -0.71248337192E+03  0.67019780010E+03  0.30035142750E+03  0.10275074182E+04  0.93610191687E+02 0.  0.
         13    1    3    3    0    0 -0.21379777984E+03  0.24056181062E+03  0.13369089998E+03  0.34850069173E+03  0.00000000000E+00 0. -1.
        -13    1    3    3    0    0 -0.49868559208E+03  0.42963598948E+03  0.16666052752E+03  0.67900672650E+03  0.00000000000E+00 0.  1.
         22    1    1    2    0    0  0.71248337192E+03 -0.67019780010E+03 -0.16925520167E+04  0.19548733912E+04  0.00000000000E+00 0. -1.
<mgrwt>
<rscale>  0 0.26374937E+04</rscale>
<asrwt>0</asrwt>
<pdfrwt beam="1">  1        1 0.33650626E+00 0.26374937E+04</pdfrwt>
<pdfrwt beam="2">  1       -1 0.12232156E+00 0.26374937E+04</pdfrwt>
<totfact> 0.11518811E+00</totfact>
</mgrwt>
</event>
<event>
 6    1  0.1072514E-005  0.3350139E+04  0.7818608E-02  0.8150253E-01
         -2   -1    0    0    0  501 -0.00000000000E+00  0.00000000000E+00  0.13017961748E+04  0.13017961748E+04  0.00000000000E+00 0. -1.
          2   -1    0    0  501    0  0.00000000000E+00 -0.00000000000E+00 -0.21553740199E+04  0.21553740199E+04  0.00000000000E+00 0.  1.
         23    2    1    2    0    0 -0.97857702088E+03  0.13273462298E+04 -0.72280696954E+03  0.18029144643E+04  0.92680369874E+02 0.  0.
         11    1    3    3    0    0 -0.59637526214E+03  0.87487188325E+03 -0.48645276822E+03  0.11652040856E+04  0.00000000000E+00 0. -1.
        -11    1    3    3    0    0 -0.38220175875E+03  0.45247434652E+03 -0.23635420132E+03  0.63771037872E+03  0.00000000000E+00 0.  1.
         22    1    1    2    0    0  0.97857702088E+03 -0.13273462298E+04 -0.13077087562E+03  0.16542557304E+04  0.00000000000E+00 0. -1.
<mgrwt>
<rscale>  0 0.33501389E+04</rscale>
<asrwt>0</asrwt>
<pdfrwt beam="1">  1        2 0.33159600E+00 0.33501389E+04</pdfrwt>
<pdfrwt beam="2">  1       -2 0.20027634E+00 0.33501389E+04</pdfrwt>
<totfact> 0.60273451E-01</totfact>
</mgrwt>
</event>
<event>
 6    1  0.1072514E-005  0.1960355E+04  0.7818608E-02  0.8625384E-01
         -2   -1    0    0    0  501 -0.00000000000E+00  0.00000000000E+00  0.15440228029E+04  0.15440228029E+04  0.00000000000E+00 0.  1.
          2   -1    0    0  501    0  0.00000000000E+00 -0.00000000000E+00 -0.62223686764E+03  0.62223686764E+03  0.00000000000E+00 0. -1.
         23    2    1    2    0    0  0.95648193826E+03 -0.20389421543E+03  0.48203286920E+03  0.10939661900E+04  0.89307270858E+02 0.  0.
         11    1    3    3    0    0  0.58298281051E+03 -0.12726954766E+03  0.24524989962E+03  0.64514650148E+03  0.00000000000E+00 0. -1.
        -11    1    3    3    0    0  0.37349912775E+03 -0.76624667766E+02  0.23678296958E+03  0.44881968855E+03  0.00000000000E+00 0.  1.
         22    1    1    2    0    0 -0.95648193826E+03  0.20389421543E+03  0.43975306611E+03  0.10722934806E+04  0.00000000000E+00 0.  1.
<mgrwt>
<rscale>  0 0.19603550E+04</rscale>
<asrwt>0</asrwt>
<pdfrwt beam="1">  1        2 0.95728749E-01 0.19603550E+04</pdfrwt>
<pdfrwt beam="2">  1       -2 0.23754197E+00 0.19603550E+04</pdfrwt>
<totfact> 0.33914663E+00</totfact>
</mgrwt>
</event>
<event>
 6    1  0.1072514E-005  0.2272633E+04  0.7818608E-02  0.8488790E-01
         -2   -1    0    0    0  501 -0.00000000000E+00  0.00000000000E+00  0.68281174725E+03  0.68281174725E+03  0.00000000000E+00 0. -1.
          2   -1    0    0  501    0  0.00000000000E+00 -0.00000000000E+00 -0.18910267685E+04  0.18910267685E+04  0.00000000000E+00 0.  1.
         23    2    1    2    0    0  0.31219133616E+03 -0.88567849118E+03  0.11562776236E+03  0.95073977081E+03  0.92986624031E+02 0.  0.
         13    1    3    3    0    0  0.52789501093E+02 -0.24702530374E+03  0.54150795611E+01  0.25266094910E+03  0.00000000000E+00 0. -1.
        -13    1    3    3    0    0  0.25940183506E+03 -0.63865318745E+03  0.11021268280E+03  0.69807882171E+03  0.00000000000E+00 0.  1.
         22    1    1    2    0    0 -0.31219133616E+03  0.88567849118E+03 -0.13238427836E+04  0.16230987449E+04  0.00000000000E+00 0.  1.
<mgrwt>
<rscale>  0 0.22726331E+04</rscale>
<asrwt>0</asrwt>
<pdfrwt beam="1">  1        2 0.29092719E+00 0.22726331E+04</pdfrwt>
<pdfrwt beam="2">  1       -2 0.10504796E+00 0.22726331E+04</pdfrwt>
<totfact> 0.51246906E+00</totfact>
</mgrwt>
</event>
<event>
 6    1  0.1072514E-005  0.1521426E+04  0.7818608E-02  0.8870329E-01
         -1   -1    0    0    0  501 -0.00000000000E+00  0.00000000000E+00  0.43149892697E+03  0.43149892697E+03  0.00000000000E+00 0.  1.
          1   -1    0    0  501    0  0.00000000000E+00 -0.00000000000E+00 -0.13411016662E+04  0.13411016662E+04  0.00000000000E+00 0. -1.
         23    2    1    2    0    0  0.19631218582E+03  0.50599504603E+03 -0.10728734527E+04  0.12058318689E+04  0.91671095415E+02 0.  0.
         13    1    3    3    0    0  0.13870659267E+03  0.23343516818E+03 -0.54992129818E+03  0.61330655531E+03  0.00000000000E+00 0. -1.
        -13    1    3    3    0    0  0.57605593150E+02  0.27255987786E+03 -0.52295215453E+03  0.59252531364E+03  0.00000000000E+00 0.  1.
         22    1    1    2    0    0 -0.19631218582E+03 -0.50599504603E+03  0.16327071346E+03  0.56676872425E+03  0.00000000000E+00 0.  1.
<mgrwt>
<rscale>  0 0.15214256E+04</rscale>
<asrwt>0</asrwt>
<pdfrwt beam="1">  1        1 0.20632333E+00 0.15214256E+04</pdfrwt>
<pdfrwt beam="2">  1       -1 0.66384451E-01 0.15214256E+04</pdfrwt>
<totfact> 0.18774834E+01</totfact>
</mgrwt>
</event>
<event>
 6    1  0.1072514E-005  0.1690190E+04  0.7818608E-02  0.8766979E-01
          2   -1    0    0  501    0  0.00000000000E+00  0.00000000000E+00  0.38905267103E+04  0.38905267103E+04  0.00000000000E+00 0. -1.
         -2   -1    0    0    0  501 -0.00000000000E+00 -0.00000000000E+00 -0.18357048054E+03  0.18357048054E+03  0.00000000000E+00 0.  1.
         23    2    1    2    0    0 -0.66161996949E+03  0.37706718717E+03  0.27279376177E+04  0.28337754219E+04  0.93374772856E+02 0.  0.
         13    1    3    3    0    0 -0.61082665263E+03  0.31809048321E+03  0.24121607536E+04  0.25085474395E+04  0.00000000000E+00 0.  1.
        -13    1    3    3    0    0 -0.50793316860E+02  0.58976703957E+02  0.31577686408E+03  0.32522798240E+03  0.00000000000E+00 0. -1.
         22    1    1    2    0    0  0.66161996949E+03 -0.37706718717E+03  0.97901861204E+03  0.12403217689E+04  0.00000000000E+00 0.  1.
<mgrwt>
<rscale>  0 0.16901904E+04</rscale>
<asrwt>0</asrwt>
<pdfrwt beam="1">  1        2 0.59854251E+00 0.16901904E+04</pdfrwt>
<pdfrwt beam="2">  1       -2 0.28241615E-01 0.16901904E+04</pdfrwt>
<totfact> 0.46410868E+00</totfact>
</mgrwt>
</event>
<event>
 6    1  0.1072514E-005  0.1358870E+04  0.7818608E-02  0.8984141E-01
         -2   -1    0    0    0  501 -0.00000000000E+00  0.00000000000E+00  0.32128477311E+03  0.32128477311E+03  0.00000000000E+00 0.  1.
          2   -1    0    0  501    0  0.00000000000E+00 -0.00000000000E+00 -0.14368303534E+04  0.14368303534E+04  0.00000000000E+00 0. -1.
         23    2    1    2    0    0  0.46728008869E+03 -0.47484887283E+03 -0.71016782005E+03  0.97826689652E+03  0.93998164272E+02 0.  0.
         11    1    3    3    0    0  0.53229209240E+02 -0.10456806136E+03 -0.12422444513E+03  0.17087873168E+03  0.00000000000E+00 0. -1.
        -11    1    3    3    0    0  0.41405087945E+03 -0.37028081147E+03 -0.58594337492E+03  0.80738816484E+03  0.00000000000E+00 0.  1.
         22    1    1    2    0    0 -0.46728008869E+03  0.47484887283E+03 -0.40537776023E+03  0.77984822998E+03  0.00000000000E+00 0.  1.
<mgrwt>
<rscale>  0 0.13588697E+04</rscale>
<asrwt>0</asrwt>
<pdfrwt beam="1">  1        2 0.22105082E+00 0.13588697E+04</pdfrwt>
<pdfrwt beam="2">  1       -2 0.49428427E-01 0.13588697E+04</pdfrwt>
<totfact> 0.52122043E+01</totfact>
</mgrwt>
</event>
<event>
 6    1  0.1072514E-005  0.1570583E+04  0.7818608E-02  0.8838826E-01
         -2   -1    0    0    0  501 -0.00000000000E+00  0.00000000000E+00  0.69887977609E+03  0.69887977609E+03  0.00000000000E+00 0.  1.
          2   -1    0    0  501    0  0.00000000000E+00 -0.00000000000E+00 -0.88238786711E+03  0.88238786711E+03  0.00000000000E+00 0. -1.
         23    2    1    2    0    0 -0.26507460032E+03 -0.67813804473E+03 -0.38089956997E+03  0.82688103979E+03  0.92260609741E+02 0.  0.
         13    1    3    3    0    0 -0.82221108234E+02 -0.27852113113E+03 -0.10947142363E+03  0.31035193525E+03  0.00000000000E+00 0.  1.
        -13    1    3    3    0    0 -0.18285349209E+03 -0.39961691361E+03 -0.27142814633E+03  0.51652910453E+03  0.00000000000E+00 0. -1.
         22    1    1    2    0    0  0.26507460032E+03  0.67813804473E+03  0.19739147894E+03  0.75438660341E+03  0.00000000000E+00 0.  1.
<mgrwt>
<rscale>  0 0.15705834E+04</rscale>
<asrwt>0</asrwt>
<pdfrwt beam="1">  1        2 0.13575198E+00 0.15705834E+04</pdfrwt>
<pdfrwt beam="2">  1       -2 0.10751997E+00 0.15705834E+04</pdfrwt>
<totfact> 0.20115748E+01</totfact>
</mgrwt>
</event>
<event>
 6    1  0.1072514E-005  0.1734681E+04  0.7818608E-02  0.8741828E-01
          2   -1    0    0  501    0  0.00000000000E+00  0.00000000000E+00  0.90954785166E+03  0.90954785166E+03  0.00000000000E+00 0. -1.
         -2   -1    0    0    0  501 -0.00000000000E+00 -0.00000000000E+00 -0.82709196440E+03  0.82709196440E+03  0.00000000000E+00 0.  1.
         23    2    1    2    0    0  0.63401160451E+03 -0.55979677717E+01 -0.54758088036E+03  0.84280069159E+03  0.92011593306E+02 0.  0.
         11    1    3    3    0    0  0.46381519857E+03 -0.12243753143E+01 -0.34429032860E+03  0.57763471839E+03  0.00000000000E+00 0.  1.
        -11    1    3    3    0    0  0.17019640594E+03 -0.43735924573E+01 -0.20329055177E+03  0.26516597320E+03  0.00000000000E+00 0. -1.
         22    1    1    2    0    0 -0.63401160451E+03  0.55979677717E+01  0.63003676762E+03  0.89383912448E+03  0.00000000000E+00 0. -1.
<mgrwt>
<rscale>  0 0.17346812E+04</rscale>
<asrwt>0</asrwt>
<pdfrwt beam="1">  1        2 0.13993044E+00 0.17346812E+04</pdfrwt>
<pdfrwt beam="2">  1       -2 0.12724492E+00 0.17346812E+04</pdfrwt>
<totfact> 0.12568212E+01</totfact>
</mgrwt>
</event>
<event>
 6    1  0.1072514E-005  0.1588149E+04  0.7818608E-02  0.8827862E-01
          2   -1    0    0  501    0  0.00000000000E+00  0.00000000000E+00  0.12063811715E+04  0.12063811715E+04  0.00000000000E+00 0. -1.
         -2   -1    0    0    0  501 -0.00000000000E+00 -0.00000000000E+00 -0.52268239104E+03  0.52268239104E+03  0.00000000000E+00 0.  1.
         23    2    1    2    0    0  0.25169911497E+03  0.14900113581E+03 -0.45793178938E+03  0.55055851761E+03  0.88653114096E+02 0.  0.
         11    1    3    3    0    0  0.12390289859E+03  0.95505048665E+02 -0.16997699137E+03  0.23100935088E+03  0.00000000000E+00 0. -1.
        -11    1    3    3    0    0  0.12779621638E+03  0.53496087149E+02 -0.28795479800E+03  0.31954916673E+03  0.00000000000E+00 0.  1.
         22    1    1    2    0    0 -0.25169911497E+03 -0.14900113581E+03  0.11416305698E+04  0.11785050449E+04  0.00000000000E+00 0. -1.
<mgrwt>
<rscale>  0 0.15881489E+04</rscale>
<asrwt>0</asrwt>
<pdfrwt beam="1">  1        2 0.18559710E+00 0.15881489E+04</pdfrwt>
<pdfrwt beam="2">  1       -2 0.80412676E-01 0.15881489E+04</pdfrwt>
<totfact> 0.24625666E+01</totfact>
</mgrwt>
</event>
<event>
 6    1  0.1072514E-005  0.1045874E+04  0.7818608E-02  0.9259614E-01
          2   -1    0    0  501    0  0.00000000000E+00  0.00000000000E+00  0.30846721031E+03  0.30846721031E+03  0.00000000000E+00 0.  1.
         -2   -1    0    0    0  501 -0.00000000000E+00 -0.00000000000E+00 -0.88652269724E+03  0.88652269724E+03  0.00000000000E+00 0. -1.
         23    2    1    2    0    0  0.39799351795E+03 -0.15052409061E+03 -0.63022662529E+03  0.76629634583E+03  0.94700307454E+02 0.  0.
         13    1    3    3    0    0  0.25704637728E+03 -0.11654630330E+03 -0.34005676324E+03  0.44192135399E+03  0.00000000000E+00 0. -1.
        -13    1    3    3    0    0  0.14094714066E+03 -0.33977787314E+02 -0.29016986205E+03  0.32437499184E+03  0.00000000000E+00 0.  1.
         22    1    1    2    0    0 -0.39799351795E+03  0.15052409061E+03  0.52171138367E+02  0.42869356172E+03  0.00000000000E+00 0.  1.
<mgrwt>
<rscale>  0 0.10458741E+04</rscale>
<asrwt>0</asrwt>
<pdfrwt beam="1">  1        2 0.47456495E-01 0.10458741E+04</pdfrwt>
<pdfrwt beam="2">  1       -2 0.13638810E+00 0.10458741E+04</pdfrwt>
<totfact> 0.40702270E+01</totfact>
</mgrwt>
</event>
<event>
 6    1  0.1072514E-005  0.1115822E+04  0.7818608E-02  0.9189906E-01
          1   -1    0    0  501    0  0.00000000000E+00  0.00000000000E+00  0.25718026837E+04  0.25718026837E+04  0.00000000000E+00 0. -1.
         -1   -1    0    0    0  501 -0.00000000000E+00 -0.00000000000E+00 -0.12102982316E+03  0.12102982316E+03  0.00000000000E+00 0.  1.
         23    2    1    2    0    0 -0.10239317488E+03  0.38839208163E+03  0.31252575627E+03  0.51718698191E+03  0.92072007630E+02 0.  0.
         11    1    3    3    0    0 -0.29292895402E+02  0.91005794984E+02  0.29139926098E+02  0.99946304258E+02  0.00000000000E+00 0. -1.
        -11    1    3    3    0    0 -0.73100279474E+02  0.29738628664E+03  0.28338583017E+03  0.41724067765E+03  0.00000000000E+00 0.  1.
         22    1    1    2    0    0  0.10239317488E+03 -0.38839208163E+03  0.21382471042E+04  0.21756455249E+04  0.00000000000E+00 0. -1.
<mgrwt>
<rscale>  0 0.11158223E+04</rscale>
<asrwt>0</asrwt>
<pdfrwt beam="1">  1        1 0.39566191E+00 0.11158223E+04</pdfrwt>
<pdfrwt beam="2">  1       -1 0.18619975E-01 0.11158223E+04</pdfrwt>
<totfact> 0.27966446E+01</totfact>
</mgrwt>
</event>
<event>
 6    1  0.1072514E-005  0.3089819E+04  0.7818608E-02  0.8218537E-01
          1   -1    0    0  501    0  0.00000000000E+00  0.00000000000E+00  0.26457286645E+04  0.26457286645E+04  0.00000000000E+00 0. -1.
         -1   -1    0    0    0  501 -0.00000000000E+00 -0.00000000000E+00 -0.90211288471E+03  0.90211288471E+03  0.00000000000E+00 0.  1.
         23    2    1    2    0    0 -0.15656059196E+03 -0.54087931403E+03  0.25226412700E+04  0.25866223413E+04  0.99169087678E+02 0.  0.
         13    1    3    3    0    0 -0.45223912748E+02 -0.33097691536E+03  0.14971422569E+04  0.15339575803E+04  0.00000000000E+00 0. -1.
        -13    1    3    3    0    0 -0.11133667921E+03 -0.20990239867E+03  0.10254990132E+04  0.10526647610E+04  0.00000000000E+00 0.  1.
         22    1    1    2    0    0  0.15656059196E+03  0.54087931403E+03 -0.77902549021E+03  0.96121920794E+03  0.00000000000E+00 0.  1.
<mgrwt>
<rscale>  0 0.30898194E+04</rscale>
<asrwt>0</asrwt>
<pdfrwt beam="1">  1        1 0.40703517E+00 0.30898194E+04</pdfrwt>
<pdfrwt beam="2">  1       -1 0.13878660E+00 0.30898194E+04</pdfrwt>
<totfact> 0.38792912E-01</totfact>
</mgrwt>
</event>
<event>
 6    1  0.1072514E-005  0.2945766E+04  0.7818608E-02  0.8259389E-01
          1   -1    0    0  501    0  0.00000000000E+00  0.00000000000E+00  0.11168950024E+04  0.11168950024E+04  0.00000000000E+00 0. -1.
         -1   -1    0    0    0  501 -0.00000000000E+00 -0.00000000000E+00 -0.19423353160E+04  0.19423353160E+04  0.00000000000E+00 0.  1.
         23    2    1    2    0    0  0.82680937835E+03 -0.57816430533E+03 -0.15246086034E+04  0.18317434510E+04  0.11386379913E+03 0.  0.
         11    1    3    3    0    0  0.18055930714E+03 -0.11862472416E+03 -0.24806026835E+03  0.32894890988E+03  0.00000000000E+00 0.  1.
        -11    1    3    3    0    0  0.64625007121E+03 -0.45953958117E+03 -0.12765483350E+04  0.15027945411E+04  0.00000000000E+00 0. -1.
         22    1    1    2    0    0 -0.82680937835E+03  0.57816430533E+03  0.69916828984E+03  0.12274868674E+04  0.00000000000E+00 0. -1.
<mgrwt>
<rscale>  0 0.29457662E+04</rscale>
<asrwt>0</asrwt>
<pdfrwt beam="1">  1        1 0.17183000E+00 0.29457662E+04</pdfrwt>
<pdfrwt beam="2">  1       -1 0.29882081E+00 0.29457662E+04</pdfrwt>
<totfact> 0.35382135E-01</totfact>
</mgrwt>
</event>
<event>
 6    1  0.1072514E-005  0.3973239E+04  0.7818608E-02  0.8009967E-01
          2   -1    0    0  501    0  0.00000000000E+00  0.00000000000E+00  0.31524088865E+04  0.31524088865E+04  0.00000000000E+00 0. -1.
         -2   -1    0    0    0  501 -0.00000000000E+00 -0.00000000000E+00 -0.12519498813E+04  0.12519498813E+04  0.00000000000E+00 0.  1.
         23    2    1    2    0    0 -0.48207014051E+03 -0.94250067896E+03 -0.91198199230E+03  0.13992758215E+04  0.74582304743E+02 0.  0.
         11    1    3    3    0    0 -0.22287081754E+03 -0.43722397380E+03 -0.47196281990E+03  0.68087084527E+03  0.00000000000E+00 0.  1.
        -11    1    3    3    0    0 -0.25919932297E+03 -0.50527670516E+03 -0.44001917240E+03  0.71840497624E+03  0.00000000000E+00 0. -1.
         22    1    1    2    0    0  0.48207014051E+03  0.94250067896E+03  0.28124409975E+04  0.30050829464E+04  0.00000000000E+00 0. -1.
<mgrwt>
<rscale>  0 0.39732394E+04</rscale>
<asrwt>0</asrwt>
<pdfrwt beam="1">  1        2 0.48498598E+00 0.39732394E+04</pdfrwt>
<pdfrwt beam="2">  1       -2 0.19260768E+00 0.39732394E+04</pdfrwt>
<totfact> 0.16375957E-01</totfact>
</mgrwt>
</event>
<event>
 6    1  0.1072514E-005  0.2725076E+04  0.7818608E-02  0.8326914E-01
          2   -1    0    0  501    0  0.00000000000E+00  0.00000000000E+00  0.23101446051E+04  0.23101446051E+04  0.00000000000E+00 0. -1.
         -2   -1    0    0    0  501 -0.00000000000E+00 -0.00000000000E+00 -0.80363329759E+03  0.80363329759E+03  0.00000000000E+00 0.  1.
         23    2    1    2    0    0 -0.11085914037E+04 -0.24648882698E+03 -0.10314529532E+03  0.11438220602E+04  0.89209368589E+02 0.  0.
         11    1    3    3    0    0 -0.76841879711E+03 -0.15243167559E+03 -0.33687483553E+02  0.78411587793E+03  0.00000000000E+00 0. -1.
        -11    1    3    3    0    0 -0.34017260656E+03 -0.94057151383E+02 -0.69457811765E+02  0.35970618232E+03  0.00000000000E+00 0.  1.
         22    1    1    2    0    0  0.11085914037E+04  0.24648882698E+03  0.16096566028E+04  0.19699558424E+04  0.00000000000E+00 0. -1.
<mgrwt>
<rscale>  0 0.27250755E+04</rscale>
<asrwt>0</asrwt>
<pdfrwt beam="1">  1        2 0.35540686E+00 0.27250755E+04</pdfrwt>
<pdfrwt beam="2">  1       -2 0.12363589E+00 0.27250755E+04</pdfrwt>
<totfact> 0.19302229E+00</totfact>
</mgrwt>
</event>
<event>
 6    1  0.1158933E-005  0.2748712E+04  0.7818608E-02  0.8319371E-01
          1   -1    0    0  501    0  0.00000000000E+00  0.00000000000E+00  0.20032908905E+04  0.20032908905E+04  0.00000000000E+00 0. -1.
         -1   -1    0    0    0  501 -0.00000000000E+00 -0.00000000000E+00 -0.94287541544E+03  0.94287541544E+03  0.00000000000E+00 0.  1.
         23    2    1    2    0    0 -0.16829959567E+03  0.11914653413E+04  0.12391127116E+04  0.17296766366E+04  0.92013812963E+02 0.  0.
         13    1    3    3    0    0 -0.15572159540E+03  0.81370253562E+03  0.87049253122E+03  0.12017147243E+04  0.00000000000E+00 0. -1.
        -13    1    3    3    0    0 -0.12578000273E+02  0.37776280564E+03  0.36862018038E+03  0.52796191226E+03  0.00000000000E+00 0.  1.
         22    1    1    2    0    0  0.16829959567E+03 -0.11914653413E+04 -0.17869723654E+03  0.12164896694E+04  0.00000000000E+00 0. -1.
<mgrwt>
<rscale>  0 0.27487115E+04</rscale>
<asrwt>0</asrwt>
<pdfrwt beam="1">  1        1 0.30819860E+00 0.27487115E+04</pdfrwt>
<pdfrwt beam="2">  1       -1 0.14505776E+00 0.27487115E+04</pdfrwt>
<totfact> 0.98380601E-01</totfact>
</mgrwt>
</event>
<event>
 6    1  0.1072514E-005  0.2967032E+04  0.7818608E-02  0.8253208E-01
          1   -1    0    0  501    0  0.00000000000E+00  0.00000000000E+00  0.14455291648E+04  0.14455291648E+04  0.00000000000E+00 0. -1.
         -1   -1    0    0    0  501 -0.00000000000E+00 -0.00000000000E+00 -0.15225015801E+04  0.15225015801E+04  0.00000000000E+00 0.  1.
         23    2    1    2    0    0 -0.13245216554E+04 -0.26780691269E+03  0.57025390988E+03  0.14697049879E+04  0.93621960104E+02 0.  0.
         13    1    3    3    0    0 -0.38400875852E+03 -0.92569040904E+02  0.21054746748E+03  0.44761812968E+03  0.00000000000E+00 0. -1.
        -13    1    3    3    0    0 -0.94051289692E+03 -0.17523787179E+03  0.35970644241E+03  0.10220868582E+04  0.00000000000E+00 0.  1.
         22    1    1    2    0    0  0.13245216554E+04  0.26780691269E+03 -0.64722632517E+03  0.14983257570E+04  0.00000000000E+00 0.  1.
<mgrwt>
<rscale>  0 0.29670325E+04</rscale>
<asrwt>0</asrwt>
<pdfrwt beam="1">  1        1 0.22238910E+00 0.29670325E+04</pdfrwt>
<pdfrwt beam="2">  1       -1 0.23423101E+00 0.29670325E+04</pdfrwt>
<totfact> 0.53915522E-01</totfact>
</mgrwt>
</event>
<event>
 6    1  0.1072514E-005  0.5411654E+04  0.7818608E-02  0.7767964E-01
         -1   -1    0    0    0  501 -0.00000000000E+00  0.00000000000E+00  0.49563271387E+04  0.49563271387E+04  0.00000000000E+00 0.  1.
          1   -1    0    0  501    0  0.00000000000E+00 -0.00000000000E+00 -0.14772025291E+04  0.14772025291E+04  0.00000000000E+00 0. -1.
         23    2    1    2    0    0  0.78746584986E+03 -0.17596005268E+04  0.39960533325E+04  0.44376559786E+04  0.89732206246E+02 0.  0.
         13    1    3    3    0    0  0.30184985786E+03 -0.59173987816E+03  0.14362990298E+04  0.15824741145E+04  0.00000000000E+00 0. -1.
        -13    1    3    3    0    0  0.48561599200E+03 -0.11678606487E+04  0.25597543027E+04  0.28551818641E+04  0.00000000000E+00 0.  1.
         22    1    1    2    0    0 -0.78746584986E+03  0.17596005268E+04 -0.51692872301E+03  0.19958736892E+04  0.00000000000E+00 0. -1.
<mgrwt>
<rscale>  0 0.54116537E+04</rscale>
<asrwt>0</asrwt>
<pdfrwt beam="1">  1        1 0.22726193E+00 0.54116537E+04</pdfrwt>
<pdfrwt beam="2">  1       -1 0.76251186E+00 0.54116537E+04</pdfrwt>
<totfact> 0.53280457E-04</totfact>
</mgrwt>
</event>
<event>
 6    1  0.1072514E-005  0.1637298E+04  0.7818608E-02  0.8797957E-01
         -2   -1    0    0    0  501 -0.00000000000E+00  0.00000000000E+00  0.50922263361E+03  0.50922263361E+03  0.00000000000E+00 0. -1.
          2   -1    0    0  501    0  0.00000000000E+00 -0.00000000000E+00 -0.13160960929E+04  0.13160960929E+04  0.00000000000E+00 0.  1.
         23    2    1    2    0    0  0.12084722610E+03  0.10537402642E+03 -0.12967626741E+04  0.13098585629E+04  0.91805689416E+02 0.  0.
         11    1    3    3    0    0  0.47712814252E+02  0.73444213121E+02 -0.95016237393E+03  0.95419028601E+03  0.00000000000E+00 0.  1.
        -11    1    3    3    0    0  0.73134411849E+02  0.31929813295E+02 -0.34660030012E+03  0.35566827694E+03  0.00000000000E+00 0. -1.
         22    1    1    2    0    0 -0.12084722610E+03 -0.10537402642E+03  0.48988921476E+03  0.51546016358E+03  0.00000000000E+00 0. -1.
<mgrwt>
<rscale>  0 0.16372977E+04</rscale>
<asrwt>0</asrwt>
<pdfrwt beam="1">  1        2 0.20247632E+00 0.16372977E+04</pdfrwt>
<pdfrwt beam="2">  1       -2 0.78341944E-01 0.16372977E+04</pdfrwt>
<totfact> 0.22414519E+01</totfact>
</mgrwt>
</event>
<event>
 6    1  0.1072514E-005  0.1899360E+04  0.7818608E-02  0.8655175E-01
          1   -1    0    0  501    0  0.00000000000E+00  0.00000000000E+00  0.15142131112E+04  0.15142131112E+04  0.00000000000E+00 0. -1.
         -1   -1    0    0    0  501 -0.00000000000E+00 -0.00000000000E+00 -0.59561740139E+03  0.59561740139E+03  0.00000000000E+00 0.  1.
         23    2    1    2    0    0  0.13010398978E+02  0.44582855442E+03  0.13889062090E+04  0.14616605225E+04  0.91970949010E+02 0.  0.
         13    1    3    3    0    0 -0.26332368786E+02  0.12367387946E+03  0.48662236366E+03  0.50278220625E+03  0.00000000000E+00 0.  1.
        -13    1    3    3    0    0  0.39342767764E+02  0.32215467496E+03  0.90228384530E+03  0.95887831630E+03  0.00000000000E+00 0. -1.
         22    1    1    2    0    0 -0.13010398978E+02 -0.44582855442E+03 -0.47031049914E+03  0.64816999006E+03  0.00000000000E+00 0.  1.
<mgrwt>
<rscale>  0 0.18993596E+04</rscale>
<asrwt>0</asrwt>
<pdfrwt beam="1">  1        1 0.23295586E+00 0.18993596E+04</pdfrwt>
<pdfrwt beam="2">  1       -1 0.91633447E-01 0.18993596E+04</pdfrwt>
<totfact> 0.69448726E+00</totfact>
</mgrwt>
</event>
<event>
 6    1  0.1072514E-005  0.2843079E+04  0.7818608E-02  0.8290017E-01
         -2   -1    0    0    0  501 -0.00000000000E+00  0.00000000000E+00  0.18385155725E+04  0.18385155725E+04  0.00000000000E+00 0.  1.
          2   -1    0    0  501    0  0.00000000000E+00 -0.00000000000E+00 -0.10991337740E+04  0.10991337740E+04  0.00000000000E+00 0. -1.
         23    2    1    2    0    0  0.43999583851E+03  0.89350531327E+03  0.14159935945E+04  0.17335930334E+04  0.91426818304E+02 0.  0.
         11    1    3    3    0    0  0.13195950412E+03  0.18899040905E+03  0.29906255021E+03  0.37758322841E+03  0.00000000000E+00 0.  1.
        -11    1    3    3    0    0  0.30803633439E+03  0.70451490422E+03  0.11169310443E+04  0.13560098050E+04  0.00000000000E+00 0. -1.
         22    1    1    2    0    0 -0.43999583851E+03 -0.89350531327E+03 -0.67661179598E+03  0.12040563131E+04  0.00000000000E+00 0. -1.
<mgrwt>
<rscale>  0 0.28430790E+04</rscale>
<asrwt>0</asrwt>
<pdfrwt beam="1">  1        2 0.16909750E+00 0.28430790E+04</pdfrwt>
<pdfrwt beam="2">  1       -2 0.28284855E+00 0.28430790E+04</pdfrwt>
<totfact> 0.76525250E-01</totfact>
</mgrwt>
</event>
<event>
 6    1  0.1072514E-005  0.6640673E+04  0.7818608E-02  0.7615673E-01
         -2   -1    0    0    0  501 -0.00000000000E+00  0.00000000000E+00  0.22341405574E+04  0.22341405574E+04  0.00000000000E+00 0.  1.
          2   -1    0    0  501    0  0.00000000000E+00 -0.00000000000E+00 -0.49346194458E+04  0.49346194458E+04  0.00000000000E+00 0. -1.
         23    2    1    2    0    0 -0.28096447853E+04  0.17616132300E+04 -0.15117655559E+04  0.36459167795E+04  0.99443834017E+02 0.  0.
         13    1    3    3    0    0 -0.22854717167E+04  0.14209302866E+04 -0.11851322354E+04  0.29405717578E+04  0.00000000000E+00 0. -1.
        -13    1    3    3    0    0 -0.52417306859E+03  0.34068294335E+03 -0.32663332045E+03  0.70534502178E+03  0.00000000000E+00 0.  1.
         22    1    1    2    0    0  0.28096447853E+04 -0.17616132300E+04 -0.11887133326E+04  0.35228432236E+04  0.00000000000E+00 0. -1.
<mgrwt>
<rscale>  0 0.66406727E+04</rscale>
<asrwt>0</asrwt>
<pdfrwt beam="1">  1        2 0.75917221E+00 0.66406727E+04</pdfrwt>
<pdfrwt beam="2">  1       -2 0.34371394E+00 0.66406727E+04</pdfrwt>
<totfact> 0.44217490E-04</totfact>
</mgrwt>
</event>
<event>
 6    1  0.1072514E-005  0.3952446E+04  0.7818608E-02  0.8014209E-01
         -2   -1    0    0    0  501 -0.00000000000E+00  0.00000000000E+00  0.19959882418E+04  0.19959882418E+04  0.00000000000E+00 0.  1.
          2   -1    0    0  501    0  0.00000000000E+00 -0.00000000000E+00 -0.19566531107E+04  0.19566531107E+04  0.00000000000E+00 0. -1.
         23    2    1    2    0    0 -0.58007591455E+03 -0.17842037327E+04  0.63706310227E+03  0.19835934217E+04  0.94458667053E+02 0.  0.
         13    1    3    3    0    0 -0.44907963542E+03 -0.12898949685E+04  0.49620856972E+03  0.14531773785E+04  0.00000000000E+00 0. -1.
        -13    1    3    3    0    0 -0.13099627913E+03 -0.49430876423E+03  0.14085453255E+03  0.53041604319E+03  0.00000000000E+00 0.  1.
         22    1    1    2    0    0  0.58007591455E+03  0.17842037327E+04 -0.59772797111E+03  0.19690479308E+04  0.00000000000E+00 0. -1.
<mgrwt>
<rscale>  0 0.39524456E+04</rscale>
<asrwt>0</asrwt>
<pdfrwt beam="1">  1        2 0.30102356E+00 0.39524456E+04</pdfrwt>
<pdfrwt beam="2">  1       -2 0.30707511E+00 0.39524456E+04</pdfrwt>
<totfact> 0.16086020E-01</totfact>
</mgrwt>
</event>
<event>
 6    1  0.1072514E-005  0.3048339E+04  0.7818608E-02  0.8230060E-01
         -2   -1    0    0    0  501 -0.00000000000E+00  0.00000000000E+00  0.11559041747E+04  0.11559041747E+04  0.00000000000E+00 0.  1.
          2   -1    0    0  501    0  0.00000000000E+00 -0.00000000000E+00 -0.20097625379E+04  0.20097625379E+04  0.00000000000E+00 0. -1.
         23    2    1    2    0    0 -0.53590124457E+03 -0.13895279847E+04 -0.97218426506E+02  0.14951930798E+04  0.90403314328E+02 0.  0.
         13    1    3    3    0    0 -0.43708425605E+03 -0.11726579033E+04 -0.51504291485E+02  0.12525262061E+04  0.00000000000E+00 0.  1.
        -13    1    3    3    0    0 -0.98816988525E+02 -0.21687008142E+03 -0.45714135022E+02  0.24266687367E+03  0.00000000000E+00 0. -1.
         22    1    1    2    0    0  0.53590124457E+03  0.13895279847E+04 -0.75663993668E+03  0.16704736328E+04  0.00000000000E+00 0.  1.
<mgrwt>
<rscale>  0 0.30483392E+04</rscale>
<asrwt>0</asrwt>
<pdfrwt beam="1">  1        2 0.30919424E+00 0.30483392E+04</pdfrwt>
<pdfrwt beam="2">  1       -2 0.17783141E+00 0.30483392E+04</pdfrwt>
<totfact> 0.10561522E+00</totfact>
</mgrwt>
</event>
<event>
 6    1  0.1072514E-005  0.2070895E+04  0.7818608E-02  0.8574174E-01
          2   -1    0    0  501    0  0.00000000000E+00  0.00000000000E+00  0.23317288990E+04  0.23317288990E+04  0.00000000000E+00 0. -1.
         -2   -1    0    0    0  501 -0.00000000000E+00 -0.00000000000E+00 -0.45980981387E+03  0.45980981387E+03  0.00000000000E+00 0.  1.
         23    2    1    2    0    0 -0.63708320095E+03  0.35332179593E+03 -0.50394372995E+02  0.73581491632E+03  0.90402996791E+02 0.  0.
         11    1    3    3    0    0 -0.35005693933E+03  0.17987770594E+03  0.16219429486E+02  0.39390217029E+03  0.00000000000E+00 0. -1.
        -11    1    3    3    0    0 -0.28702626163E+03  0.17344409000E+03 -0.66613802480E+02  0.34191274603E+03  0.00000000000E+00 0.  1.
         22    1    1    2    0    0  0.63708320095E+03 -0.35332179593E+03  0.19223134581E+04  0.20557237966E+04  0.00000000000E+00 0. -1.
<mgrwt>
<rscale>  0 0.20708953E+04</rscale>
<asrwt>0</asrwt>
<pdfrwt beam="1">  1        2 0.35872752E+00 0.20708953E+04</pdfrwt>
<pdfrwt beam="2">  1       -2 0.70739973E-01 0.20708953E+04</pdfrwt>
<totfact> 0.72988579E+00</totfact>
</mgrwt>
</event>
<event>
 6    1  0.1072514E-005  0.3321832E+04  0.7818608E-02  0.8157362E-01
          1   -1    0    0  501    0  0.00000000000E+00  0.00000000000E+00  0.11504621334E+04  0.11504621334E+04  0.00000000000E+00 0. -1.
         -1   -1    0    0    0  501 -0.00000000000E+00 -0.00000000000E+00 -0.23978556642E+04  0.23978556642E+04  0.00000000000E+00 0.  1.
         23    2    1    2    0    0  0.90474780143E+03 -0.12851425890E+03 -0.21040728016E+04  0.22957269339E+04  0.90306708779E+02 0.  0.
         13    1    3    3    0    0  0.50797363683E+03 -0.34140839369E+02 -0.11067941675E+04  0.12182758890E+04  0.00000000000E+00 0.  1.
        -13    1    3    3    0    0  0.39677416460E+03 -0.94373419530E+02 -0.99727863413E+03  0.10774510449E+04  0.00000000000E+00 0. -1.
         22    1    1    2    0    0 -0.90474780143E+03  0.12851425890E+03  0.85667927077E+03  0.12525908637E+04  0.00000000000E+00 0. -1.
<mgrwt>
<rscale>  0 0.33218321E+04</rscale>
<asrwt>0</asrwt>
<pdfrwt beam="1">  1        1 0.17699418E+00 0.33218321E+04</pdfrwt>
<pdfrwt beam="2">  1       -1 0.36890087E+00 0.33218321E+04</pdfrwt>
<totfact> 0.11179625E-01</totfact>
</mgrwt>
</event>
<event>
 6    1  0.1072514E-005  0.1596336E+04  0.7818608E-02  0.8822802E-01
         -1   -1    0    0    0  501 -0.00000000000E+00  0.00000000000E+00  0.49689562323E+03  0.49689562323E+03  0.00000000000E+00 0.  1.
          1   -1    0    0  501    0  0.00000000000E+00 -0.00000000000E+00 -0.12821043522E+04  0.12821043522E+04  0.00000000000E+00 0. -1.
         23    2    1    2    0    0  0.21074749038E+03 -0.11729742778E+03 -0.12387674266E+04  0.12652990085E+04  0.90904633273E+02 0.  0.
         11    1    3    3    0    0  0.10100916704E+03 -0.13213709794E+02 -0.62009678659E+03  0.62840868763E+03  0.00000000000E+00 0.  1.
        -11    1    3    3    0    0  0.10973832334E+03 -0.10408371799E+03 -0.61867064005E+03  0.63689032087E+03  0.00000000000E+00 0. -1.
         22    1    1    2    0    0 -0.21074749038E+03  0.11729742778E+03  0.45355869763E+03  0.51370096696E+03  0.00000000000E+00 0.  1.
<mgrwt>
<rscale>  0 0.15963359E+04</rscale>
<asrwt>0</asrwt>
<pdfrwt beam="1">  1        1 0.19724682E+00 0.15963359E+04</pdfrwt>
<pdfrwt beam="2">  1       -1 0.76445481E-01 0.15963359E+04</pdfrwt>
<totfact> 0.15360513E+01</totfact>
</mgrwt>
</event>
<event>
 6    1  0.1072514E-005  0.1374256E+04  0.7818608E-02  0.8972667E-01
          2   -1    0    0  501    0  0.00000000000E+00  0.00000000000E+00  0.96762583403E+03  0.96762583403E+03  0.00000000000E+00 0. -1.
         -2   -1    0    0    0  501 -0.00000000000E+00 -0.00000000000E+00 -0.48794153556E+03  0.48794153556E+03  0.00000000000E+00 0.  1.
         23    2    1    2    0    0  0.60307984902E+02  0.16609903116E+03  0.94090609351E+03  0.96165291807E+03  0.90808132054E+02 0.  0.
         13    1    3    3    0    0  0.23356677925E+01  0.12487970896E+03  0.52084839024E+03  0.53561501349E+03  0.00000000000E+00 0.  1.
        -13    1    3    3    0    0  0.57972317110E+02  0.41219322199E+02  0.42005770327E+03  0.42603790459E+03  0.00000000000E+00 0. -1.
         22    1    1    2    0    0 -0.60307984902E+02 -0.16609903116E+03 -0.46122179504E+03  0.49391445151E+03  0.00000000000E+00 0.  1.
<mgrwt>
<rscale>  0 0.13742559E+04</rscale>
<asrwt>0</asrwt>
<pdfrwt beam="1">  1        2 0.14886551E+00 0.13742559E+04</pdfrwt>
<pdfrwt beam="2">  1       -2 0.75067929E-01 0.13742559E+04</pdfrwt>
<totfact> 0.41091261E+01</totfact>
</mgrwt>
</event>
<event>
 6    1  0.1072514E-005  0.3838108E+04  0.7818608E-02  0.8038026E-01
          2   -1    0    0  501    0  0.00000000000E+00  0.00000000000E+00  0.91367586074E+03  0.91367586074E+03  0.00000000000E+00 0. -1.
         -2   -1    0    0    0  501 -0.00000000000E+00 -0.00000000000E+00 -0.40307173879E+04  0.40307173879E+04  0.00000000000E+00 0.  1.
         23    2    1    2    0    0 -0.19411666645E+03  0.67406747673E+03 -0.38590598716E+04  0.39232960608E+04  0.88660277230E+02 0.  0.
         11    1    3    3    0    0 -0.51362783842E+02  0.26213167092E+03 -0.12700777506E+04  0.12978631057E+04  0.00000000000E+00 0.  1.
        -11    1    3    3    0    0 -0.14275388261E+03  0.41193580581E+03 -0.25889821210E+04  0.26254329551E+04  0.00000000000E+00 0. -1.
         22    1    1    2    0    0  0.19411666645E+03 -0.67406747673E+03  0.74201834449E+03  0.10210971878E+04  0.00000000000E+00 0. -1.
<mgrwt>
<rscale>  0 0.38381085E+04</rscale>
<asrwt>0</asrwt>
<pdfrwt beam="1">  1        2 0.14056551E+00 0.38381085E+04</pdfrwt>
<pdfrwt beam="2">  1       -2 0.62011038E+00 0.38381085E+04</pdfrwt>
<totfact> 0.97486274E-03</totfact>
</mgrwt>
</event>
<event>
 6    1  0.1072514E-005  0.1358727E+04  0.7818608E-02  0.8984248E-01
         -2   -1    0    0    0  501 -0.00000000000E+00  0.00000000000E+00  0.25777949012E+03  0.25777949012E+03  0.00000000000E+00 0.  1.
          2   -1    0    0  501    0  0.00000000000E+00 -0.00000000000E+00 -0.17904244011E+04  0.17904244011E+04  0.00000000000E+00 0. -1.
         23    2    1    2    0    0 -0.35680334780E+03 -0.31727396883E+03 -0.14917755499E+04  0.15689944329E+04  0.91530533982E+02 0.  0.
         13    1    3    3    0    0 -0.20887430177E+03 -0.12976573165E+03 -0.69677502051E+03  0.73889312370E+03  0.00000000000E+00 0. -1.
        -13    1    3    3    0    0 -0.14792904603E+03 -0.18750823718E+03 -0.79500052943E+03  0.83010130916E+03  0.00000000000E+00 0.  1.
         22    1    1    2    0    0  0.35680334780E+03  0.31727396883E+03 -0.40869361034E+02  0.47920945835E+03  0.00000000000E+00 0.  1.
<mgrwt>
<rscale>  0 0.13587269E+04</rscale>
<asrwt>0</asrwt>
<pdfrwt beam="1">  1        2 0.27544990E+00 0.13587269E+04</pdfrwt>
<pdfrwt beam="2">  1       -2 0.39658384E-01 0.13587269E+04</pdfrwt>
<totfact> 0.51287173E+01</totfact>
</mgrwt>
</event>
<event>
 6    1  0.1072514E-005  0.6930868E+03  0.7818608E-02  0.9729128E-01
         -1   -1    0    0    0  501 -0.00000000000E+00  0.00000000000E+00  0.14462325036E+03  0.14462325036E+03  0.00000000000E+00 0.  1.
          1   -1    0    0  501    0  0.00000000000E+00 -0.00000000000E+00 -0.83038044044E+03  0.83038044044E+03  0.00000000000E+00 0. -1.
         23    2    1    2    0    0 -0.23315192440E+03 -0.95657472946E+02 -0.67105549868E+03  0.72256298150E+03  0.90948380629E+02 0.  0.
         11    1    3    3    0    0 -0.19340964012E+03 -0.10203151384E+03 -0.48220565658E+03  0.52947144772E+03  0.00000000000E+00 0. -1.
        -11    1    3    3    0    0 -0.39742284277E+02  0.63740408905E+01 -0.18884984210E+03  0.19309153378E+03  0.00000000000E+00 0.  1.
         22    1    1    2    0    0  0.23315192440E+03  0.95657472946E+02 -0.14701691399E+02  0.25244070930E+03  0.00000000000E+00 0.  1.
<mgrwt>
<rscale>  0 0.69308677E+03</rscale>
<asrwt>0</asrwt>
<pdfrwt beam="1">  1        1 0.12775084E+00 0.69308677E+03</pdfrwt>
<pdfrwt beam="2">  1       -1 0.22249730E-01 0.69308677E+03</pdfrwt>
<totfact> 0.35967600E+02</totfact>
</mgrwt>
</event>
<event>
 6    1  0.1072514E-005  0.4586743E+04  0.7818608E-02  0.7895624E-01
          2   -1    0    0  501    0  0.00000000000E+00  0.00000000000E+00  0.35481715325E+04  0.35481715325E+04  0.00000000000E+00 0. -1.
         -2   -1    0    0    0  501 -0.00000000000E+00 -0.00000000000E+00 -0.14823277744E+04  0.14823277744E+04  0.00000000000E+00 0.  1.
         23    2    1    2    0    0  0.24886102758E+03  0.16557759347E+04  0.27506748845E+04  0.32214886854E+04  0.90836517325E+02 0.  0.
         13    1    3    3    0    0  0.84805895675E+02  0.42636924542E+03  0.78092536699E+03  0.89377133664E+03  0.00000000000E+00 0. -1.
        -13    1    3    3    0    0  0.16405513191E+03  0.12294066893E+04  0.19697495175E+04  0.23277173488E+04  0.00000000000E+00 0.  1.
         22    1    1    2    0    0 -0.24886102758E+03 -0.16557759347E+04 -0.68483112635E+03  0.18090106215E+04  0.00000000000E+00 0.  1.
<mgrwt>
<rscale>  0 0.45867432E+04</rscale>
<asrwt>0</asrwt>
<pdfrwt beam="1">  1        2 0.54587254E+00 0.45867432E+04</pdfrwt>
<pdfrwt beam="2">  1       -2 0.22805043E+00 0.45867432E+04</pdfrwt>
<totfact> 0.49641438E-02</totfact>
</mgrwt>
</event>
<event>
 6    1  0.1072514E-005  0.3340154E+04  0.7818608E-02  0.8152753E-01
         -2   -1    0    0    0  501 -0.00000000000E+00  0.00000000000E+00  0.13209888498E+04  0.13209888498E+04  0.00000000000E+00 0.  1.
          2   -1    0    0  501    0  0.00000000000E+00 -0.00000000000E+00 -0.21114156231E+04  0.21114156231E+04  0.00000000000E+00 0. -1.
         23    2    1    2    0    0 -0.10018935129E+04 -0.12602824550E+04  0.55719218746E+02  0.16135956546E+04  0.92107695010E+02 0.  0.
         13    1    3    3    0    0 -0.37509430261E+03 -0.41009217225E+03 -0.17736414783E+01  0.55576476264E+03  0.00000000000E+00 0.  1.
        -13    1    3    3    0    0 -0.62679921034E+03 -0.85019028279E+03  0.57492860225E+02  0.10578308920E+04  0.00000000000E+00 0. -1.
         22    1    1    2    0    0  0.10018935129E+04  0.12602824550E+04 -0.84614599200E+03  0.18188088183E+04  0.00000000000E+00 0. -1.
<mgrwt>
<rscale>  0 0.33401536E+04</rscale>
<asrwt>0</asrwt>
<pdfrwt beam="1">  1        2 0.32483317E+00 0.33401536E+04</pdfrwt>
<pdfrwt beam="2">  1       -2 0.20322906E+00 0.33401536E+04</pdfrwt>
<totfact> 0.61064478E-01</totfact>
</mgrwt>
</event>
<event>
 6    1  0.1072514E-005  0.8419027E+03  0.7818608E-02  0.9501270E-01
          2   -1    0    0  501    0  0.00000000000E+00  0.00000000000E+00  0.44228048166E+03  0.44228048166E+03  0.00000000000E+00 0. -1.
         -2   -1    0    0    0  501 -0.00000000000E+00 -0.00000000000E+00 -0.40065086019E+03  0.40065086019E+03  0.00000000000E+00 0.  1.
         23    2    1    2    0    0 -0.35664939675E+03 -0.20020573059E+03 -0.55018991685E+02  0.42266704264E+03  0.91319290013E+02 0.  0.
         11    1    3    3    0    0 -0.22724431935E+03 -0.81348796035E+02 -0.11438970765E+02  0.24163703637E+03  0.00000000000E+00 0.  1.
        -11    1    3    3    0    0 -0.12940507740E+03 -0.11885693455E+03 -0.43580020919E+02  0.18103000627E+03  0.00000000000E+00 0. -1.
         22    1    1    2    0    0  0.35664939675E+03  0.20020573059E+03  0.96648613153E+02  0.42026429920E+03  0.00000000000E+00 0.  1.
<mgrwt>
<rscale>  0 0.84190274E+03</rscale>
<asrwt>0</asrwt>
<pdfrwt beam="1">  1        2 0.68043151E-01 0.84190274E+03</pdfrwt>
<pdfrwt beam="2">  1       -2 0.61638594E-01 0.84190274E+03</pdfrwt>
<totfact> 0.17460334E+02</totfact>
</mgrwt>
</event>
<event>
 6    1  0.1072514E-005  0.1731737E+04  0.7818608E-02  0.8743468E-01
         -2   -1    0    0    0  501 -0.00000000000E+00  0.00000000000E+00  0.32106678346E+03  0.32106678346E+03  0.00000000000E+00 0. -1.
          2   -1    0    0  501    0  0.00000000000E+00 -0.00000000000E+00 -0.23351168916E+04  0.23351168916E+04  0.00000000000E+00 0.  1.
         23    2    1    2    0    0 -0.10454647389E+03  0.14490240604E+03 -0.23055480669E+04  0.23142805713E+04  0.91738767802E+02 0.  0.
         13    1    3    3    0    0 -0.70257522986E+02  0.37001608182E+02 -0.64347685330E+03  0.64835769393E+03  0.00000000000E+00 0.  1.
        -13    1    3    3    0    0 -0.34288950906E+02  0.10790079786E+03 -0.16620712136E+04  0.16659228774E+04  0.00000000000E+00 0. -1.
         22    1    1    2    0    0  0.10454647389E+03 -0.14490240604E+03  0.29149795869E+03  0.34190310382E+03  0.00000000000E+00 0. -1.
<mgrwt>
<rscale>  0 0.17317372E+04</rscale>
<asrwt>0</asrwt>
<pdfrwt beam="1">  1        2 0.35924874E+00 0.17317372E+04</pdfrwt>
<pdfrwt beam="2">  1       -2 0.49394892E-01 0.17317372E+04</pdfrwt>
<totfact> 0.15957333E+01</totfact>
</mgrwt>
</event>
<event>
 6    1  0.1072514E-005  0.1675399E+04  0.7818608E-02  0.8775521E-01
         -2   -1    0    0    0  501 -0.00000000000E+00  0.00000000000E+00  0.49707348780E+03  0.49707348780E+03  0.00000000000E+00 0.  1.
          2   -1    0    0  501    0  0.00000000000E+00 -0.00000000000E+00 -0.14117436980E+04  0.14117436980E+04  0.00000000000E+00 0. -1.
         23    2    1    2    0    0 -0.44860519301E+03  0.49862933905E+03  0.10818956258E+03  0.68565736314E+03  0.92429439195E+02 0.  0.
         11    1    3    3    0    0 -0.45549057236E+02  0.39029629109E+02  0.36384204052E+02  0.70155818490E+02  0.00000000000E+00 0. -1.
        -11    1    3    3    0    0 -0.40305613577E+03  0.45959970994E+03  0.71805358532E+02  0.61550154465E+03  0.00000000000E+00 0.  1.
         22    1    1    2    0    0  0.44860519301E+03 -0.49862933905E+03 -0.10228597727E+04  0.12231598226E+04  0.00000000000E+00 0. -1.
<mgrwt>
<rscale>  0 0.16753989E+04</rscale>
<asrwt>0</asrwt>
<pdfrwt beam="1">  1        2 0.21719134E+00 0.16753989E+04</pdfrwt>
<pdfrwt beam="2">  1       -2 0.76472844E-01 0.16753989E+04</pdfrwt>
<totfact> 0.20772937E+01</totfact>
</mgrwt>
</event>
<event>
 6    1  0.1072514E-005  0.2917164E+04  0.7818608E-02  0.8267789E-01
          1   -1    0    0  501    0  0.00000000000E+00  0.00000000000E+00  0.21069832701E+04  0.21069832701E+04  0.00000000000E+00 0. -1.
         -1   -1    0    0    0  501 -0.00000000000E+00 -0.00000000000E+00 -0.10097190556E+04  0.10097190556E+04  0.00000000000E+00 0.  1.
         23    2    1    2    0    0  0.95338502321E+03 -0.97583577732E+03  0.28478192180E+01  0.13677181310E+04  0.97192124550E+02 0.  0.
         13    1    3    3    0    0  0.51629022288E+03 -0.45891260446E+03  0.15114777025E+01  0.69076671702E+03  0.00000000000E+00 0. -1.
        -13    1    3    3    0    0  0.43709480032E+03 -0.51692317285E+03  0.13363415155E+01  0.67695141400E+03  0.00000000000E+00 0.  1.
         22    1    1    2    0    0 -0.95338502321E+03  0.97583577732E+03  0.10944163953E+04  0.17489841946E+04  0.00000000000E+00 0. -1.
<mgrwt>
<rscale>  0 0.29171638E+04</rscale>
<asrwt>0</asrwt>
<pdfrwt beam="1">  1        1 0.32415127E+00 0.29171638E+04</pdfrwt>
<pdfrwt beam="2">  1       -1 0.15534139E+00 0.29171638E+04</pdfrwt>
<totfact> 0.68524346E-01</totfact>
</mgrwt>
</event>
<event>
 6    1  0.1072514E-005  0.1613950E+04  0.7818608E-02  0.8812024E-01
          2   -1    0    0  501    0  0.00000000000E+00  0.00000000000E+00  0.27614053851E+04  0.27614053851E+04  0.00000000000E+00 0. -1.
         -2   -1    0    0    0  501 -0.00000000000E+00 -0.00000000000E+00 -0.23582506315E+03  0.23582506315E+03  0.00000000000E+00 0.  1.
         23    2    1    2    0    0 -0.45874670617E+03 -0.44310764710E+03  0.21770770238E+04  0.22704240943E+04  0.91478264790E+02 0.  0.
         11    1    3    3    0    0 -0.27728475300E+03 -0.25577356371E+03  0.11277678326E+04  0.11891876363E+04  0.00000000000E+00 0. -1.
        -11    1    3    3    0    0 -0.18146195318E+03 -0.18733408340E+03  0.10493091912E+04  0.10812364579E+04  0.00000000000E+00 0.  1.
         22    1    1    2    0    0  0.45874670617E+03  0.44310764710E+03  0.34850329814E+03  0.72680635396E+03  0.00000000000E+00 0.  1.
<mgrwt>
<rscale>  0 0.16139499E+04</rscale>
<asrwt>0</asrwt>
<pdfrwt beam="1">  1        2 0.42483158E+00 0.16139499E+04</pdfrwt>
<pdfrwt beam="2">  1       -2 0.36280781E-01 0.16139499E+04</pdfrwt>
<totfact> 0.16773265E+01</totfact>
</mgrwt>
</event>
<event>
 6    1  0.1072514E-005  0.4767416E+04  0.7818608E-02  0.7865423E-01
          1   -1    0    0  501    0  0.00000000000E+00  0.00000000000E+00  0.41504481229E+04  0.41504481229E+04  0.00000000000E+00 0. -1.
         -1   -1    0    0    0  501 -0.00000000000E+00 -0.00000000000E+00 -0.13690240498E+04  0.13690240498E+04  0.00000000000E+00 0.  1.
         23    2    1    2    0    0 -0.19891683551E+04 -0.96079416432E+03  0.35695099210E+03  0.22395352996E+04  0.90488541792E+02 0.  0.
         13    1    3    3    0    0 -0.73702321507E+03 -0.40264934287E+03  0.14856528012E+03  0.85287827696E+03  0.00000000000E+00 0. -1.
        -13    1    3    3    0    0 -0.12521451400E+04 -0.55814482145E+03  0.20838571198E+03  0.13866570226E+04  0.00000000000E+00 0.  1.
         22    1    1    2    0    0  0.19891683551E+04  0.96079416432E+03  0.24244730810E+04  0.32799368731E+04  0.00000000000E+00 0.  1.
<mgrwt>
<rscale>  0 0.47674158E+04</rscale>
<asrwt>0</asrwt>
<pdfrwt beam="1">  1        1 0.63853047E+00 0.47674158E+04</pdfrwt>
<pdfrwt beam="2">  1       -1 0.21061909E+00 0.47674158E+04</pdfrwt>
<totfact> 0.65511196E-03</totfact>
</mgrwt>
</event>
<event>
 6    1  0.1072514E-005  0.1875852E+04  0.7818608E-02  0.8666971E-01
         -1   -1    0    0    0  501 -0.00000000000E+00  0.00000000000E+00  0.48703020179E+03  0.48703020179E+03  0.00000000000E+00 0.  1.
          1   -1    0    0  501    0  0.00000000000E+00 -0.00000000000E+00 -0.18062634106E+04  0.18062634106E+04  0.00000000000E+00 0. -1.
         23    2    1    2    0    0 -0.89885618825E+03  0.15666331879E+03 -0.91438527365E+03  0.12951013998E+04  0.93281105050E+02 0.  0.
         13    1    3    3    0    0 -0.20901789459E+03  0.27031668496E+01 -0.23855201097E+03  0.31717952221E+03  0.00000000000E+00 0. -1.
        -13    1    3    3    0    0 -0.68983829366E+03  0.15396015194E+03 -0.67583326268E+03  0.97792187762E+03  0.00000000000E+00 0.  1.
         22    1    1    2    0    0  0.89885618825E+03 -0.15666331879E+03 -0.40484793515E+03  0.99819221256E+03  0.00000000000E+00 0. -1.
<mgrwt>
<rscale>  0 0.18758516E+04</rscale>
<asrwt>0</asrwt>
<pdfrwt beam="1">  1        1 0.27788668E+00 0.18758516E+04</pdfrwt>
<pdfrwt beam="2">  1       -1 0.74927723E-01 0.18758516E+04</pdfrwt>
<totfact> 0.67755073E+00</totfact>
</mgrwt>
</event>
<event>
 6    1  0.1072514E-005  0.9775254E+03  0.7818608E-02  0.9333544E-01
          2   -1    0    0  501    0  0.00000000000E+00  0.00000000000E+00  0.55421897328E+03  0.55421897328E+03  0.00000000000E+00 0.  1.
         -2   -1    0    0    0  501 -0.00000000000E+00 -0.00000000000E+00 -0.43103716882E+03  0.43103716882E+03  0.00000000000E+00 0. -1.
         23    2    1    2    0    0  0.16236087262E+02 -0.17881168911E+03 -0.39159778677E+03  0.44006327877E+03  0.89831130602E+02 0.  0.
         11    1    3    3    0    0 -0.35955125930E+02 -0.99002896902E+02 -0.21159914165E+03  0.23636527119E+03  0.00000000000E+00 0. -1.
        -11    1    3    3    0    0  0.52191213192E+02 -0.79808792207E+02 -0.17999864512E+03  0.20369800758E+03  0.00000000000E+00 0.  1.
         22    1    1    2    0    0 -0.16236087262E+02  0.17881168911E+03  0.51477959123E+03  0.54519286334E+03  0.00000000000E+00 0.  1.
<mgrwt>
<rscale>  0 0.97752540E+03</rscale>
<asrwt>0</asrwt>
<pdfrwt beam="1">  1        2 0.85264457E-01 0.97752540E+03</pdfrwt>
<pdfrwt beam="2">  1       -2 0.66313411E-01 0.97752540E+03</pdfrwt>
<totfact> 0.11410454E+02</totfact>
</mgrwt>
</event>
<event>
 6    1  0.1072514E-005  0.2586515E+04  0.7818608E-02  0.8372796E-01
          2   -1    0    0  501    0  0.00000000000E+00  0.00000000000E+00  0.21690626948E+04  0.21690626948E+04  0.00000000000E+00 0. -1.
         -2   -1    0    0    0  501 -0.00000000000E+00 -0.00000000000E+00 -0.77107727313E+03  0.77107727313E+03  0.00000000000E+00 0.  1.
         23    2    1    2    0    0  0.12013504404E+04  0.47425030680E+03  0.68435123973E+03  0.14645282372E+04  0.91378904237E+02 0.  0.
         13    1    3    3    0    0  0.40519374468E+03  0.11872761991E+03  0.20180981069E+03  0.46798014717E+03  0.00000000000E+00 0. -1.
        -13    1    3    3    0    0  0.79615669574E+03  0.35552268689E+03  0.48254142903E+03  0.99654809006E+03  0.00000000000E+00 0.  1.
         22    1    1    2    0    0 -0.12013504404E+04 -0.47425030680E+03  0.71363418199E+03  0.14756117307E+04  0.00000000000E+00 0.  1.
<mgrwt>
<rscale>  0 0.25865150E+04</rscale>
<asrwt>0</asrwt>
<pdfrwt beam="1">  1        2 0.33370195E+00 0.25865150E+04</pdfrwt>
<pdfrwt beam="2">  1       -2 0.11862727E+00 0.25865150E+04</pdfrwt>
<totfact> 0.26004915E+00</totfact>
</mgrwt>
</event>
<event>
 6    1  0.1072514E-005  0.2877500E+04  0.7818608E-02  0.8279604E-01
         -2   -1    0    0    0  501 -0.00000000000E+00  0.00000000000E+00  0.10041038454E+04  0.10041038454E+04  0.00000000000E+00 0.  1.
          2   -1    0    0  501    0  0.00000000000E+00 -0.00000000000E+00 -0.20615410678E+04  0.20615410678E+04  0.00000000000E+00 0. -1.
         23    2    1    2    0    0 -0.10828407799E+04 -0.84128117174E+03 -0.98815055074E+03  0.16926559083E+04  0.91347405423E+02 0.  0.
         11    1    3    3    0    0 -0.57566695166E+03 -0.49991929236E+03 -0.52597430739E+03  0.92626168556E+03  0.00000000000E+00 0. -1.
        -11    1    3    3    0    0 -0.50717382827E+03 -0.34136187938E+03 -0.46217624335E+03  0.76639422276E+03  0.00000000000E+00 0.  1.
         22    1    1    2    0    0  0.10828407799E+04  0.84128117174E+03 -0.69286671621E+02  0.13729890049E+04  0.00000000000E+00 0. -1.
<mgrwt>
<rscale>  0 0.28774998E+04</rscale>
<asrwt>0</asrwt>
<pdfrwt beam="1">  1        2 0.31716016E+00 0.28774998E+04</pdfrwt>
<pdfrwt beam="2">  1       -2 0.15447752E+00 0.28774998E+04</pdfrwt>
<totfact> 0.14788785E+00</totfact>
</mgrwt>
</event>
<event>
 6    1  0.1072514E-005  0.3414134E+04  0.7818608E-02  0.8134446E-01
          2   -1    0    0  501    0  0.00000000000E+00  0.00000000000E+00  0.36066949616E+04  0.36066949616E+04  0.00000000000E+00 0. -1.
         -2   -1    0    0    0  501 -0.00000000000E+00 -0.00000000000E+00 -0.80796329617E+03  0.80796329617E+03  0.00000000000E+00 0.  1.
         23    2    1    2    0    0  0.58311925257E+03  0.85523298282E+03 -0.35279872826E+03  0.10974914938E+04  0.92569534379E+02 0.  0.
         13    1    3    3    0    0  0.19706425513E+03  0.36532050544E+03 -0.12576662857E+03  0.43371723185E+03  0.00000000000E+00 0. -1.
        -13    1    3    3    0    0  0.38605499744E+03  0.48991247738E+03 -0.22703209969E+03  0.66377426195E+03  0.00000000000E+00 0.  1.
         22    1    1    2    0    0 -0.58311925257E+03 -0.85523298282E+03  0.31515303937E+04  0.33171667640E+04  0.00000000000E+00 0. -1.
<mgrwt>
<rscale>  0 0.34141337E+04</rscale>
<asrwt>0</asrwt>
<pdfrwt beam="1">  1        2 0.55487614E+00 0.34141337E+04</pdfrwt>
<pdfrwt beam="2">  1       -2 0.12430205E+00 0.34141337E+04</pdfrwt>
<totfact> 0.27426245E-01</totfact>
</mgrwt>
</event>
<event>
 6    1  0.1072514E-005  0.2920032E+03  0.7818608E-02  0.1089308E+00
         -2   -1    0    0    0  501 -0.00000000000E+00  0.00000000000E+00  0.10442344193E+03  0.10442344193E+03  0.00000000000E+00 0.  1.
          2   -1    0    0  501    0  0.00000000000E+00 -0.00000000000E+00 -0.20413484725E+03  0.20413484725E+03  0.00000000000E+00 0. -1.
         23    2    1    2    0    0 -0.42244533676E+02 -0.12285174670E+03 -0.35979914133E+02  0.16385564490E+03  0.93150232701E+02 0.  0.
         13    1    3    3    0    0 -0.62062673206E+02 -0.43700672462E+02 -0.31368414569E+02  0.82131002744E+02  0.00000000000E+00 0.  1.
        -13    1    3    3    0    0  0.19818139531E+02 -0.79151074238E+02 -0.46114995643E+01  0.81724642157E+02  0.00000000000E+00 0. -1.
         22    1    1    2    0    0  0.42244533676E+02  0.12285174670E+03 -0.63731491188E+02  0.14470264428E+03  0.00000000000E+00 0.  1.
<mgrwt>
<rscale>  0 0.29200317E+03</rscale>
<asrwt>0</asrwt>
<pdfrwt beam="1">  1        2 0.31405361E-01 0.29200317E+03</pdfrwt>
<pdfrwt beam="2">  1       -2 0.16065145E-01 0.29200317E+03</pdfrwt>
<totfact> 0.50672180E+03</totfact>
</mgrwt>
</event>
<event>
 6    1  0.1072514E-005  0.5080967E+03  0.7818608E-02  0.1011687E+00
         -2   -1    0    0    0  501 -0.00000000000E+00  0.00000000000E+00  0.25539168521E+03  0.25539168521E+03  0.00000000000E+00 0.  1.
          2   -1    0    0  501    0  0.00000000000E+00 -0.00000000000E+00 -0.25271203575E+03  0.25271203575E+03  0.00000000000E+00 0. -1.
         23    2    1    2    0    0  0.16193270493E+03 -0.17050400571E+03 -0.73027958767E+02  0.26107040574E+03  0.86780511060E+02 0.  0.
         11    1    3    3    0    0  0.87000904185E+02 -0.50069440853E+02  0.24227801735E+01  0.10040904392E+03  0.00000000000E+00 0.  1.
        -11    1    3    3    0    0  0.74931800749E+02 -0.12043456486E+03 -0.75450738941E+02  0.16066136182E+03  0.00000000000E+00 0. -1.
         22    1    1    2    0    0 -0.16193270493E+03  0.17050400571E+03  0.75707608226E+02  0.24703331523E+03  0.00000000000E+00 0.  1.
<mgrwt>
<rscale>  0 0.50809665E+03</rscale>
<asrwt>0</asrwt>
<pdfrwt beam="1">  1        2 0.38878775E-01 0.50809665E+03</pdfrwt>
<pdfrwt beam="2">  1       -2 0.39291028E-01 0.50809665E+03</pdfrwt>
<totfact> 0.81745596E+02</totfact>
</mgrwt>
</event>
<event>
 6    1  0.1072514E-005  0.2902848E+04  0.7818608E-02  0.8272031E-01
          2   -1    0    0  501    0  0.00000000000E+00  0.00000000000E+00  0.24279447662E+04  0.24279447662E+04  0.00000000000E+00 0. -1.
         -2   -1    0    0    0  501 -0.00000000000E+00 -0.00000000000E+00 -0.86766039149E+03  0.86766039149E+03  0.00000000000E+00 0.  1.
         23    2    1    2    0    0 -0.53530707246E+03  0.72040202651E+03  0.20742388844E+04  0.22613508467E+04  0.75551046351E+02 0.  0.
         11    1    3    3    0    0 -0.31871593262E+02  0.69727478718E+02  0.21376194163E+03  0.22709444606E+03  0.00000000000E+00 0. -1.
        -11    1    3    3    0    0 -0.50343547920E+03  0.65067454779E+03  0.18604769428E+04  0.20342564007E+04  0.00000000000E+00 0.  1.
         22    1    1    2    0    0  0.53530707246E+03 -0.72040202651E+03 -0.51395450975E+03  0.10342543110E+04  0.00000000000E+00 0.  1.
<mgrwt>
<rscale>  0 0.29028479E+04</rscale>
<asrwt>0</asrwt>
<pdfrwt beam="1">  1        2 0.37352996E+00 0.29028479E+04</pdfrwt>
<pdfrwt beam="2">  1       -2 0.13348622E+00 0.29028479E+04</pdfrwt>
<totfact> 0.13420765E+00</totfact>
</mgrwt>
</event>
<event>
 6    1  0.1072514E-005  0.4073066E+03  0.7818608E-02  0.1041279E+00
         -2   -1    0    0    0  501 -0.00000000000E+00  0.00000000000E+00  0.16167218529E+03  0.16167218529E+03  0.00000000000E+00 0.  1.
          2   -1    0    0  501    0  0.00000000000E+00 -0.00000000000E+00 -0.25653557876E+03  0.25653557876E+03  0.00000000000E+00 0. -1.
         23    2    1    2    0    0  0.15703522562E+03  0.81943192886E+02 -0.12533222384E+03  0.23847713624E+03  0.98936490884E+02 0.  0.
         11    1    3    3    0    0  0.12766873461E+03  0.47104475593E+02 -0.40161109280E+02  0.14188393890E+03  0.00000000000E+00 0. -1.
        -11    1    3    3    0    0  0.29366491012E+02  0.34838717293E+02 -0.85171114564E+02  0.96593197343E+02  0.00000000000E+00 0.  1.
         22    1    1    2    0    0 -0.15703522562E+03 -0.81943192886E+02  0.30468830373E+02  0.17973062780E+03  0.00000000000E+00 0.  1.
<mgrwt>
<rscale>  0 0.40730661E+03</rscale>
<asrwt>0</asrwt>
<pdfrwt beam="1">  1        2 0.39467012E-01 0.40730661E+03</pdfrwt>
<pdfrwt beam="2">  1       -2 0.24872644E-01 0.40730661E+03</pdfrwt>
<totfact> 0.18728213E+03</totfact>
</mgrwt>
</event>
<event>
 6    1  0.1072514E-005  0.2532842E+04  0.7818608E-02  0.8391378E-01
          1   -1    0    0  501    0  0.00000000000E+00  0.00000000000E+00  0.12003949637E+04  0.12003949637E+04  0.00000000000E+00 0. -1.
         -1   -1    0    0    0  501 -0.00000000000E+00 -0.00000000000E+00 -0.13360784190E+04  0.13360784190E+04  0.00000000000E+00 0.  1.
         23    2    1    2    0    0 -0.67658035919E+03 -0.82123629776E+03 -0.75270506860E+03  0.13064710614E+04  0.90064836680E+02 0.  0.
         13    1    3    3    0    0 -0.34781300802E+03 -0.47686825081E+03 -0.38201636427E+03  0.70307447667E+03  0.00000000000E+00 0.  1.
        -13    1    3    3    0    0 -0.32876735117E+03 -0.34436804695E+03 -0.37068870433E+03  0.60339658474E+03  0.00000000000E+00 0. -1.
         22    1    1    2    0    0  0.67658035919E+03  0.82123629776E+03  0.61702161328E+03  0.12300023213E+04  0.00000000000E+00 0. -1.
<mgrwt>
<rscale>  0 0.25328417E+04</rscale>
<asrwt>0</asrwt>
<pdfrwt beam="1">  1        1 0.18467615E+00 0.25328417E+04</pdfrwt>
<pdfrwt beam="2">  1       -1 0.20555052E+00 0.25328417E+04</pdfrwt>
<totfact> 0.13040972E+00</totfact>
</mgrwt>
</event>
<event>
 6    1  0.1072514E-005  0.2614783E+04  0.7818608E-02  0.8363197E-01
         -3   -1    0    0    0  501 -0.00000000000E+00  0.00000000000E+00  0.10609141633E+04  0.10609141633E+04  0.00000000000E+00 0.  1.
          3   -1    0    0  501    0  0.00000000000E+00 -0.00000000000E+00 -0.16111319439E+04  0.16111319439E+04  0.00000000000E+00 0. -1.
         23    2    1    2    0    0 -0.45487783264E+03  0.55248482383E+03  0.84064471245E+03  0.11078684326E+04  0.92388355020E+02 0.  0.
         11    1    3    3    0    0 -0.14754240347E+02  0.44647453271E+02  0.34304124215E+02  0.58205288677E+02  0.00000000000E+00 0. -1.
        -11    1    3    3    0    0 -0.44012359229E+03  0.50783737056E+03  0.80634058824E+03  0.10496631439E+04  0.00000000000E+00 0.  1.
         22    1    1    2    0    0  0.45487783264E+03 -0.55248482383E+03 -0.13908624931E+04  0.15641776746E+04  0.00000000000E+00 0. -1.
<mgrwt>
<rscale>  0 0.26147831E+04</rscale>
<asrwt>0</asrwt>
<pdfrwt beam="1">  1        3 0.24786645E+00 0.26147831E+04</pdfrwt>
<pdfrwt beam="2">  1       -3 0.16321756E+00 0.26147831E+04</pdfrwt>
<totfact> 0.45100464E-02</totfact>
</mgrwt>
</event>
<event>
 6    1  0.1072514E-005  0.2903024E+04  0.7818608E-02  0.8271978E-01
          2   -1    0    0  501    0  0.00000000000E+00  0.00000000000E+00  0.20373865531E+04  0.20373865531E+04  0.00000000000E+00 0. -1.
         -2   -1    0    0    0  501 -0.00000000000E+00 -0.00000000000E+00 -0.10341126601E+04  0.10341126601E+04  0.00000000000E+00 0.  1.
         23    2    1    2    0    0 -0.74313170794E+03  0.11249514863E+04  0.10669003469E+04  0.17217551976E+04  0.91673488878E+02 0.  0.
         13    1    3    3    0    0 -0.71371829213E+03  0.10893884677E+04  0.10488572024E+04  0.16722028780E+04  0.00000000000E+00 0. -1.
        -13    1    3    3    0    0 -0.29413415808E+02  0.35563018586E+02  0.18043144464E+02  0.49552319649E+02  0.00000000000E+00 0.  1.
         22    1    1    2    0    0  0.74313170794E+03 -0.11249514863E+04 -0.63626453775E+02  0.13497440156E+04  0.00000000000E+00 0. -1.
<mgrwt>
<rscale>  0 0.29030241E+04</rscale>
<asrwt>0</asrwt>
<pdfrwt beam="1">  1        2 0.31344408E+00 0.29030241E+04</pdfrwt>
<pdfrwt beam="2">  1       -2 0.15909426E+00 0.29030241E+04</pdfrwt>
<totfact> 0.14057892E+00</totfact>
</mgrwt>
</event>
<event>
 6    1  0.1072514E-005  0.2151078E+04  0.7818608E-02  0.8539071E-01
         -2   -1    0    0    0  501 -0.00000000000E+00  0.00000000000E+00  0.11462768353E+04  0.11462768353E+04  0.00000000000E+00 0.  1.
          2   -1    0    0  501    0  0.00000000000E+00 -0.00000000000E+00 -0.10091660566E+04  0.10091660566E+04  0.00000000000E+00 0. -1.
         23    2    1    2    0    0  0.34784693014E+03  0.55060761987E+03 -0.78669776448E+03  0.10251383036E+04  0.88594193260E+02 0.  0.
         11    1    3    3    0    0  0.96068455984E+02  0.15402948954E+03 -0.16036654267E+03  0.24222233566E+03  0.00000000000E+00 0.  1.
        -11    1    3    3    0    0  0.25177847416E+03  0.39657813032E+03 -0.62633122181E+03  0.78291596797E+03  0.00000000000E+00 0. -1.
         22    1    1    2    0    0 -0.34784693014E+03 -0.55060761987E+03  0.92380854322E+03  0.11303045883E+04  0.00000000000E+00 0.  1.
<mgrwt>
<rscale>  0 0.21510776E+04</rscale>
<asrwt>0</asrwt>
<pdfrwt beam="1">  1        2 0.15525632E+00 0.21510776E+04</pdfrwt>
<pdfrwt beam="2">  1       -2 0.17635028E+00 0.21510776E+04</pdfrwt>
<totfact> 0.43831675E+00</totfact>
</mgrwt>
</event>
<event>
 6    1  0.1072514E-005  0.8033869E+03  0.7818608E-02  0.9555128E-01
         -2   -1    0    0    0  501 -0.00000000000E+00  0.00000000000E+00  0.53427251890E+03  0.53427251890E+03  0.00000000000E+00 0.  1.
          2   -1    0    0  501    0  0.00000000000E+00 -0.00000000000E+00 -0.30201374758E+03  0.30201374758E+03  0.00000000000E+00 0. -1.
         23    2    1    2    0    0  0.73938630560E+02  0.38626399808E+03  0.17067931063E+03  0.43821739394E+03  0.90753842732E+02 0.  0.
         13    1    3    3    0    0 -0.31421345286E+01  0.19475523012E+03  0.59075161413E+02  0.20354200393E+03  0.00000000000E+00 0. -1.
        -13    1    3    3    0    0  0.77080765089E+02  0.19150876796E+03  0.11160414922E+03  0.23467539001E+03  0.00000000000E+00 0.  1.
         22    1    1    2    0    0 -0.73938630560E+02 -0.38626399808E+03  0.61579460691E+02  0.39806887254E+03  0.00000000000E+00 0. -1.
<mgrwt>
<rscale>  0 0.80338694E+03</rscale>
<asrwt>0</asrwt>
<pdfrwt beam="1">  1        2 0.46463653E-01 0.80338694E+03</pdfrwt>
<pdfrwt beam="2">  1       -2 0.82195772E-01 0.80338694E+03</pdfrwt>
<totfact> 0.14275622E+02</totfact>
</mgrwt>
</event>
<event>
 6    1  0.1072514E-005  0.4908185E+04  0.7818608E-02  0.7842829E-01
         -2   -1    0    0    0  501 -0.00000000000E+00  0.00000000000E+00  0.14946878361E+04  0.14946878361E+04  0.00000000000E+00 0.  1.
          2   -1    0    0  501    0  0.00000000000E+00 -0.00000000000E+00 -0.40293159422E+04  0.40293159422E+04  0.00000000000E+00 0. -1.
         23    2    1    2    0    0 -0.23558492475E+04 -0.46757563158E+03 -0.18300976951E+04  0.30210024303E+04  0.92441668880E+02 0.  0.
         11    1    3    3    0    0 -0.19062374423E+04 -0.41496350994E+03 -0.14902167649E+04  0.24549301227E+04  0.00000000000E+00 0.  1.
        -11    1    3    3    0    0 -0.44961180519E+03 -0.52612121648E+02 -0.33988093016E+03  0.56607230757E+03  0.00000000000E+00 0. -1.
         22    1    1    2    0    0  0.23558492475E+04  0.46757563158E+03 -0.70453041101E+03  0.25030013480E+04  0.00000000000E+00 0.  1.
<mgrwt>
<rscale>  0 0.49081848E+04</rscale>
<asrwt>0</asrwt>
<pdfrwt beam="1">  1        2 0.61989476E+00 0.49081848E+04</pdfrwt>
<pdfrwt beam="2">  1       -2 0.22995198E+00 0.49081848E+04</pdfrwt>
<totfact> 0.20220735E-02</totfact>
</mgrwt>
</event>
<event>
 6    1  0.1072514E-005  0.3055709E+04  0.7818608E-02  0.8227999E-01
         -2   -1    0    0    0  501 -0.00000000000E+00  0.00000000000E+00  0.76293108176E+03  0.76293108176E+03  0.00000000000E+00 0.  1.
          2   -1    0    0  501    0  0.00000000000E+00 -0.00000000000E+00 -0.30596996088E+04  0.30596996088E+04  0.00000000000E+00 0. -1.
         23    2    1    2    0    0 -0.69815680027E+03  0.97002987543E+03  0.38470796565E+02  0.11993267479E+04  0.92324260475E+02 0.  0.
         13    1    3    3    0    0 -0.47715596399E+03  0.69427766885E+03  0.65048575307E+02  0.84494414761E+03  0.00000000000E+00 0. -1.
        -13    1    3    3    0    0 -0.22100083628E+03  0.27575220658E+03 -0.26577778742E+02  0.35438260030E+03  0.00000000000E+00 0.  1.
         22    1    1    2    0    0  0.69815680027E+03 -0.97002987543E+03 -0.23352393236E+04  0.26233039426E+04  0.00000000000E+00 0. -1.
<mgrwt>
<rscale>  0 0.30557094E+04</rscale>
<asrwt>0</asrwt>
<pdfrwt beam="1">  1        2 0.47072301E+00 0.30557094E+04</pdfrwt>
<pdfrwt beam="2">  1       -2 0.11737402E+00 0.30557094E+04</pdfrwt>
<totfact> 0.76248831E-01</totfact>
</mgrwt>
</event>
<event>
 6    1  0.1072514E-005  0.1268944E+04  0.7818608E-02  0.9054562E-01
         -2   -1    0    0    0  501 -0.00000000000E+00  0.00000000000E+00  0.16066127291E+03  0.16066127291E+03  0.00000000000E+00 0.  1.
          2   -1    0    0  501    0  0.00000000000E+00 -0.00000000000E+00 -0.25056106557E+04  0.25056106557E+04  0.00000000000E+00 0. -1.
         23    2    1    2    0    0 -0.11228626649E+03  0.52668448674E+03 -0.48692579153E+03  0.73178067252E+03  0.91659544001E+02 0.  0.
         11    1    3    3    0    0 -0.65225543110E+02  0.21965182305E+03 -0.26329206849E+03  0.34903296144E+03  0.00000000000E+00 0.  1.
        -11    1    3    3    0    0 -0.47060723382E+02  0.30703266369E+03 -0.22363372304E+03  0.38274771108E+03  0.00000000000E+00 0. -1.
         22    1    1    2    0    0  0.11228626649E+03 -0.52668448674E+03 -0.18580235912E+04  0.19344912561E+04  0.00000000000E+00 0. -1.
<mgrwt>
<rscale>  0 0.12689438E+04</rscale>
<asrwt>0</asrwt>
<pdfrwt beam="1">  1        2 0.38547855E+00 0.12689438E+04</pdfrwt>
<pdfrwt beam="2">  1       -2 0.24717120E-01 0.12689438E+04</pdfrwt>
<totfact> 0.49965338E+01</totfact>
</mgrwt>
</event>
<event>
 6    1  0.1072514E-005  0.1076359E+04  0.7818608E-02  0.9228545E-01
          2   -1    0    0  501    0  0.00000000000E+00  0.00000000000E+00  0.21920440824E+04  0.21920440824E+04  0.00000000000E+00 0. -1.
         -2   -1    0    0    0  501 -0.00000000000E+00 -0.00000000000E+00 -0.13213108025E+03  0.13213108025E+03  0.00000000000E+00 0.  1.
         23    2    1    2    0    0 -0.16337220815E+03  0.44884922457E+03  0.52086798806E+03  0.71271133737E+03  0.92183971673E+02 0.  0.
         11    1    3    3    0    0 -0.81452779029E+02  0.26669220304E+03  0.23904616317E+03  0.36729055869E+03  0.00000000000E+00 0.  1.
        -11    1    3    3    0    0 -0.81919429122E+02  0.18215702153E+03  0.28182182489E+03  0.34542077868E+03  0.00000000000E+00 0. -1.
         22    1    1    2    0    0  0.16337220815E+03 -0.44884922457E+03  0.15390450141E+04  0.16114638252E+04  0.00000000000E+00 0. -1.
<mgrwt>
<rscale>  0 0.10763590E+04</rscale>
<asrwt>0</asrwt>
<pdfrwt beam="1">  1        2 0.33723752E+00 0.10763590E+04</pdfrwt>
<pdfrwt beam="2">  1       -2 0.20327860E-01 0.10763590E+04</pdfrwt>
<totfact> 0.10825709E+02</totfact>
</mgrwt>
</event>
<event>
 6    1  0.1072514E-005  0.1580184E+04  0.7818608E-02  0.8832815E-01
         -2   -1    0    0    0  501 -0.00000000000E+00  0.00000000000E+00  0.24798851831E+03  0.24798851831E+03  0.00000000000E+00 0.  1.
          2   -1    0    0  501    0  0.00000000000E+00 -0.00000000000E+00 -0.25172353927E+04  0.25172353927E+04  0.00000000000E+00 0. -1.
         23    2    1    2    0    0 -0.39391910983E+01  0.63588566726E+03 -0.19511955380E+04  0.20542226792E+04  0.91108117969E+02 0.  0.
         11    1    3    3    0    0 -0.62110507800E+01  0.31947637404E+03 -0.11253274829E+04  0.11698143760E+04  0.00000000000E+00 0.  1.
        -11    1    3    3    0    0  0.22718596817E+01  0.31640929321E+03 -0.82586805512E+03  0.88440830313E+03  0.00000000000E+00 0. -1.
         22    1    1    2    0    0  0.39391910983E+01 -0.63588566726E+03 -0.31805133637E+03  0.71100123179E+03  0.00000000000E+00 0.  1.
<mgrwt>
<rscale>  0 0.15801841E+04</rscale>
<asrwt>0</asrwt>
<pdfrwt beam="1">  1        2 0.38726699E+00 0.15801841E+04</pdfrwt>
<pdfrwt beam="2">  1       -2 0.38152079E-01 0.15801841E+04</pdfrwt>
<totfact> 0.21241481E+01</totfact>
</mgrwt>
</event>
<event>
 6    1  0.1072514E-005  0.1613903E+04  0.7818608E-02  0.8812052E-01
          2   -1    0    0  501    0  0.00000000000E+00  0.00000000000E+00  0.29672940260E+04  0.29672940260E+04  0.00000000000E+00 0. -1.
         -2   -1    0    0    0  501 -0.00000000000E+00 -0.00000000000E+00 -0.21944937724E+03  0.21944937724E+03  0.00000000000E+00 0.  1.
         23    2    1    2    0    0 -0.79475003733E+03 -0.10041839758E+03  0.12354997073E+04  0.14753408503E+04  0.91976199526E+02 0.  0.
         11    1    3    3    0    0 -0.11888904616E+03 -0.42401874215E+02  0.16016582808E+03  0.20392551758E+03  0.00000000000E+00 0.  1.
        -11    1    3    3    0    0 -0.67586099117E+03 -0.58016523365E+02  0.10753338793E+04  0.12714153327E+04  0.00000000000E+00 0. -1.
         22    1    1    2    0    0  0.79475003733E+03  0.10041839758E+03  0.15123449415E+04  0.17114025530E+04  0.00000000000E+00 0. -1.
<mgrwt>
<rscale>  0 0.16139031E+04</rscale>
<asrwt>0</asrwt>
<pdfrwt beam="1">  1        2 0.45650674E+00 0.16139031E+04</pdfrwt>
<pdfrwt beam="2">  1       -2 0.33761445E-01 0.16139031E+04</pdfrwt>
<totfact> 0.14426714E+01</totfact>
</mgrwt>
</event>
<event>
 6    1  0.1072514E-005  0.6092714E+04  0.7818608E-02  0.7679012E-01
         -1   -1    0    0    0  501 -0.00000000000E+00  0.00000000000E+00  0.36392174445E+04  0.36392174445E+04  0.00000000000E+00 0.  1.
          1   -1    0    0  501    0  0.00000000000E+00 -0.00000000000E+00 -0.25500788920E+04  0.25500788920E+04  0.00000000000E+00 0. -1.
         23    2    1    2    0    0  0.11375818461E+04  0.13959489531E+04  0.30401644991E+04  0.35342505402E+04  0.74570522698E+02 0.  0.
         13    1    3    3    0    0  0.67083404816E+03  0.81797187257E+03  0.17138030939E+04  0.20140053001E+04  0.00000000000E+00 0.  1.
        -13    1    3    3    0    0  0.46674779789E+03  0.57797708049E+03  0.13263614053E+04  0.15202452400E+04  0.00000000000E+00 0. -1.
         22    1    1    2    0    0 -0.11375818461E+04 -0.13959489531E+04 -0.19510259466E+04  0.26550457963E+04  0.00000000000E+00 0. -1.
<mgrwt>
<rscale>  0 0.60927142E+04</rscale>
<asrwt>0</asrwt>
<pdfrwt beam="1">  1        1 0.39231983E+00 0.60927142E+04</pdfrwt>
<pdfrwt beam="2">  1       -1 0.55987960E+00 0.60927142E+04</pdfrwt>
<totfact> 0.56411504E-04</totfact>
</mgrwt>
</event>
<event>
 6    1  0.1072514E-005  0.1522830E+04  0.7818608E-02  0.8869412E-01
         -1   -1    0    0    0  501 -0.00000000000E+00  0.00000000000E+00  0.59433837777E+03  0.59433837777E+03  0.00000000000E+00 0. -1.
          1   -1    0    0  501    0  0.00000000000E+00 -0.00000000000E+00 -0.97545917047E+03  0.97545917047E+03  0.00000000000E+00 0.  1.
         23    2    1    2    0    0 -0.10751651727E+03 -0.48624778603E+03 -0.78117469975E+03  0.93101758656E+03  0.92537149560E+02 0.  0.
         13    1    3    3    0    0 -0.14566798803E+02 -0.27750742255E+03 -0.41824785478E+03  0.50214921012E+03  0.00000000000E+00 0.  1.
        -13    1    3    3    0    0 -0.92949718463E+02 -0.20874036348E+03 -0.36292684497E+03  0.42886837644E+03  0.00000000000E+00 0. -1.
         22    1    1    2    0    0  0.10751651727E+03  0.48624778603E+03  0.40005390705E+03  0.63877996168E+03  0.00000000000E+00 0. -1.
<mgrwt>
<rscale>  0 0.15228300E+04</rscale>
<asrwt>0</asrwt>
<pdfrwt beam="1">  1        1 0.15007064E+00 0.15228300E+04</pdfrwt>
<pdfrwt beam="2">  1       -1 0.91436673E-01 0.15228300E+04</pdfrwt>
<totfact> 0.17819012E+01</totfact>
</mgrwt>
</event>
<event>
 6    1  0.1072514E-005  0.5429824E+04  0.7818608E-02  0.7765420E-01
          1   -1    0    0  501    0  0.00000000000E+00  0.00000000000E+00  0.23968891748E+04  0.23968891748E+04  0.00000000000E+00 0. -1.
         -1   -1    0    0    0  501 -0.00000000000E+00 -0.00000000000E+00 -0.30751304172E+04  0.30751304172E+04  0.00000000000E+00 0.  1.
         23    2    1    2    0    0  0.24959425050E+04 -0.54121641943E+03  0.58647402967E+03  0.26220811857E+04  0.93347500859E+02 0.  0.
         11    1    3    3    0    0  0.65657063211E+03 -0.17868480313E+03  0.17781178581E+03  0.70329956988E+03  0.00000000000E+00 0. -1.
        -11    1    3    3    0    0  0.18393718729E+04 -0.36253161630E+03  0.40866224385E+03  0.19187816158E+04  0.00000000000E+00 0.  1.
         22    1    1    2    0    0 -0.24959425050E+04  0.54121641943E+03 -0.12647152720E+04  0.28499384064E+04  0.00000000000E+00 0.  1.
<mgrwt>
<rscale>  0 0.54298239E+04</rscale>
<asrwt>0</asrwt>
<pdfrwt beam="1">  1        1 0.36875218E+00 0.54298239E+04</pdfrwt>
<pdfrwt beam="2">  1       -1 0.47309699E+00 0.54298239E+04</pdfrwt>
<totfact> 0.25182768E-03</totfact>
</mgrwt>
</event>
<event>
 6    1  0.1072514E-005  0.2747338E+04  0.7818608E-02  0.8319807E-01
         -2   -1    0    0    0  501 -0.00000000000E+00  0.00000000000E+00  0.12962768647E+04  0.12962768647E+04  0.00000000000E+00 0.  1.
          2   -1    0    0  501    0  0.00000000000E+00 -0.00000000000E+00 -0.14556812954E+04  0.14556812954E+04  0.00000000000E+00 0. -1.
         23    2    1    2    0    0  0.72176786488E+02  0.13055177880E+04 -0.49655746974E+03  0.14016773170E+04  0.92432660944E+02 0.  0.
         11    1    3    3    0    0  0.16873233677E+02  0.71148651655E+03 -0.31302981265E+03  0.77748661266E+03  0.00000000000E+00 0. -1.
        -11    1    3    3    0    0  0.55303552811E+02  0.59403127149E+03 -0.18352765709E+03  0.62419070433E+03  0.00000000000E+00 0.  1.
         22    1    1    2    0    0 -0.72176786488E+02 -0.13055177880E+04  0.33715303907E+03  0.13502808431E+04  0.00000000000E+00 0. -1.
<mgrwt>
<rscale>  0 0.27473376E+04</rscale>
<asrwt>0</asrwt>
<pdfrwt beam="1">  1        2 0.22395097E+00 0.27473376E+04</pdfrwt>
<pdfrwt beam="2">  1       -2 0.19942721E+00 0.27473376E+04</pdfrwt>
<totfact> 0.15770330E+00</totfact>
</mgrwt>
</event>
<event>
 6    1  0.1072514E-005  0.3754322E+04  0.7818608E-02  0.8056029E-01
         -2   -1    0    0    0  501 -0.00000000000E+00  0.00000000000E+00  0.12612777020E+04  0.12612777020E+04  0.00000000000E+00 0. -1.
          2   -1    0    0  501    0  0.00000000000E+00 -0.00000000000E+00 -0.27937808560E+04  0.27937808560E+04  0.00000000000E+00 0.  1.
         23    2    1    2    0    0 -0.10401044632E+04  0.30926764070E+03 -0.24196957712E+04  0.26534257573E+04  0.90977228264E+02 0.  0.
         13    1    3    3    0    0 -0.24258677951E+03  0.33861795967E+02 -0.56830651338E+03  0.61884348584E+03  0.00000000000E+00 0.  1.
        -13    1    3    3    0    0 -0.79751768370E+03  0.27540584473E+03 -0.18513892579E+04  0.20345822714E+04  0.00000000000E+00 0. -1.
         22    1    1    2    0    0  0.10401044632E+04 -0.30926764070E+03  0.88719261723E+03  0.14016328007E+04  0.00000000000E+00 0. -1.
<mgrwt>
<rscale>  0 0.37543220E+04</rscale>
<asrwt>0</asrwt>
<pdfrwt beam="1">  1        2 0.42981243E+00 0.37543220E+04</pdfrwt>
<pdfrwt beam="2">  1       -2 0.19404273E+00 0.37543220E+04</pdfrwt>
<totfact> 0.27331296E-01</totfact>
</mgrwt>
</event>
<event>
 6    1  0.1072514E-005  0.4719319E+04  0.7818608E-02  0.7873327E-01
          1   -1    0    0  501    0  0.00000000000E+00  0.00000000000E+00  0.35452541492E+04  0.35452541492E+04  0.00000000000E+00 0. -1.
         -1   -1    0    0    0  501 -0.00000000000E+00 -0.00000000000E+00 -0.15705481690E+04  0.15705481690E+04  0.00000000000E+00 0.  1.
         23    2    1    2    0    0 -0.22771102235E+04 -0.42272561719E+03  0.50269866130E+03  0.23715841301E+04  0.88189708399E+02 0.  0.
         13    1    3    3    0    0 -0.13089974788E+04 -0.27049292987E+03  0.25504148022E+03  0.13607670562E+04  0.00000000000E+00 0.  1.
        -13    1    3    3    0    0 -0.96811274465E+03 -0.15223268732E+03  0.24765718108E+03  0.10108170738E+04  0.00000000000E+00 0. -1.
         22    1    1    2    0    0  0.22771102235E+04  0.42272561719E+03  0.14720073190E+04  0.27442181882E+04  0.00000000000E+00 0. -1.
<mgrwt>
<rscale>  0 0.47193188E+04</rscale>
<asrwt>0</asrwt>
<pdfrwt beam="1">  1        1 0.54542371E+00 0.47193188E+04</pdfrwt>
<pdfrwt beam="2">  1       -1 0.24162280E+00 0.47193188E+04</pdfrwt>
<totfact> 0.13417610E-02</totfact>
</mgrwt>
</event>
<event>
 6    1  0.1072514E-005  0.1628981E+04  0.7818608E-02  0.8802939E-01
          2   -1    0    0  501    0  0.00000000000E+00  0.00000000000E+00  0.14656239698E+04  0.14656239698E+04  0.00000000000E+00 0. -1.
         -2   -1    0    0    0  501 -0.00000000000E+00 -0.00000000000E+00 -0.45263651407E+03  0.45263651407E+03  0.00000000000E+00 0.  1.
         23    2    1    2    0    0  0.76815987472E+03  0.25552635032E+03  0.43507093938E+03  0.92359933116E+03  0.91573431631E+02 0.  0.
         13    1    3    3    0    0  0.45733864216E+03  0.15101250054E+03  0.20735592895E+03  0.52436617950E+03  0.00000000000E+00 0. -1.
        -13    1    3    3    0    0  0.31082123256E+03  0.10451384978E+03  0.22771501043E+03  0.39923315166E+03  0.00000000000E+00 0.  1.
         22    1    1    2    0    0 -0.76815987472E+03 -0.25552635032E+03  0.57791651635E+03  0.99466115271E+03  0.00000000000E+00 0.  1.
<mgrwt>
<rscale>  0 0.16289812E+04</rscale>
<asrwt>0</asrwt>
<pdfrwt beam="1">  1        2 0.22548061E+00 0.16289812E+04</pdfrwt>
<pdfrwt beam="2">  1       -2 0.69636387E-01 0.16289812E+04</pdfrwt>
<totfact> 0.23881774E+01</totfact>
</mgrwt>
</event>
<event>
 6    1  0.1072514E-005  0.2960390E+04  0.7818608E-02  0.8255133E-01
         -2   -1    0    0    0  501 -0.00000000000E+00  0.00000000000E+00  0.46237692603E+03  0.46237692603E+03  0.00000000000E+00 0.  1.
          2   -1    0    0  501    0  0.00000000000E+00 -0.00000000000E+00 -0.47385101251E+04  0.47385101251E+04  0.00000000000E+00 0. -1.
         23    2    1    2    0    0 -0.10112505469E+04  0.53578640754E+03 -0.49391613590E+03  0.12493227209E+04  0.84613052179E+02 0.  0.
         11    1    3    3    0    0 -0.74928478171E+03  0.36093647145E+03 -0.38013350446E+03  0.91444207128E+03  0.00000000000E+00 0.  1.
        -11    1    3    3    0    0 -0.26196576516E+03  0.17484993609E+03 -0.11378263144E+03  0.33488064962E+03  0.00000000000E+00 0. -1.
         22    1    1    2    0    0  0.10112505469E+04 -0.53578640754E+03 -0.37822170632E+04  0.39515643302E+04  0.00000000000E+00 0.  1.
<mgrwt>
<rscale>  0 0.29603903E+04</rscale>
<asrwt>0</asrwt>
<pdfrwt beam="1">  1        2 0.72900155E+00 0.29603903E+04</pdfrwt>
<pdfrwt beam="2">  1       -2 0.71134912E-01 0.29603903E+04</pdfrwt>
<totfact> 0.10738846E-01</totfact>
</mgrwt>
</event>
<event>
 6    1  0.1072514E-005  0.1634803E+04  0.7818608E-02  0.8799448E-01
         -1   -1    0    0    0  501 -0.00000000000E+00  0.00000000000E+00  0.10400288855E+04  0.10400288855E+04  0.00000000000E+00 0.  1.
          1   -1    0    0  501    0  0.00000000000E+00 -0.00000000000E+00 -0.64242925403E+03  0.64242925403E+03  0.00000000000E+00 0. -1.
         23    2    1    2    0    0  0.71839367894E+03  0.56410857522E+02  0.59078965716E+03  0.93640582986E+03  0.92475923391E+02 0.  0.
         11    1    3    3    0    0  0.34822897477E+03  0.58450705152E+02  0.24430260847E+03  0.42937590559E+03  0.00000000000E+00 0. -1.
        -11    1    3    3    0    0  0.37016470417E+03 -0.20398476297E+01  0.34648704869E+03  0.50702992426E+03  0.00000000000E+00 0.  1.
         22    1    1    2    0    0 -0.71839367894E+03 -0.56410857522E+02 -0.19319002567E+03  0.74605230969E+03  0.00000000000E+00 0.  1.
<mgrwt>
<rscale>  0 0.16348027E+04</rscale>
<asrwt>0</asrwt>
<pdfrwt beam="1">  1        1 0.98835270E-01 0.16348027E+04</pdfrwt>
<pdfrwt beam="2">  1       -1 0.16000444E+00 0.16348027E+04</pdfrwt>
<totfact> 0.86644236E+00</totfact>
</mgrwt>
</event>
<event>
 6    1  0.1072514E-005  0.1162475E+04  0.7818608E-02  0.9146352E-01
         -2   -1    0    0    0  501 -0.00000000000E+00  0.00000000000E+00  0.64996159589E+03  0.64996159589E+03  0.00000000000E+00 0.  1.
          2   -1    0    0  501    0  0.00000000000E+00 -0.00000000000E+00 -0.51977961496E+03  0.51977961496E+03  0.00000000000E+00 0. -1.
         23    2    1    2    0    0 -0.36048170793E+03  0.19055367919E+02  0.51929065959E+03  0.63897220967E+03  0.91173059577E+02 0.  0.
         13    1    3    3    0    0 -0.35357899783E+03  0.62052838595E+01  0.47394294770E+03  0.59133622494E+03  0.00000000000E+00 0. -1.
        -13    1    3    3    0    0 -0.69027100978E+01  0.12850084059E+02  0.45347711893E+02  0.47635984728E+02  0.00000000000E+00 0.  1.
         22    1    1    2    0    0  0.36048170793E+03 -0.19055367919E+02 -0.38910867867E+03  0.53076900118E+03  0.00000000000E+00 0. -1.
<mgrwt>
<rscale>  0 0.11624746E+04</rscale>
<asrwt>0</asrwt>
<pdfrwt beam="1">  1        2 0.79966095E-01 0.11624746E+04</pdfrwt>
<pdfrwt beam="2">  1       -2 0.99994092E-01 0.11624746E+04</pdfrwt>
<totfact> 0.48098528E+01</totfact>
</mgrwt>
</event>
<event>
 6    1  0.1072514E-005  0.8088936E+03  0.7818608E-02  0.9547232E-01
         -1   -1    0    0    0  501 -0.00000000000E+00  0.00000000000E+00  0.16159407653E+03  0.16159407653E+03  0.00000000000E+00 0.  1.
          1   -1    0    0  501    0  0.00000000000E+00 -0.00000000000E+00 -0.10122723278E+04  0.10122723278E+04  0.00000000000E+00 0. -1.
         23    2    1    2    0    0 -0.23403016595E+03  0.32190560634E+03 -0.38131965264E+03  0.55848779559E+03  0.90058882806E+02 0.  0.
         11    1    3    3    0    0 -0.15936114836E+03  0.22857763046E+03 -0.31945244140E+03  0.42390278493E+03  0.00000000000E+00 0. -1.
        -11    1    3    3    0    0 -0.74669017593E+02  0.93327975879E+02 -0.61867211238E+02  0.13458501067E+03  0.00000000000E+00 0.  1.
         22    1    1    2    0    0  0.23403016595E+03 -0.32190560634E+03 -0.46935859859E+03  0.61537860870E+03  0.00000000000E+00 0. -1.
<mgrwt>
<rscale>  0 0.80889359E+03</rscale>
<asrwt>0</asrwt>
<pdfrwt beam="1">  1        1 0.15573421E+00 0.80889359E+03</pdfrwt>
<pdfrwt beam="2">  1       -1 0.24860627E-01 0.80889359E+03</pdfrwt>
<totfact> 0.21131833E+02</totfact>
</mgrwt>
</event>
<event>
 6    1  0.1072514E-005  0.1979498E+04  0.7818608E-02  0.8616267E-01
          2   -1    0    0  501    0  0.00000000000E+00  0.00000000000E+00  0.22606614980E+04  0.22606614980E+04  0.00000000000E+00 0. -1.
         -2   -1    0    0    0  501 -0.00000000000E+00 -0.00000000000E+00 -0.43332565659E+03  0.43332565659E+03  0.00000000000E+00 0.  1.
         23    2    1    2    0    0  0.68934558781E+02  0.65266747840E+03 -0.88848591970E+02  0.66852681346E+03  0.91143937073E+02 0.  0.
         13    1    3    3    0    0  0.54367905153E+02  0.25880488438E+03 -0.71794867769E+02  0.27402616724E+03  0.00000000000E+00 0.  1.
        -13    1    3    3    0    0  0.14566653628E+02  0.39386259401E+03 -0.17053724201E+02  0.39450064622E+03  0.00000000000E+00 0. -1.
         22    1    1    2    0    0 -0.68934558781E+02 -0.65266747840E+03  0.19161844334E+04  0.20254603412E+04  0.00000000000E+00 0. -1.
<mgrwt>
<rscale>  0 0.19794975E+04</rscale>
<asrwt>0</asrwt>
<pdfrwt beam="1">  1        2 0.34779407E+00 0.19794975E+04</pdfrwt>
<pdfrwt beam="2">  1       -2 0.66665487E-01 0.19794975E+04</pdfrwt>
<totfact> 0.91817401E+00</totfact>
</mgrwt>
</event>
<event>
 6    1  0.1072514E-005  0.2917860E+04  0.7818608E-02  0.8267583E-01
          1   -1    0    0  501    0  0.00000000000E+00  0.00000000000E+00  0.41502282389E+04  0.41502282389E+04  0.00000000000E+00 0. -1.
         -1   -1    0    0    0  501 -0.00000000000E+00 -0.00000000000E+00 -0.51285787473E+03  0.51285787473E+03  0.00000000000E+00 0.  1.
         23    2    1    2    0    0 -0.44680444102E+02  0.11299069141E+04  0.35104120824E+03  0.11876515656E+04  0.92737989001E+02 0.  0.
         13    1    3    3    0    0 -0.68843100731E+02  0.79575439900E+03  0.22641774509E+03  0.83019842889E+03  0.00000000000E+00 0. -1.
        -13    1    3    3    0    0  0.24162656629E+02  0.33415251515E+03  0.12462346315E+03  0.35745313668E+03  0.00000000000E+00 0.  1.
         22    1    1    2    0    0  0.44680444102E+02 -0.11299069141E+04  0.32863291559E+04  0.34754345480E+04  0.00000000000E+00 0. -1.
<mgrwt>
<rscale>  0 0.29178603E+04</rscale>
<asrwt>0</asrwt>
<pdfrwt beam="1">  1        1 0.63849663E+00 0.29178603E+04</pdfrwt>
<pdfrwt beam="2">  1       -1 0.78901214E-01 0.29178603E+04</pdfrwt>
<totfact> 0.96798471E-02</totfact>
</mgrwt>
</event>
<event>
 6    1  0.1072514E-005  0.4029916E+04  0.7818608E-02  0.7998539E-01
         -1   -1    0    0    0  501 -0.00000000000E+00  0.00000000000E+00  0.14075396670E+04  0.14075396670E+04  0.00000000000E+00 0. -1.
          1   -1    0    0  501    0  0.00000000000E+00 -0.00000000000E+00 -0.28845058131E+04  0.28845058131E+04  0.00000000000E+00 0.  1.
         23    2    1    2    0    0  0.44931754938E+03 -0.11050999653E+04  0.98946452324E+03  0.15522621966E+04  0.85707006189E+02 0.  0.
         13    1    3    3    0    0  0.16842344892E+03 -0.52509340197E+03  0.46801765370E+03  0.72327730720E+03  0.00000000000E+00 0. -1.
        -13    1    3    3    0    0  0.28089410045E+03 -0.58000656330E+03  0.52144686954E+03  0.82898488942E+03  0.00000000000E+00 0.  1.
         22    1    1    2    0    0 -0.44931754938E+03  0.11050999653E+04 -0.24664306694E+04  0.27397832835E+04  0.00000000000E+00 0.  1.
<mgrwt>
<rscale>  0 0.40299163E+04</rscale>
<asrwt>0</asrwt>
<pdfrwt beam="1">  1        1 0.44377012E+00 0.40299163E+04</pdfrwt>
<pdfrwt beam="2">  1       -1 0.21654457E+00 0.40299163E+04</pdfrwt>
<totfact> 0.65682280E-02</totfact>
</mgrwt>
</event>
<event>
 6    1  0.1072514E-005  0.4007197E+03  0.7818608E-02  0.1043531E+00
         -4   -1    0    0    0  501 -0.00000000000E+00  0.00000000000E+00  0.97056369266E+02  0.97056369266E+02  0.00000000000E+00 0. -1.
          4   -1    0    0  501    0  0.00000000000E+00 -0.00000000000E+00 -0.41361595551E+03  0.41361595551E+03  0.00000000000E+00 0.  1.
         23    2    1    2    0    0 -0.21567706465E+02  0.11222502850E+03 -0.36165180972E+03  0.38781903177E+03  0.80944097660E+02 0.  0.
         11    1    3    3    0    0  0.87133299180E+01  0.10634269111E+03 -0.24639054791E+03  0.26850138206E+03  0.00000000000E+00 0.  1.
        -11    1    3    3    0    0 -0.30281036383E+02  0.58823373905E+01 -0.11526126181E+03  0.11931764971E+03  0.00000000000E+00 0. -1.
         22    1    1    2    0    0  0.21567706465E+02 -0.11222502850E+03  0.45092223475E+02  0.12285329301E+03  0.00000000000E+00 0. -1.
<mgrwt>
<rscale>  0 0.40071967E+03</rscale>
<asrwt>0</asrwt>
<pdfrwt beam="1">  1        4 0.63633225E-01 0.40071967E+03</pdfrwt>
<pdfrwt beam="2">  1       -4 0.14931749E-01 0.40071967E+03</pdfrwt>
<totfact> 0.17255409E+02</totfact>
</mgrwt>
</event>
<event>
 6    1  0.1072514E-005  0.2937878E+04  0.7818608E-02  0.8261696E-01
         -2   -1    0    0    0  501 -0.00000000000E+00  0.00000000000E+00  0.11290578330E+04  0.11290578330E+04  0.00000000000E+00 0.  1.
          2   -1    0    0  501    0  0.00000000000E+00 -0.00000000000E+00 -0.19111342266E+04  0.19111342266E+04  0.00000000000E+00 0. -1.
         23    2    1    2    0    0 -0.50331605914E+03  0.43867311662E+03 -0.17437409775E+04  0.18694829026E+04  0.92588162383E+02 0.  0.
         11    1    3    3    0    0 -0.15621129820E+03  0.12702819222E+03 -0.41558726266E+03  0.46179097457E+03  0.00000000000E+00 0.  1.
        -11    1    3    3    0    0 -0.34710476094E+03  0.31164492440E+03 -0.13281537148E+04  0.14076919280E+04  0.00000000000E+00 0. -1.
         22    1    1    2    0    0  0.50331605914E+03 -0.43867311662E+03  0.96166458380E+03  0.11707091570E+04  0.00000000000E+00 0.  1.
<mgrwt>
<rscale>  0 0.29378775E+04</rscale>
<asrwt>0</asrwt>
<pdfrwt beam="1">  1        2 0.29402065E+00 0.29378775E+04</pdfrwt>
<pdfrwt beam="2">  1       -2 0.17370121E+00 0.29378775E+04</pdfrwt>
<totfact> 0.12925891E+00</totfact>
</mgrwt>
</event>
<event>
 6    1  0.1072514E-005  0.8595638E+03  0.7818608E-02  0.9477590E-01
         -2   -1    0    0    0  501 -0.00000000000E+00  0.00000000000E+00  0.14948537803E+03  0.14948537803E+03  0.00000000000E+00 0.  1.
          2   -1    0    0  501    0  0.00000000000E+00 -0.00000000000E+00 -0.12356558877E+04  0.12356558877E+04  0.00000000000E+00 0. -1.
         23    2    1    2    0    0 -0.92530983682E+02  0.28572517073E+03 -0.64644543967E+02  0.32038018701E+03  0.90904846048E+02 0.  0.
         13    1    3    3    0    0 -0.53166307273E+02  0.25509726995E+03 -0.71057231612E+02  0.27009332374E+03  0.00000000000E+00 0.  1.
        -13    1    3    3    0    0 -0.39364676408E+02  0.30627900784E+02  0.64126876447E+01  0.50286863275E+02  0.00000000000E+00 0. -1.
         22    1    1    2    0    0  0.92530983682E+02 -0.28572517073E+03 -0.10215259657E+04  0.10647610787E+04  0.00000000000E+00 0. -1.
<mgrwt>
<rscale>  0 0.85956381E+03</rscale>
<asrwt>0</asrwt>
<pdfrwt beam="1">  1        2 0.19010090E+00 0.85956381E+03</pdfrwt>
<pdfrwt beam="2">  1       -2 0.22997751E-01 0.85956381E+03</pdfrwt>
<totfact> 0.30162607E+02</totfact>
</mgrwt>
</event>
<event>
 6    1  0.1072514E-005  0.3913446E+04  0.7818608E-02  0.8022239E-01
         -2   -1    0    0    0  501 -0.00000000000E+00  0.00000000000E+00  0.14040501314E+04  0.14040501314E+04  0.00000000000E+00 0.  1.
          2   -1    0    0  501    0  0.00000000000E+00 -0.00000000000E+00 -0.27269428480E+04  0.27269428480E+04  0.00000000000E+00 0. -1.
         23    2    1    2    0    0 -0.12523987441E+04  0.83623912716E+03 -0.19789479960E+04  0.24883709834E+04  0.89199148319E+02 0.  0.
         11    1    3    3    0    0 -0.81554947086E+03  0.51206449727E+03 -0.13188475100E+04  0.16330002276E+04  0.00000000000E+00 0. -1.
        -11    1    3    3    0    0 -0.43684927325E+03  0.32417462989E+03 -0.66010048602E+03  0.85537075578E+03  0.00000000000E+00 0.  1.
         22    1    1    2    0    0  0.12523987441E+04 -0.83623912716E+03  0.65605527945E+03  0.16426219960E+04  0.00000000000E+00 0.  1.
<mgrwt>
<rscale>  0 0.39134458E+04</rscale>
<asrwt>0</asrwt>
<pdfrwt beam="1">  1        2 0.41952966E+00 0.39134458E+04</pdfrwt>
<pdfrwt beam="2">  1       -2 0.21600772E+00 0.39134458E+04</pdfrwt>
<totfact> 0.21296495E-01</totfact>
</mgrwt>
</event>
<event>
 6    1  0.1072514E-005  0.2301322E+04  0.7818608E-02  0.8477400E-01
          2   -1    0    0  501    0  0.00000000000E+00  0.00000000000E+00  0.11125294173E+04  0.11125294173E+04  0.00000000000E+00 0. -1.
         -2   -1    0    0    0  501 -0.00000000000E+00 -0.00000000000E+00 -0.11900994716E+04  0.11900994716E+04  0.00000000000E+00 0.  1.
         23    2    1    2    0    0  0.74431912019E+03  0.86067627157E+03  0.11985744259E+03  0.11477469842E+04  0.90458477511E+02 0.  0.
         13    1    3    3    0    0  0.70675469398E+02  0.48193241858E+02  0.18007582150E+02  0.87417867455E+02  0.00000000000E+00 0. -1.
        -13    1    3    3    0    0  0.67364365079E+03  0.81248302971E+03  0.10184986044E+03  0.10603291168E+04  0.00000000000E+00 0.  1.
         22    1    1    2    0    0 -0.74431912019E+03 -0.86067627157E+03 -0.19742749697E+03  0.11548819047E+04  0.00000000000E+00 0. -1.
<mgrwt>
<rscale>  0 0.23013219E+04</rscale>
<asrwt>0</asrwt>
<pdfrwt beam="1">  1        2 0.17115837E+00 0.23013219E+04</pdfrwt>
<pdfrwt beam="2">  1       -2 0.18309223E+00 0.23013219E+04</pdfrwt>
<totfact> 0.33494651E+00</totfact>
</mgrwt>
</event>
<event>
 6    1  0.1072514E-005  0.4669514E+04  0.7818608E-02  0.7881614E-01
          1   -1    0    0  501    0  0.00000000000E+00  0.00000000000E+00  0.26719847422E+04  0.26719847422E+04  0.00000000000E+00 0. -1.
         -1   -1    0    0    0  501 -0.00000000000E+00 -0.00000000000E+00 -0.20400907262E+04  0.20400907262E+04  0.00000000000E+00 0.  1.
         23    2    1    2    0    0 -0.15656165681E+04 -0.20523904992E+03  0.20502820699E+04  0.25895526824E+04  0.94064991290E+02 0.  0.
         11    1    3    3    0    0 -0.12383277903E+04 -0.14444276768E+03  0.16722778117E+04  0.20858649306E+04  0.00000000000E+00 0. -1.
        -11    1    3    3    0    0 -0.32728877779E+03 -0.60796282241E+02  0.37800425825E+03  0.50368775174E+03  0.00000000000E+00 0.  1.
         22    1    1    2    0    0  0.15656165681E+04  0.20523904992E+03 -0.14183880540E+04  0.21225227861E+04  0.00000000000E+00 0.  1.
<mgrwt>
<rscale>  0 0.46695144E+04</rscale>
<asrwt>0</asrwt>
<pdfrwt beam="1">  1        1 0.41107457E+00 0.46695144E+04</pdfrwt>
<pdfrwt beam="2">  1       -1 0.31386011E+00 0.46695144E+04</pdfrwt>
<totfact> 0.20431521E-02</totfact>
</mgrwt>
</event>
<event>
 6    1  0.1072514E-005  0.2043975E+04  0.7818608E-02  0.8586332E-01
         -1   -1    0    0    0  501 -0.00000000000E+00  0.00000000000E+00  0.45202963273E+03  0.45202963273E+03  0.00000000000E+00 0.  1.
          1   -1    0    0  501    0  0.00000000000E+00 -0.00000000000E+00 -0.23105979123E+04  0.23105979123E+04  0.00000000000E+00 0. -1.
         23    2    1    2    0    0  0.74683011733E+02  0.57111359923E+02 -0.23038370092E+04  0.23075412881E+04  0.90788610149E+02 0.  0.
         11    1    3    3    0    0 -0.11726471498E+01 -0.53923638980E+01 -0.99627413161E+03  0.99628941478E+03  0.00000000000E+00 0.  1.
        -11    1    3    3    0    0  0.75855658883E+02  0.62503723821E+02 -0.13075628776E+04  0.13112518733E+04  0.00000000000E+00 0. -1.
         22    1    1    2    0    0 -0.74683011733E+02 -0.57111359923E+02  0.44526872962E+03  0.45508625693E+03  0.00000000000E+00 0.  1.
<mgrwt>
<rscale>  0 0.20439753E+04</rscale>
<asrwt>0</asrwt>
<pdfrwt beam="1">  1        1 0.35547660E+00 0.20439753E+04</pdfrwt>
<pdfrwt beam="2">  1       -1 0.69543021E-01 0.20439753E+04</pdfrwt>
<totfact> 0.35375282E+00</totfact>
</mgrwt>
</event>
<event>
 6    1  0.1072514E-005  0.3270137E+04  0.7818608E-02  0.8170536E-01
         -2   -1    0    0    0  501 -0.00000000000E+00  0.00000000000E+00  0.22183096593E+04  0.22183096593E+04  0.00000000000E+00 0.  1.
          2   -1    0    0  501    0  0.00000000000E+00 -0.00000000000E+00 -0.12051741466E+04  0.12051741466E+04  0.00000000000E+00 0. -1.
         23    2    1    2    0    0  0.11543563961E+04  0.79673045164E+03  0.13841388080E+04  0.19726352450E+04  0.90174653465E+02 0.  0.
         11    1    3    3    0    0  0.95710816150E+03  0.63461692038E+03  0.10927164132E+04  0.15851888935E+04  0.00000000000E+00 0. -1.
        -11    1    3    3    0    0  0.19724823459E+03  0.16211353126E+03  0.29142239480E+03  0.38744635146E+03  0.00000000000E+00 0.  1.
         22    1    1    2    0    0 -0.11543563961E+04 -0.79673045164E+03 -0.37100329525E+03  0.14508485610E+04  0.00000000000E+00 0. -1.
<mgrwt>
<rscale>  0 0.32701373E+04</rscale>
<asrwt>0</asrwt>
<pdfrwt beam="1">  1        2 0.18541141E+00 0.32701373E+04</pdfrwt>
<pdfrwt beam="2">  1       -2 0.34127841E+00 0.32701373E+04</pdfrwt>
<totfact> 0.27784392E-01</totfact>
</mgrwt>
</event>
<event>
 6    1  0.1072514E-005  0.2694333E+04  0.7818608E-02  0.8336846E-01
         -2   -1    0    0    0  501 -0.00000000000E+00  0.00000000000E+00  0.62300416579E+03  0.62300416579E+03  0.00000000000E+00 0. -1.
          2   -1    0    0  501    0  0.00000000000E+00 -0.00000000000E+00 -0.29130755859E+04  0.29130755859E+04  0.00000000000E+00 0.  1.
         23    2    1    2    0    0 -0.43661074371E+03 -0.31973303273E+03  0.46966618815E+03  0.72378356881E+03  0.10206944910E+03 0.  0.
         13    1    3    3    0    0 -0.11444997914E+03 -0.11121600004E+03  0.19440231242E+03  0.25151551734E+03  0.00000000000E+00 0.  1.
        -13    1    3    3    0    0 -0.32216076458E+03 -0.20851703268E+03  0.27526387574E+03  0.47226805147E+03  0.00000000000E+00 0. -1.
         22    1    1    2    0    0  0.43661074371E+03  0.31973303273E+03 -0.27597376083E+04  0.28122961829E+04  0.00000000000E+00 0.  1.
<mgrwt>
<rscale>  0 0.26943335E+04</rscale>
<asrwt>0</asrwt>
<pdfrwt beam="1">  1        2 0.44816547E+00 0.26943335E+04</pdfrwt>
<pdfrwt beam="2">  1       -2 0.95846796E-01 0.26943335E+04</pdfrwt>
<totfact> 0.15795810E+00</totfact>
</mgrwt>
</event>
<event>
 6    1  0.1072514E-005  0.4739689E+04  0.7818608E-02  0.7869967E-01
         -1   -1    0    0    0  501 -0.00000000000E+00  0.00000000000E+00  0.23874845125E+04  0.23874845125E+04  0.00000000000E+00 0.  1.
          1   -1    0    0  501    0  0.00000000000E+00 -0.00000000000E+00 -0.23523350715E+04  0.23523350715E+04  0.00000000000E+00 0. -1.
         23    2    1    2    0    0 -0.11564856744E+04  0.10907150756E+04 -0.17385243716E+04  0.23580057196E+04  0.10298296761E+03 0.  0.
         13    1    3    3    0    0 -0.71950153100E+03  0.74516624488E+03 -0.11423772107E+04  0.15420703217E+04  0.00000000000E+00 0.  1.
        -13    1    3    3    0    0 -0.43698414344E+03  0.34554883074E+03 -0.59614716089E+03  0.81593539786E+03  0.00000000000E+00 0. -1.
         22    1    1    2    0    0  0.11564856744E+04 -0.10907150756E+04  0.17736738126E+04  0.23818138644E+04  0.00000000000E+00 0.  1.
<mgrwt>
<rscale>  0 0.47396893E+04</rscale>
<asrwt>0</asrwt>
<pdfrwt beam="1">  1        1 0.36189770E+00 0.47396893E+04</pdfrwt>
<pdfrwt beam="2">  1       -1 0.36730531E+00 0.47396893E+04</pdfrwt>
<totfact> 0.15042625E-02</totfact>
</mgrwt>
</event>
<event>
 6    1  0.1072514E-005  0.4278291E+04  0.7818608E-02  0.7950645E-01
         -2   -1    0    0    0  501 -0.00000000000E+00  0.00000000000E+00  0.16161306313E+04  0.16161306313E+04  0.00000000000E+00 0.  1.
          2   -1    0    0  501    0  0.00000000000E+00 -0.00000000000E+00 -0.28314188869E+04  0.28314188869E+04  0.00000000000E+00 0. -1.
         23    2    1    2    0    0 -0.60079683826E+03  0.12124999621E+02  0.15252679590E+04  0.16418852079E+04  0.90779032807E+02 0.  0.
         11    1    3    3    0    0 -0.20464286191E+03 -0.33012860156E+02  0.46432444049E+03  0.50849359475E+03  0.00000000000E+00 0. -1.
        -11    1    3    3    0    0 -0.39615397635E+03  0.45137859777E+02  0.10609435185E+04  0.11333916132E+04  0.00000000000E+00 0.  1.
         22    1    1    2    0    0  0.60079683826E+03 -0.12124999621E+02 -0.27405562146E+04  0.28056643103E+04  0.00000000000E+00 0. -1.
<mgrwt>
<rscale>  0 0.42782907E+04</rscale>
<asrwt>0</asrwt>
<pdfrwt beam="1">  1        2 0.43560290E+00 0.42782907E+04</pdfrwt>
<pdfrwt beam="2">  1       -2 0.24863548E+00 0.42782907E+04</pdfrwt>
<totfact> 0.11181249E-01</totfact>
</mgrwt>
</event>
<event>
 6    1  0.1072514E-005  0.2231401E+04  0.7818608E-02  0.8505471E-01
         -2   -1    0    0    0  501 -0.00000000000E+00  0.00000000000E+00  0.13429677347E+04  0.13429677347E+04  0.00000000000E+00 0.  1.
          2   -1    0    0  501    0  0.00000000000E+00 -0.00000000000E+00 -0.92689276259E+03  0.92689276259E+03  0.00000000000E+00 0. -1.
         23    2    1    2    0    0  0.66242945978E+03  0.21418743559E+03  0.10928827735E+04  0.12989033166E+04  0.89822170763E+02 0.  0.
         11    1    3    3    0    0  0.30276241792E+03  0.13544759824E+03  0.46795328155E+03  0.57357772559E+03  0.00000000000E+00 0. -1.
        -11    1    3    3    0    0  0.35966704186E+03  0.78739837346E+02  0.62492949199E+03  0.72532559099E+03  0.00000000000E+00 0.  1.
         22    1    1    2    0    0 -0.66242945978E+03 -0.21418743559E+03 -0.67680780142E+03  0.97095718073E+03  0.00000000000E+00 0. -1.
<mgrwt>
<rscale>  0 0.22314005E+04</rscale>
<asrwt>0</asrwt>
<pdfrwt beam="1">  1        2 0.14259889E+00 0.22314005E+04</pdfrwt>
<pdfrwt beam="2">  1       -2 0.20661042E+00 0.22314005E+04</pdfrwt>
<totfact> 0.30870127E+00</totfact>
</mgrwt>
</event>
<event>
 6    1  0.1072514E-005  0.2367606E+04  0.7818608E-02  0.8451732E-01
          1   -1    0    0  501    0  0.00000000000E+00  0.00000000000E+00  0.19757030881E+04  0.19757030881E+04  0.00000000000E+00 0. -1.
         -1   -1    0    0    0  501 -0.00000000000E+00 -0.00000000000E+00 -0.70931191370E+03  0.70931191370E+03  0.00000000000E+00 0.  1.
         23    2    1    2    0    0 -0.16730844139E+03 -0.65101712344E+03 -0.46850028515E+03  0.82446030333E+03  0.91797957554E+02 0.  0.
         11    1    3    3    0    0 -0.98996035926E+02 -0.51320887901E+03 -0.33516423133E+03  0.62090146608E+03  0.00000000000E+00 0.  1.
        -11    1    3    3    0    0 -0.68312405464E+02 -0.13780824444E+03 -0.13333605382E+03  0.20355883725E+03  0.00000000000E+00 0. -1.
         22    1    1    2    0    0  0.16730844139E+03  0.65101712344E+03  0.17348914595E+04  0.18605546984E+04  0.00000000000E+00 0. -1.
<mgrwt>
<rscale>  0 0.23676062E+04</rscale>
<asrwt>0</asrwt>
<pdfrwt beam="1">  1        1 0.30395432E+00 0.23676062E+04</pdfrwt>
<pdfrwt beam="2">  1       -1 0.10912491E+00 0.23676062E+04</pdfrwt>
<totfact> 0.21629236E+00</totfact>
</mgrwt>
</event>
<event>
 6    1  0.1072514E-005  0.2913464E+04  0.7818608E-02  0.8268883E-01
         -2   -1    0    0    0  501 -0.00000000000E+00  0.00000000000E+00  0.86185490365E+03  0.86185490365E+03  0.00000000000E+00 0.  1.
          2   -1    0    0  501    0  0.00000000000E+00 -0.00000000000E+00 -0.24622111111E+04  0.24622111111E+04  0.00000000000E+00 0. -1.
         23    2    1    2    0    0  0.13874001160E+04 -0.27595838917E+03 -0.41114528979E+03  0.14760252357E+04  0.92617129271E+02 0.  0.
         13    1    3    3    0    0  0.37584933625E+03 -0.56728260660E+02 -0.14935516896E+03  0.40839660333E+03  0.00000000000E+00 0. -1.
        -13    1    3    3    0    0  0.10115507797E+04 -0.21923012851E+03 -0.26179012083E+03  0.10676286323E+04  0.00000000000E+00 0.  1.
         22    1    1    2    0    0 -0.13874001160E+04  0.27595838917E+03 -0.11892109176E+04  0.18480407790E+04  0.00000000000E+00 0. -1.
<mgrwt>
<rscale>  0 0.29134644E+04</rscale>
<asrwt>0</asrwt>
<pdfrwt beam="1">  1        2 0.37880171E+00 0.29134644E+04</pdfrwt>
<pdfrwt beam="2">  1       -2 0.13259306E+00 0.29134644E+04</pdfrwt>
<totfact> 0.13033784E+00</totfact>
</mgrwt>
</event>
<event>
 6    1  0.1072514E-005  0.1691973E+04  0.7818608E-02  0.8765956E-01
         -2   -1    0    0    0  501 -0.00000000000E+00  0.00000000000E+00  0.44373215943E+03  0.44373215943E+03  0.00000000000E+00 0.  1.
          2   -1    0    0  501    0  0.00000000000E+00 -0.00000000000E+00 -0.16128951996E+04  0.16128951996E+04  0.00000000000E+00 0. -1.
         23    2    1    2    0    0  0.32253166755E+03  0.19873876372E+03  0.32979411969E+03  0.51053669550E+03  0.91431850511E+02 0.  0.
         11    1    3    3    0    0  0.42492556391E+02  0.35492269060E+02  0.96184493380E+02  0.11098096809E+03  0.00000000000E+00 0. -1.
        -11    1    3    3    0    0  0.28003911115E+03  0.16324649466E+03  0.23360962631E+03  0.39955572740E+03  0.00000000000E+00 0.  1.
         22    1    1    2    0    0 -0.32253166755E+03 -0.19873876372E+03 -0.14989571598E+04  0.15460906635E+04  0.00000000000E+00 0. -1.
<mgrwt>
<rscale>  0 0.16919734E+04</rscale>
<asrwt>0</asrwt>
<pdfrwt beam="1">  1        2 0.24813773E+00 0.16919734E+04</pdfrwt>
<pdfrwt beam="2">  1       -2 0.68266484E-01 0.16919734E+04</pdfrwt>
<totfact> 0.20502299E+01</totfact>
</mgrwt>
</event>
<event>
 6    1  0.1072514E-005  0.3641406E+04  0.7818608E-02  0.8081073E-01
          2   -1    0    0  501    0  0.00000000000E+00  0.00000000000E+00  0.17179895835E+04  0.17179895835E+04  0.00000000000E+00 0. -1.
         -2   -1    0    0    0  501 -0.00000000000E+00 -0.00000000000E+00 -0.19295570609E+04  0.19295570609E+04  0.00000000000E+00 0.  1.
         23    2    1    2    0    0 -0.52632195461E+03 -0.26038548729E+03  0.16194565637E+04  0.17246674385E+04  0.83802206932E+02 0.  0.
         11    1    3    3    0    0 -0.35287585881E+03 -0.19771540176E+03  0.10123318856E+04  0.10901507228E+04  0.00000000000E+00 0.  1.
        -11    1    3    3    0    0 -0.17344609580E+03 -0.62670085531E+02  0.60712467807E+03  0.63451671570E+03  0.00000000000E+00 0. -1.
         22    1    1    2    0    0  0.52632195461E+03  0.26038548729E+03 -0.18310240410E+04  0.19228792059E+04  0.00000000000E+00 0.  1.
<mgrwt>
<rscale>  0 0.36414057E+04</rscale>
<asrwt>0</asrwt>
<pdfrwt beam="1">  1        2 0.26430609E+00 0.36414057E+04</pdfrwt>
<pdfrwt beam="2">  1       -2 0.29685493E+00 0.36414057E+04</pdfrwt>
<totfact> 0.25861672E-01</totfact>
</mgrwt>
</event>
<event>
 6    1  0.1072514E-005  0.3205979E+04  0.7818608E-02  0.8187240E-01
          2   -1    0    0  501    0  0.00000000000E+00  0.00000000000E+00  0.18197151200E+04  0.18197151200E+04  0.00000000000E+00 0. -1.
         -2   -1    0    0    0  501 -0.00000000000E+00 -0.00000000000E+00 -0.14120760435E+04  0.14120760435E+04  0.00000000000E+00 0.  1.
         23    2    1    2    0    0  0.67270457311E+03 -0.96574797637E+03 -0.89114052477E+03  0.14790706925E+04  0.91203519606E+02 0.  0.
         13    1    3    3    0    0  0.13470667331E+03 -0.23520826280E+03 -0.16822502421E+03  0.31901171372E+03  0.00000000000E+00 0. -1.
        -13    1    3    3    0    0  0.53799789979E+03 -0.73053971357E+03 -0.72291550057E+03  0.11600589788E+04  0.00000000000E+00 0.  1.
         22    1    1    2    0    0 -0.67270457311E+03  0.96574797637E+03  0.12987796013E+04  0.17527204709E+04  0.00000000000E+00 0. -1.
<mgrwt>
<rscale>  0 0.32059795E+04</rscale>
<asrwt>0</asrwt>
<pdfrwt beam="1">  1        2 0.27995617E+00 0.32059795E+04</pdfrwt>
<pdfrwt beam="2">  1       -2 0.21724247E+00 0.32059795E+04</pdfrwt>
<totfact> 0.72879572E-01</totfact>
</mgrwt>
</event>
<event>
 6    1  0.1072514E-005  0.9994806E+03  0.7818608E-02  0.9309115E-01
          1   -1    0    0  501    0  0.00000000000E+00  0.00000000000E+00  0.21848072693E+03  0.21848072693E+03  0.00000000000E+00 0. -1.
         -1   -1    0    0    0  501 -0.00000000000E+00 -0.00000000000E+00 -0.11430774495E+04  0.11430774495E+04  0.00000000000E+00 0.  1.
         23    2    1    2    0    0 -0.14271278652E+03 -0.46541062353E+03 -0.59370865216E+03  0.77294888064E+03  0.89364537181E+02 0.  0.
         13    1    3    3    0    0 -0.14612099866E+03 -0.37255218961E+03 -0.50649667388E+03  0.64551170469E+03  0.00000000000E+00 0.  1.
        -13    1    3    3    0    0  0.34082121468E+01 -0.92858433924E+02 -0.87211978276E+02  0.12743717596E+03  0.00000000000E+00 0. -1.
         22    1    1    2    0    0  0.14271278652E+03  0.46541062353E+03 -0.33088807041E+03  0.58860929577E+03  0.00000000000E+00 0. -1.
<mgrwt>
<rscale>  0 0.99948065E+03</rscale>
<asrwt>0</asrwt>
<pdfrwt beam="1">  1        1 0.33612419E-01 0.99948065E+03</pdfrwt>
<pdfrwt beam="2">  1       -1 0.17585807E+00 0.99948065E+03</pdfrwt>
<totfact> 0.29660719E+01</totfact>
</mgrwt>
</event>
<event>
 6    1  0.1072514E-005  0.4214289E+04  0.7818608E-02  0.7962660E-01
         -2   -1    0    0    0  501 -0.00000000000E+00  0.00000000000E+00  0.17699555864E+04  0.17699555864E+04  0.00000000000E+00 0.  1.
          2   -1    0    0  501    0  0.00000000000E+00 -0.00000000000E+00 -0.25085700222E+04  0.25085700222E+04  0.00000000000E+00 0. -1.
         23    2    1    2    0    0  0.49917966212E+03 -0.40197361409E+03  0.16673385865E+04  0.17886715834E+04  0.92547014804E+02 0.  0.
         11    1    3    3    0    0  0.26926717950E+03 -0.16276222390E+03  0.86448736623E+03  0.91996454381E+03  0.00000000000E+00 0. -1.
        -11    1    3    3    0    0  0.22991248263E+03 -0.23921139018E+03  0.80285122024E+03  0.86870703963E+03  0.00000000000E+00 0.  1.
         22    1    1    2    0    0 -0.49917966212E+03  0.40197361409E+03 -0.24059530222E+04  0.24898540251E+04  0.00000000000E+00 0. -1.
<mgrwt>
<rscale>  0 0.42142888E+04</rscale>
<asrwt>0</asrwt>
<pdfrwt beam="1">  1        2 0.38593385E+00 0.42142888E+04</pdfrwt>
<pdfrwt beam="2">  1       -2 0.27230086E+00 0.42142888E+04</pdfrwt>
<totfact> 0.12521367E-01</totfact>
</mgrwt>
</event>
<event>
 6    1  0.1072514E-005  0.4333826E+03  0.7818608E-02  0.1032797E+00
         -2   -1    0    0    0  501 -0.00000000000E+00  0.00000000000E+00  0.12950700165E+03  0.12950700165E+03  0.00000000000E+00 0.  1.
          2   -1    0    0  501    0  0.00000000000E+00 -0.00000000000E+00 -0.36256818691E+03  0.36256818691E+03  0.00000000000E+00 0. -1.
         23    2    1    2    0    0  0.33412457103E+02 -0.53830268967E+02 -0.34534655683E+03  0.36314848529E+03  0.92728031949E+02 0.  0.
         11    1    3    3    0    0  0.47002200103E+02 -0.72784500559E+02 -0.29846063979E+03  0.31078214852E+03  0.00000000000E+00 0.  1.
        -11    1    3    3    0    0 -0.13589743000E+02  0.18954231592E+02 -0.46885917035E+02  0.52366336766E+02  0.00000000000E+00 0. -1.
         22    1    1    2    0    0 -0.33412457103E+02  0.53830268967E+02  0.11228537157E+03  0.12892670326E+03  0.00000000000E+00 0.  1.
<mgrwt>
<rscale>  0 0.43338260E+03</rscale>
<asrwt>0</asrwt>
<pdfrwt beam="1">  1        2 0.55779722E-01 0.43338260E+03</pdfrwt>
<pdfrwt beam="2">  1       -2 0.19924154E-01 0.43338260E+03</pdfrwt>
<totfact> 0.18940993E+03</totfact>
</mgrwt>
</event>
<event>
 6    1  0.1072514E-005  0.4504754E+04  0.7818608E-02  0.7909805E-01
         -2   -1    0    0    0  501 -0.00000000000E+00  0.00000000000E+00  0.11675633341E+04  0.11675633341E+04  0.00000000000E+00 0.  1.
          2   -1    0    0  501    0  0.00000000000E+00 -0.00000000000E+00 -0.43451188634E+04  0.43451188634E+04  0.00000000000E+00 0. -1.
         23    2    1    2    0    0 -0.87826384305E+03  0.11280354396E+04  0.53873360709E+03  0.15308966336E+04  0.97975877532E+02 0.  0.
         11    1    3    3    0    0 -0.49860387801E+03  0.71746725405E+03  0.32153496911E+03  0.93099399792E+03  0.00000000000E+00 0.  1.
        -11    1    3    3    0    0 -0.37965996504E+03  0.41056818550E+03  0.21719863798E+03  0.59990263571E+03  0.00000000000E+00 0. -1.
         22    1    1    2    0    0  0.87826384305E+03 -0.11280354396E+04 -0.37162891364E+04  0.39817855638E+04  0.00000000000E+00 0. -1.
<mgrwt>
<rscale>  0 0.45047537E+04</rscale>
<asrwt>0</asrwt>
<pdfrwt beam="1">  1        2 0.66847981E+00 0.45047537E+04</pdfrwt>
<pdfrwt beam="2">  1       -2 0.17962513E+00 0.45047537E+04</pdfrwt>
<totfact> 0.23677065E-02</totfact>
</mgrwt>
</event>
<event>
 6    1  0.1072514E-005  0.1687311E+04  0.7818608E-02  0.8768635E-01
          2   -1    0    0  501    0  0.00000000000E+00  0.00000000000E+00  0.79918410923E+03  0.79918410923E+03  0.00000000000E+00 0. -1.
         -2   -1    0    0    0  501 -0.00000000000E+00 -0.00000000000E+00 -0.89060112446E+03  0.89060112446E+03  0.00000000000E+00 0.  1.
         23    2    1    2    0    0 -0.69070538550E+03 -0.27592269770E+02  0.43427481514E+03  0.82134573469E+03  0.90437480756E+02 0.  0.
         13    1    3    3    0    0 -0.57609559290E+03 -0.22895345484E+02  0.31986379886E+03  0.65933540692E+03  0.00000000000E+00 0.  1.
        -13    1    3    3    0    0 -0.11460979260E+03 -0.46969242858E+01  0.11441101628E+03  0.16201032777E+03  0.00000000000E+00 0. -1.
         22    1    1    2    0    0  0.69070538550E+03  0.27592269770E+02 -0.52569183037E+03  0.86843949900E+03  0.00000000000E+00 0.  1.
<mgrwt>
<rscale>  0 0.16873106E+04</rscale>
<asrwt>0</asrwt>
<pdfrwt beam="1">  1        2 0.12295140E+00 0.16873106E+04</pdfrwt>
<pdfrwt beam="2">  1       -2 0.13701556E+00 0.16873106E+04</pdfrwt>
<totfact> 0.12474625E+01</totfact>
</mgrwt>
</event>
<event>
 6    1  0.1072514E-005  0.1895209E+04  0.7818608E-02  0.8657245E-01
         -1   -1    0    0    0  501 -0.00000000000E+00  0.00000000000E+00  0.56847779941E+03  0.56847779941E+03  0.00000000000E+00 0.  1.
          1   -1    0    0  501    0  0.00000000000E+00 -0.00000000000E+00 -0.15795774954E+04  0.15795774954E+04  0.00000000000E+00 0. -1.
         23    2    1    2    0    0  0.60998438374E+03  0.58070671110E+03 -0.19626155068E+02  0.84716290300E+03  0.89434699817E+02 0.  0.
         11    1    3    3    0    0  0.58375644697E+03  0.56776223772E+03 -0.33018421029E+02  0.81499433377E+03  0.00000000000E+00 0.  1.
        -11    1    3    3    0    0  0.26227936775E+02  0.12944473382E+02  0.13392265960E+02  0.32168569228E+02  0.00000000000E+00 0. -1.
         22    1    1    2    0    0 -0.60998438374E+03 -0.58070671110E+03 -0.99147354096E+03  0.13008923918E+04  0.00000000000E+00 0. -1.
<mgrwt>
<rscale>  0 0.18952095E+04</rscale>
<asrwt>0</asrwt>
<pdfrwt beam="1">  1        1 0.24301192E+00 0.18952095E+04</pdfrwt>
<pdfrwt beam="2">  1       -1 0.87458123E-01 0.18952095E+04</pdfrwt>
<totfact> 0.69400479E+00</totfact>
</mgrwt>
</event>
<event>
 6    1  0.1072514E-005  0.1850871E+04  0.7818608E-02  0.8679705E-01
         -1   -1    0    0    0  501 -0.00000000000E+00  0.00000000000E+00  0.71478558831E+03  0.71478558831E+03  0.00000000000E+00 0.  1.
          1   -1    0    0  501    0  0.00000000000E+00 -0.00000000000E+00 -0.11981653209E+04  0.11981653209E+04  0.00000000000E+00 0. -1.
         23    2    1    2    0    0 -0.29565552780E+03  0.86525608956E+03 -0.11055505021E+03  0.92549025915E+03  0.90716641316E+02 0.  0.
         13    1    3    3    0    0 -0.14176849789E+03  0.51827894729E+03 -0.94607998717E+02  0.54558413432E+03  0.00000000000E+00 0.  1.
        -13    1    3    3    0    0 -0.15388702991E+03  0.34697714227E+03 -0.15947051497E+02  0.37990612483E+03  0.00000000000E+00 0. -1.
         22    1    1    2    0    0  0.29565552780E+03 -0.86525608956E+03 -0.37282468236E+03  0.98746065006E+03  0.00000000000E+00 0. -1.
<mgrwt>
<rscale>  0 0.18508715E+04</rscale>
<asrwt>0</asrwt>
<pdfrwt beam="1">  1        1 0.18433312E+00 0.18508715E+04</pdfrwt>
<pdfrwt beam="2">  1       -1 0.10996702E+00 0.18508715E+04</pdfrwt>
<totfact> 0.76919261E+00</totfact>
</mgrwt>
</event>
<event>
 6    1  0.1072514E-005  0.2243933E+04  0.7818608E-02  0.8500361E-01
          2   -1    0    0  501    0  0.00000000000E+00  0.00000000000E+00  0.19532549287E+04  0.19532549287E+04  0.00000000000E+00 0. -1.
         -2   -1    0    0    0  501 -0.00000000000E+00 -0.00000000000E+00 -0.64446751255E+03  0.64446751255E+03  0.00000000000E+00 0.  1.
         23    2    1    2    0    0 -0.66760648117E+03 -0.88947954739E+03  0.50168816412E+03  0.12235748940E+04  0.92586329208E+02 0.  0.
         13    1    3    3    0    0 -0.38378453786E+03 -0.51781061397E+03  0.24053407402E+03  0.68794988495E+03  0.00000000000E+00 0.  1.
        -13    1    3    3    0    0 -0.28382194331E+03 -0.37166893343E+03  0.26115409010E+03  0.53562500908E+03  0.00000000000E+00 0. -1.
         22    1    1    2    0    0  0.66760648117E+03  0.88947954739E+03  0.80709925208E+03  0.13741475473E+04  0.00000000000E+00 0.  1.
<mgrwt>
<rscale>  0 0.22439335E+04</rscale>
<asrwt>0</asrwt>
<pdfrwt beam="1">  1        2 0.30050076E+00 0.22439335E+04</pdfrwt>
<pdfrwt beam="2">  1       -2 0.99148849E-01 0.22439335E+04</pdfrwt>
<totfact> 0.54451530E+00</totfact>
</mgrwt>
</event>
<event>
 6    1  0.1072514E-005  0.1575541E+04  0.7818608E-02  0.8835717E-01
         -1   -1    0    0    0  501 -0.00000000000E+00  0.00000000000E+00  0.78901899352E+03  0.78901899352E+03  0.00000000000E+00 0.  1.
          1   -1    0    0  501    0  0.00000000000E+00 -0.00000000000E+00 -0.78652394516E+03  0.78652394516E+03  0.00000000000E+00 0. -1.
         23    2    1    2    0    0 -0.11285849475E+03 -0.77495453495E+03 -0.55286685133E+02  0.79028482838E+03  0.90564459544E+02 0.  0.
         11    1    3    3    0    0 -0.86670209663E+02 -0.56581857817E+03 -0.80353024156E+02  0.57803027354E+03  0.00000000000E+00 0. -1.
        -11    1    3    3    0    0 -0.26188285090E+02 -0.20913595678E+03  0.25066339023E+02  0.21225455483E+03  0.00000000000E+00 0.  1.
         22    1    1    2    0    0  0.11285849475E+03  0.77495453495E+03  0.57781733499E+02  0.78525811031E+03  0.00000000000E+00 0.  1.
<mgrwt>
<rscale>  0 0.15755410E+04</rscale>
<asrwt>0</asrwt>
<pdfrwt beam="1">  1        1 0.12100368E+00 0.15755410E+04</pdfrwt>
<pdfrwt beam="2">  1       -1 0.12138754E+00 0.15755410E+04</pdfrwt>
<totfact> 0.13149732E+01</totfact>
</mgrwt>
</event>
<event>
 6    1  0.1072514E-005  0.2952695E+04  0.7818608E-02  0.8257370E-01
          2   -1    0    0  501    0  0.00000000000E+00  0.00000000000E+00  0.34728497599E+04  0.34728497599E+04  0.00000000000E+00 0. -1.
         -2   -1    0    0    0  501 -0.00000000000E+00 -0.00000000000E+00 -0.62761182466E+03  0.62761182466E+03  0.00000000000E+00 0.  1.
         23    2    1    2    0    0 -0.13108004384E+04 -0.41158924244E+03  0.67896035669E+03  0.15352399487E+04  0.91493389246E+02 0.  0.
         11    1    3    3    0    0 -0.58633238063E+03 -0.20931202925E+03  0.26445398990E+03  0.67641192992E+03  0.00000000000E+00 0. -1.
        -11    1    3    3    0    0 -0.72446805777E+03 -0.20227721320E+03  0.41450636679E+03  0.85882801877E+03  0.00000000000E+00 0.  1.
         22    1    1    2    0    0  0.13108004384E+04  0.41158924244E+03  0.21662775786E+04  0.25652216359E+04  0.00000000000E+00 0. -1.
<mgrwt>
<rscale>  0 0.29526948E+04</rscale>
<asrwt>0</asrwt>
<pdfrwt beam="1">  1        2 0.53428457E+00 0.29526948E+04</pdfrwt>
<pdfrwt beam="2">  1       -2 0.96555667E-01 0.29526948E+04</pdfrwt>
<totfact> 0.65433701E-01</totfact>
</mgrwt>
</event>
<event>
 6    1  0.1072514E-005  0.1228524E+04  0.7818608E-02  0.9088250E-01
         -1   -1    0    0    0  501 -0.00000000000E+00  0.00000000000E+00  0.45984765724E+03  0.45984765724E+03  0.00000000000E+00 0.  1.
          1   -1    0    0  501    0  0.00000000000E+00 -0.00000000000E+00 -0.82052760376E+03  0.82052760376E+03  0.00000000000E+00 0. -1.
         23    2    1    2    0    0  0.32617348855E+03 -0.36500911769E+03 -0.56174442689E+03  0.75117990397E+03  0.95360612172E+02 0.  0.
         11    1    3    3    0    0  0.14599183526E+03 -0.14260841382E+03 -0.16768969541E+03  0.26414126827E+03  0.00000000000E+00 0. -1.
        -11    1    3    3    0    0  0.18018165328E+03 -0.22240070387E+03 -0.39405473147E+03  0.48703863570E+03  0.00000000000E+00 0.  1.
         22    1    1    2    0    0 -0.32617348855E+03  0.36500911769E+03  0.20106448037E+03  0.52919535702E+03  0.00000000000E+00 0.  1.
<mgrwt>
<rscale>  0 0.12285238E+04</rscale>
<asrwt>0</asrwt>
<pdfrwt beam="1">  1        1 0.12623501E+00 0.12285238E+04</pdfrwt>
<pdfrwt beam="2">  1       -1 0.70745795E-01 0.12285238E+04</pdfrwt>
<totfact> 0.42325167E+01</totfact>
</mgrwt>
</event>
<event>
 6    1  0.1072514E-005  0.1835281E+04  0.7818608E-02  0.8687759E-01
         -1   -1    0    0    0  501 -0.00000000000E+00  0.00000000000E+00  0.12594491715E+04  0.12594491715E+04  0.00000000000E+00 0.  1.
          1   -1    0    0  501    0  0.00000000000E+00 -0.00000000000E+00 -0.66859697365E+03  0.66859697365E+03  0.00000000000E+00 0. -1.
         23    2    1    2    0    0 -0.47201334807E+03 -0.24863274861E+03 -0.48528065928E+03  0.72693134187E+03  0.91197659448E+02 0.  0.
         13    1    3    3    0    0 -0.10268989166E+03 -0.99136438148E+02 -0.13293915720E+03  0.19505400979E+03  0.00000000000E+00 0. -1.
        -13    1    3    3    0    0 -0.36932345641E+03 -0.14949631046E+03 -0.35234150208E+03  0.53187733209E+03  0.00000000000E+00 0.  1.
         22    1    1    2    0    0  0.47201334807E+03  0.24863274861E+03  0.10761328571E+04  0.12011148032E+04  0.00000000000E+00 0.  1.
<mgrwt>
<rscale>  0 0.18352808E+04</rscale>
<asrwt>0</asrwt>
<pdfrwt beam="1">  1        1 0.10286107E+00 0.18352808E+04</pdfrwt>
<pdfrwt beam="2">  1       -1 0.19376141E+00 0.18352808E+04</pdfrwt>
<totfact> 0.45676728E+00</totfact>
</mgrwt>
</event>
<event>
 6    1  0.1072514E-005  0.1817015E+04  0.7818608E-02  0.8697303E-01
          1   -1    0    0  501    0  0.00000000000E+00  0.00000000000E+00  0.94230734841E+03  0.94230734841E+03  0.00000000000E+00 0. -1.
         -1   -1    0    0    0  501 -0.00000000000E+00 -0.00000000000E+00 -0.87592009289E+03  0.87592009289E+03  0.00000000000E+00 0.  1.
         23    2    1    2    0    0 -0.65341140766E+02 -0.79593566057E+03 -0.39543958652E+03  0.89569447578E+03  0.90072675742E+02 0.  0.
         13    1    3    3    0    0 -0.50919720873E+02 -0.17667188464E+03 -0.79017296664E+02  0.20012372665E+03  0.00000000000E+00 0.  1.
        -13    1    3    3    0    0 -0.14421419894E+02 -0.61926377593E+03 -0.31642228986E+03  0.69557074913E+03  0.00000000000E+00 0. -1.
         22    1    1    2    0    0  0.65341140766E+02  0.79593566057E+03  0.46182684204E+03  0.92253296552E+03  0.00000000000E+00 0. -1.
<mgrwt>
<rscale>  0 0.18170151E+04</rscale>
<asrwt>0</asrwt>
<pdfrwt beam="1">  1        1 0.14497036E+00 0.18170151E+04</pdfrwt>
<pdfrwt beam="2">  1       -1 0.13475694E+00 0.18170151E+04</pdfrwt>
<totfact> 0.73318690E+00</totfact>
</mgrwt>
</event>
<event>
 6    1  0.1072514E-005  0.4430271E+04  0.7818608E-02  0.7922959E-01
          1   -1    0    0  501    0  0.00000000000E+00  0.00000000000E+00  0.27279124614E+04  0.27279124614E+04  0.00000000000E+00 0. -1.
         -1   -1    0    0    0  501 -0.00000000000E+00 -0.00000000000E+00 -0.17987470023E+04  0.17987470023E+04  0.00000000000E+00 0.  1.
         23    2    1    2    0    0 -0.68122790306E+03 -0.90540006127E+03  0.24084752803E+04  0.26632812750E+04  0.92158814572E+02 0.  0.
         11    1    3    3    0    0 -0.35655225795E+03 -0.48371137544E+03  0.13836649201E+04  0.15085207385E+04  0.00000000000E+00 0.  1.
        -11    1    3    3    0    0 -0.32467564511E+03 -0.42168868583E+03  0.10248103603E+04  0.11547605366E+04  0.00000000000E+00 0. -1.
         22    1    1    2    0    0  0.68122790306E+03  0.90540006127E+03 -0.14793098212E+04  0.18633781887E+04  0.00000000000E+00 0.  1.
<mgrwt>
<rscale>  0 0.44302706E+04</rscale>
<asrwt>0</asrwt>
<pdfrwt beam="1">  1        1 0.41967884E+00 0.44302706E+04</pdfrwt>
<pdfrwt beam="2">  1       -1 0.27673031E+00 0.44302706E+04</pdfrwt>
<totfact> 0.33116175E-02</totfact>
</mgrwt>
</event>
<event>
 6    1  0.1072514E-005  0.5188519E+04  0.7818608E-02  0.7800067E-01
          1   -1    0    0  501    0  0.00000000000E+00  0.00000000000E+00  0.38914980976E+04  0.38914980976E+04  0.00000000000E+00 0. -1.
         -1   -1    0    0    0  501 -0.00000000000E+00 -0.00000000000E+00 -0.17294578283E+04  0.17294578283E+04  0.00000000000E+00 0.  1.
         23    2    1    2    0    0 -0.38619111609E+03  0.13814652134E+03  0.38556213033E+04  0.38784161822E+04  0.89824321289E+02 0.  0.
         13    1    3    3    0    0 -0.22207622574E+03  0.77445775848E+02  0.26080786549E+04  0.26186618660E+04  0.00000000000E+00 0.  1.
        -13    1    3    3    0    0 -0.16411489035E+03  0.60700745494E+02  0.12475426484E+04  0.12597543162E+04  0.00000000000E+00 0. -1.
         22    1    1    2    0    0  0.38619111609E+03 -0.13814652134E+03 -0.16935810340E+04  0.17425397437E+04  0.00000000000E+00 0.  1.
<mgrwt>
<rscale>  0 0.51885188E+04</rscale>
<asrwt>0</asrwt>
<pdfrwt beam="1">  1        1 0.59869201E+00 0.51885188E+04</pdfrwt>
<pdfrwt beam="2">  1       -1 0.26607044E+00 0.51885188E+04</pdfrwt>
<totfact> 0.46331472E-03</totfact>
</mgrwt>
</event>
<event>
 6    1  0.1072514E-005  0.1571024E+04  0.7818608E-02  0.8838550E-01
         -1   -1    0    0    0  501 -0.00000000000E+00  0.00000000000E+00  0.34201649290E+03  0.34201649290E+03  0.00000000000E+00 0.  1.
          1   -1    0    0  501    0  0.00000000000E+00 -0.00000000000E+00 -0.18040912612E+04  0.18040912612E+04  0.00000000000E+00 0. -1.
         23    2    1    2    0    0  0.33930843373E+03  0.97247848095E+02  0.22119278231E+03  0.42623072242E+03  0.90327319427E+02 0.  0.
         11    1    3    3    0    0  0.17583025839E+03  0.47753255019E+02  0.61221448651E+02  0.19221009054E+03  0.00000000000E+00 0.  1.
        -11    1    3    3    0    0  0.16347817534E+03  0.49494593076E+02  0.15997133366E+03  0.23402063189E+03  0.00000000000E+00 0. -1.
         22    1    1    2    0    0 -0.33930843373E+03 -0.97247848095E+02 -0.16832675506E+04  0.17198770316E+04  0.00000000000E+00 0. -1.
<mgrwt>
<rscale>  0 0.15710238E+04</rscale>
<asrwt>0</asrwt>
<pdfrwt beam="1">  1        1 0.27755250E+00 0.15710238E+04</pdfrwt>
<pdfrwt beam="2">  1       -1 0.52617922E-01 0.15710238E+04</pdfrwt>
<totfact> 0.14173580E+01</totfact>
</mgrwt>
</event>
<event>
 6    1  0.1072514E-005  0.2890402E+04  0.7818608E-02  0.8275739E-01
         -2   -1    0    0    0  501 -0.00000000000E+00  0.00000000000E+00  0.15438964346E+04  0.15438964346E+04  0.00000000000E+00 0.  1.
          2   -1    0    0  501    0  0.00000000000E+00 -0.00000000000E+00 -0.13528150427E+04  0.13528150427E+04  0.00000000000E+00 0. -1.
         23    2    1    2    0    0  0.75698585809E+03 -0.11110115682E+04  0.62295124280E+03  0.14846612438E+04  0.93682783083E+02 0.  0.
         13    1    3    3    0    0  0.43340488231E+03 -0.60511501458E+03  0.29706565208E+03  0.80140624812E+03  0.00000000000E+00 0. -1.
        -13    1    3    3    0    0  0.32358097577E+03 -0.50589655360E+03  0.32588559072E+03  0.68325499564E+03  0.00000000000E+00 0.  1.
         22    1    1    2    0    0 -0.75698585809E+03  0.11110115682E+04 -0.43186985090E+03  0.14120502336E+04  0.00000000000E+00 0. -1.
<mgrwt>
<rscale>  0 0.28904023E+04</rscale>
<asrwt>0</asrwt>
<pdfrwt beam="1">  1        2 0.20812539E+00 0.28904023E+04</pdfrwt>
<pdfrwt beam="2">  1       -2 0.23752253E+00 0.28904023E+04</pdfrwt>
<totfact> 0.10211126E+00</totfact>
</mgrwt>
</event>
<event>
 6    1  0.1072514E-005  0.4180075E+04  0.7818608E-02  0.7969173E-01
         -2   -1    0    0    0  501 -0.00000000000E+00  0.00000000000E+00  0.16797775430E+04  0.16797775430E+04  0.00000000000E+00 0.  1.
          2   -1    0    0  501    0  0.00000000000E+00 -0.00000000000E+00 -0.26004977197E+04  0.26004977197E+04  0.00000000000E+00 0. -1.
         23    2    1    2    0    0 -0.16970571359E+04 -0.12054138503E+04 -0.64004145520E+03  0.21798453025E+04  0.95115748922E+02 0.  0.
         13    1    3    3    0    0 -0.90797404557E+03 -0.62951696720E+03 -0.29176982492E+03  0.11427327379E+04  0.00000000000E+00 0.  1.
        -13    1    3    3    0    0 -0.78908309028E+03 -0.57589688308E+03 -0.34827163027E+03  0.10371125647E+04  0.00000000000E+00 0. -1.
         22    1    1    2    0    0  0.16970571359E+04  0.12054138503E+04 -0.28067872151E+03  0.21004299602E+04  0.00000000000E+00 0. -1.
<mgrwt>
<rscale>  0 0.41800754E+04</rscale>
<asrwt>0</asrwt>
<pdfrwt beam="1">  1        2 0.40007657E+00 0.41800754E+04</pdfrwt>
<pdfrwt beam="2">  1       -2 0.25842731E+00 0.41800754E+04</pdfrwt>
<totfact> 0.13487697E-01</totfact>
</mgrwt>
</event>
<event>
 6    1  0.1072514E-005  0.4811082E+04  0.7818608E-02  0.7858329E-01
          1   -1    0    0  501    0  0.00000000000E+00  0.00000000000E+00  0.31918337309E+04  0.31918337309E+04  0.00000000000E+00 0. -1.
         -1   -1    0    0    0  501 -0.00000000000E+00 -0.00000000000E+00 -0.18129475459E+04  0.18129475459E+04  0.00000000000E+00 0.  1.
         23    2    1    2    0    0 -0.79833277850E+03 -0.13671083126E+04  0.25725879783E+04  0.30220446995E+04  0.90691214187E+02 0.  0.
         11    1    3    3    0    0 -0.10895738898E+03 -0.13586501014E+03  0.26007832773E+03  0.31300439318E+03  0.00000000000E+00 0.  1.
        -11    1    3    3    0    0 -0.68937538952E+03 -0.12312433024E+04  0.23125096506E+04  0.27090403063E+04  0.00000000000E+00 0. -1.
         22    1    1    2    0    0  0.79833277850E+03  0.13671083126E+04 -0.11937017932E+04  0.19827365773E+04  0.00000000000E+00 0.  1.
<mgrwt>
<rscale>  0 0.48110818E+04</rscale>
<asrwt>0</asrwt>
<pdfrwt beam="1">  1        1 0.49105134E+00 0.48110818E+04</pdfrwt>
<pdfrwt beam="2">  1       -1 0.27891501E+00 0.48110818E+04</pdfrwt>
<totfact> 0.14284427E-02</totfact>
</mgrwt>
</event>
<event>
 6    1  0.1072514E-005  0.1110750E+04  0.7818608E-02  0.9194777E-01
          2   -1    0    0  501    0  0.00000000000E+00  0.00000000000E+00  0.19753917258E+04  0.19753917258E+04  0.00000000000E+00 0. -1.
         -2   -1    0    0    0  501 -0.00000000000E+00 -0.00000000000E+00 -0.15614188770E+03  0.15614188770E+03  0.00000000000E+00 0.  1.
         23    2    1    2    0    0 -0.40790923023E+03 -0.14757318408E+03  0.26183551498E+03  0.51483724170E+03  0.91278495653E+02 0.  0.
         11    1    3    3    0    0 -0.13939532906E+03 -0.37121963380E+02  0.40741594015E+02  0.14989654903E+03  0.00000000000E+00 0.  1.
        -11    1    3    3    0    0 -0.26851390117E+03 -0.11045122070E+03  0.22109392097E+03  0.36494069266E+03  0.00000000000E+00 0. -1.
         22    1    1    2    0    0  0.40790923023E+03  0.14757318408E+03  0.15574143231E+04  0.16166963718E+04  0.00000000000E+00 0. -1.
<mgrwt>
<rscale>  0 0.11107500E+04</rscale>
<asrwt>0</asrwt>
<pdfrwt beam="1">  1        2 0.30390640E+00 0.11107500E+04</pdfrwt>
<pdfrwt beam="2">  1       -2 0.24021830E-01 0.11107500E+04</pdfrwt>
<totfact> 0.10570120E+02</totfact>
</mgrwt>
</event>
<event>
 6    1  0.1072514E-005  0.2154497E+04  0.7818608E-02  0.8537610E-01
         -1   -1    0    0    0  501 -0.00000000000E+00  0.00000000000E+00  0.13048437809E+04  0.13048437809E+04  0.00000000000E+00 0.  1.
          1   -1    0    0  501    0  0.00000000000E+00 -0.00000000000E+00 -0.88935115905E+03  0.88935115905E+03  0.00000000000E+00 0. -1.
         23    2    1    2    0    0  0.66061036614E+03  0.56930992753E+03  0.84888722240E+03  0.12203619311E+04  0.90298820757E+02 0.  0.
         13    1    3    3    0    0  0.20887025243E+03  0.12738579763E+03  0.24660100274E+03  0.34737008843E+03  0.00000000000E+00 0.  1.
        -13    1    3    3    0    0  0.45174011371E+03  0.44192412990E+03  0.60228621966E+03  0.87299184264E+03  0.00000000000E+00 0. -1.
         22    1    1    2    0    0 -0.66061036614E+03 -0.56930992753E+03 -0.43339460054E+03  0.97383300889E+03  0.00000000000E+00 0.  1.
<mgrwt>
<rscale>  0 0.21544970E+04</rscale>
<asrwt>0</asrwt>
<pdfrwt beam="1">  1        1 0.13682326E+00 0.21544970E+04</pdfrwt>
<pdfrwt beam="2">  1       -1 0.20074520E+00 0.21544970E+04</pdfrwt>
<totfact> 0.25276905E+00</totfact>
</mgrwt>
</event>
<event>
 6    1  0.1975064E-005  0.4195191E+04  0.7818608E-02  0.7966288E-01
         -1   -1    0    0    0  501 -0.00000000000E+00  0.00000000000E+00  0.18995416798E+04  0.18995416798E+04  0.00000000000E+00 0.  1.
          1   -1    0    0  501    0  0.00000000000E+00 -0.00000000000E+00 -0.23162992956E+04  0.23162992956E+04  0.00000000000E+00 0. -1.
         23    2    1    2    0    0  0.95750874518E+03  0.16961024331E+04  0.57144239910E+03  0.20317792249E+04  0.89408850315E+02 0.  0.
         13    1    3    3    0    0  0.62562173573E+03  0.10785520848E+04  0.40768931957E+03  0.13118261078E+04  0.00000000000E+00 0.  1.
        -13    1    3    3    0    0  0.33188700944E+03  0.61755034827E+03  0.16375307953E+03  0.71995311704E+03  0.00000000000E+00 0. -1.
         22    1    1    2    0    0 -0.95750874518E+03 -0.16961024331E+04 -0.98820001488E+03  0.21840617505E+04  0.00000000000E+00 0.  1.
<mgrwt>
<rscale>  0 0.41951911E+04</rscale>
<asrwt>0</asrwt>
<pdfrwt beam="1">  1        1 0.35635374E+00 0.41951911E+04</pdfrwt>
<pdfrwt beam="2">  1       -1 0.29223718E+00 0.41951911E+04</pdfrwt>
<totfact> 0.51813222E-02</totfact>
</mgrwt>
</event>
<event>
 6    1  0.1072514E-005  0.1924552E+04  0.7818608E-02  0.8642731E-01
         -2   -1    0    0    0  501 -0.00000000000E+00  0.00000000000E+00  0.16663152417E+04  0.16663152417E+04  0.00000000000E+00 0.  1.
          2   -1    0    0  501    0  0.00000000000E+00 -0.00000000000E+00 -0.55570215212E+03  0.55570215212E+03  0.00000000000E+00 0. -1.
         23    2    1    2    0    0 -0.28009932603E+03 -0.61995038562E+03  0.13387140656E+04  0.15045049073E+04  0.92658262632E+02 0.  0.
         11    1    3    3    0    0 -0.75287060803E+02 -0.26388215872E+03  0.48982619767E+03  0.56145493064E+03  0.00000000000E+00 0.  1.
        -11    1    3    3    0    0 -0.20481226523E+03 -0.35606822690E+03  0.84888786788E+03  0.94304997663E+03  0.00000000000E+00 0. -1.
         22    1    1    2    0    0  0.28009932603E+03  0.61995038562E+03 -0.22810097600E+03  0.71751248653E+03  0.00000000000E+00 0. -1.
<mgrwt>
<rscale>  0 0.19245519E+04</rscale>
<asrwt>0</asrwt>
<pdfrwt beam="1">  1        2 0.85492639E-01 0.19245519E+04</pdfrwt>
<pdfrwt beam="2">  1       -2 0.25635619E+00 0.19245519E+04</pdfrwt>
<totfact> 0.29855477E+00</totfact>
</mgrwt>
</event>
<event>
 6    1  0.1072514E-005  0.2291006E+04  0.7818608E-02  0.8481476E-01
          2   -1    0    0  501    0  0.00000000000E+00  0.00000000000E+00  0.11130776525E+04  0.11130776525E+04  0.00000000000E+00 0. -1.
         -2   -1    0    0    0  501 -0.00000000000E+00 -0.00000000000E+00 -0.11788733214E+04  0.11788733214E+04  0.00000000000E+00 0.  1.
         23    2    1    2    0    0 -0.92385813748E+03 -0.56602446116E+02 -0.70261891647E+03  0.11684468378E+04  0.12197120941E+03 0.  0.
         13    1    3    3    0    0 -0.21393005734E+03 -0.56948128902E+02 -0.13311612673E+03  0.25831968956E+03  0.00000000000E+00 0.  1.
        -13    1    3    3    0    0 -0.70992808013E+03  0.34568278593E+00 -0.56950278974E+03  0.91012714825E+03  0.00000000000E+00 0. -1.
         22    1    1    2    0    0  0.92385813748E+03  0.56602446116E+02  0.63682324753E+03  0.11235041360E+04  0.00000000000E+00 0. -1.
<mgrwt>
<rscale>  0 0.22910064E+04</rscale>
<asrwt>0</asrwt>
<pdfrwt beam="1">  1        2 0.17124272E+00 0.22910064E+04</pdfrwt>
<pdfrwt beam="2">  1       -2 0.18136513E+00 0.22910064E+04</pdfrwt>
<totfact> 0.34424503E+00</totfact>
</mgrwt>
</event>
<event>
 6    1  0.1072514E-005  0.8747199E+03  0.7818608E-02  0.9457746E-01
         -1   -1    0    0    0  501 -0.00000000000E+00  0.00000000000E+00  0.12828079126E+03  0.12828079126E+03  0.00000000000E+00 0.  1.
          1   -1    0    0  501    0  0.00000000000E+00 -0.00000000000E+00 -0.14911330171E+04  0.14911330171E+04  0.00000000000E+00 0. -1.
         23    2    1    2    0    0 -0.41315054892E+03  0.51122666690E+02 -0.47556968168E+03  0.63932339605E+03  0.96233983001E+02 0.  0.
         11    1    3    3    0    0 -0.33053548842E+03  0.55650054852E+02 -0.32153276901E+03  0.46447169909E+03  0.00000000000E+00 0. -1.
        -11    1    3    3    0    0 -0.82615060499E+02 -0.45273881618E+01 -0.15403691267E+03  0.17485169696E+03  0.00000000000E+00 0.  1.
         22    1    1    2    0    0  0.41315054892E+03 -0.51122666690E+02 -0.88728254412E+03  0.98009041226E+03  0.00000000000E+00 0. -1.
<mgrwt>
<rscale>  0 0.87471989E+03</rscale>
<asrwt>0</asrwt>
<pdfrwt beam="1">  1        1 0.22940507E+00 0.87471989E+03</pdfrwt>
<pdfrwt beam="2">  1       -1 0.19735507E-01 0.87471989E+03</pdfrwt>
<totfact> 0.14019318E+02</totfact>
</mgrwt>
</event>
<event>
 6    1  0.1072514E-005  0.4286405E+04  0.7818608E-02  0.7949137E-01
          2   -1    0    0  501    0  0.00000000000E+00  0.00000000000E+00  0.26181671681E+04  0.26181671681E+04  0.00000000000E+00 0. -1.
         -2   -1    0    0    0  501 -0.00000000000E+00 -0.00000000000E+00 -0.17544015868E+04  0.17544015868E+04  0.00000000000E+00 0.  1.
         23    2    1    2    0    0  0.33002220675E+02 -0.11623642524E+04 -0.14032540490E+04  0.18247151865E+04  0.91015295190E+02 0.  0.
         13    1    3    3    0    0  0.49914683397E+02 -0.66104881448E+03 -0.74753878065E+03  0.99914525436E+03  0.00000000000E+00 0. -1.
        -13    1    3    3    0    0 -0.16912462722E+02 -0.50131543797E+03 -0.65571526830E+03  0.82556993212E+03  0.00000000000E+00 0.  1.
         22    1    1    2    0    0 -0.33002220675E+02  0.11623642524E+04  0.22670196303E+04  0.25478535684E+04  0.00000000000E+00 0. -1.
<mgrwt>
<rscale>  0 0.42864048E+04</rscale>
<asrwt>0</asrwt>
<pdfrwt beam="1">  1        2 0.40279495E+00 0.42864048E+04</pdfrwt>
<pdfrwt beam="2">  1       -2 0.26990793E+00 0.42864048E+04</pdfrwt>
<totfact> 0.11107429E-01</totfact>
</mgrwt>
</event>
<event>
 6    1  0.1072514E-005  0.2840291E+04  0.7818608E-02  0.8290868E-01
         -2   -1    0    0    0  501 -0.00000000000E+00  0.00000000000E+00  0.77809397026E+03  0.77809397026E+03  0.00000000000E+00 0.  1.
          2   -1    0    0  501    0  0.00000000000E+00 -0.00000000000E+00 -0.25919912519E+04  0.25919912519E+04  0.00000000000E+00 0. -1.
         23    2    1    2    0    0  0.88867724065E+03  0.54418358235E+03 -0.20501735058E+04  0.23015771672E+04  0.90349562208E+02 0.  0.
         13    1    3    3    0    0  0.28124673450E+03  0.20721311397E+03 -0.62032644360E+03  0.71192829477E+03  0.00000000000E+00 0.  1.
        -13    1    3    3    0    0  0.60743050615E+03  0.33697046838E+03 -0.14298470622E+04  0.15896488724E+04  0.00000000000E+00 0. -1.
         22    1    1    2    0    0 -0.88867724065E+03 -0.54418358235E+03  0.23627622416E+03  0.10685080549E+04  0.00000000000E+00 0.  1.
<mgrwt>
<rscale>  0 0.28402907E+04</rscale>
<asrwt>0</asrwt>
<pdfrwt beam="1">  1        2 0.39876788E+00 0.28402907E+04</pdfrwt>
<pdfrwt beam="2">  1       -2 0.11970677E+00 0.28402907E+04</pdfrwt>
<totfact> 0.14250266E+00</totfact>
</mgrwt>
</event>
<event>
 6    1  0.1072514E-005  0.2721416E+04  0.7818608E-02  0.8328089E-01
         -2   -1    0    0    0  501 -0.00000000000E+00  0.00000000000E+00  0.14626389679E+04  0.14626389679E+04  0.00000000000E+00 0. -1.
          2   -1    0    0  501    0  0.00000000000E+00 -0.00000000000E+00 -0.12658806950E+04  0.12658806950E+04  0.00000000000E+00 0.  1.
         23    2    1    2    0    0 -0.62758461379E+03  0.10720158858E+04 -0.45342584137E+03  0.13264426716E+04  0.10380106253E+03 0.  0.
         13    1    3    3    0    0 -0.22653635236E+03  0.47193832923E+03 -0.22044822079E+03  0.56801577759E+03  0.00000000000E+00 0.  1.
        -13    1    3    3    0    0 -0.40104826143E+03  0.60007755659E+03 -0.23297762058E+03  0.75842689404E+03  0.00000000000E+00 0. -1.
         22    1    1    2    0    0  0.62758461379E+03 -0.10720158858E+04  0.65018411428E+03  0.14020769912E+04  0.00000000000E+00 0. -1.
<mgrwt>
<rscale>  0 0.27214161E+04</rscale>
<asrwt>0</asrwt>
<pdfrwt beam="1">  1        2 0.19475088E+00 0.27214161E+04</pdfrwt>
<pdfrwt beam="2">  1       -2 0.22502138E+00 0.27214161E+04</pdfrwt>
<totfact> 0.13928290E+00</totfact>
</mgrwt>
</event>
<event>
 6    1  0.1072514E-005  0.1039753E+04  0.7818608E-02  0.9265988E-01
          1   -1    0    0  501    0  0.00000000000E+00  0.00000000000E+00  0.19867615138E+03  0.19867615138E+03  0.00000000000E+00 0. -1.
         -1   -1    0    0    0  501 -0.00000000000E+00 -0.00000000000E+00 -0.13603612744E+04  0.13603612744E+04  0.00000000000E+00 0.  1.
         23    2    1    2    0    0  0.25778681202E+03  0.44413728157E+03 -0.51175823469E+03  0.73071567338E+03  0.91306841025E+02 0.  0.
         13    1    3    3    0    0  0.18264760389E+03  0.38240699483E+03 -0.40280648600E+03  0.58467796441E+03  0.00000000000E+00 0. -1.
        -13    1    3    3    0    0  0.75139208126E+02  0.61730286746E+02 -0.10895174869E+03  0.14603770897E+03  0.00000000000E+00 0.  1.
         22    1    1    2    0    0 -0.25778681202E+03 -0.44413728157E+03 -0.64992688833E+03  0.82832175241E+03  0.00000000000E+00 0. -1.
<mgrwt>
<rscale>  0 0.10397526E+04</rscale>
<asrwt>0</asrwt>
<pdfrwt beam="1">  1        1 0.30565561E-01 0.10397526E+04</pdfrwt>
<pdfrwt beam="2">  1       -1 0.20928635E+00 0.10397526E+04</pdfrwt>
<totfact> 0.19552587E+01</totfact>
</mgrwt>
</event>
<event>
 6    1  0.1072514E-005  0.1584135E+04  0.7818608E-02  0.8830354E-01
         -1   -1    0    0    0  501 -0.00000000000E+00  0.00000000000E+00  0.44263194998E+03  0.44263194998E+03  0.00000000000E+00 0.  1.
          1   -1    0    0  501    0  0.00000000000E+00 -0.00000000000E+00 -0.14173648923E+04  0.14173648923E+04  0.00000000000E+00 0. -1.
         23    2    1    2    0    0 -0.24400460092E+03 -0.68415439868E+03 -0.85208370787E+03  0.11233501690E+04  0.90903632791E+02 0.  0.
         11    1    3    3    0    0 -0.11752610560E+02 -0.93994590539E+02 -0.78546506166E+02  0.12305551811E+03  0.00000000000E+00 0. -1.
        -11    1    3    3    0    0 -0.23225199036E+03 -0.59015980814E+03 -0.77353720170E+03  0.10002946509E+04  0.00000000000E+00 0.  1.
         22    1    1    2    0    0  0.24400460092E+03  0.68415439868E+03 -0.12264923441E+03  0.73664667325E+03  0.00000000000E+00 0. -1.
<mgrwt>
<rscale>  0 0.15841351E+04</rscale>
<asrwt>0</asrwt>
<pdfrwt beam="1">  1        1 0.21805614E+00 0.15841351E+04</pdfrwt>
<pdfrwt beam="2">  1       -1 0.68097222E-01 0.15841351E+04</pdfrwt>
<totfact> 0.15668309E+01</totfact>
</mgrwt>
</event>
<event>
 6    1  0.1072514E-005  0.1750048E+04  0.7818608E-02  0.8733324E-01
          1   -1    0    0  501    0  0.00000000000E+00  0.00000000000E+00  0.48778950957E+03  0.48778950957E+03  0.00000000000E+00 0. -1.
         -1   -1    0    0    0  501 -0.00000000000E+00 -0.00000000000E+00 -0.15696676759E+04  0.15696676759E+04  0.00000000000E+00 0.  1.
         23    2    1    2    0    0 -0.50931980638E+03 -0.67660187045E+03 -0.29495865343E+03  0.90141260326E+03  0.91363657011E+02 0.  0.
         11    1    3    3    0    0 -0.20416726462E+03 -0.31773984635E+03 -0.16921617841E+03  0.41385625154E+03  0.00000000000E+00 0. -1.
        -11    1    3    3    0    0 -0.30515254176E+03 -0.35886202410E+03 -0.12574247502E+03  0.48755635172E+03  0.00000000000E+00 0.  1.
         22    1    1    2    0    0  0.50931980638E+03  0.67660187045E+03 -0.78691951288E+03  0.11560445822E+04  0.00000000000E+00 0.  1.
<mgrwt>
<rscale>  0 0.17500485E+04</rscale>
<asrwt>0</asrwt>
<pdfrwt beam="1">  1        1 0.75044541E-01 0.17500485E+04</pdfrwt>
<pdfrwt beam="2">  1       -1 0.24148733E+00 0.17500485E+04</pdfrwt>
<totfact> 0.34451167E+00</totfact>
</mgrwt>
</event>
<event>
 6    1  0.1072514E-005  0.3504886E+03  0.7818608E-02  0.1062415E+00
          2   -1    0    0  501    0  0.00000000000E+00  0.00000000000E+00  0.24817184429E+03  0.24817184429E+03  0.00000000000E+00 0. -1.
         -2   -1    0    0    0  501 -0.00000000000E+00 -0.00000000000E+00 -0.12374719677E+03  0.12374719677E+03  0.00000000000E+00 0.  1.
         23    2    1    2    0    0  0.11276915582E+03  0.87508592115E+02  0.15066018033E+03  0.22678827458E+03  0.91431916476E+02 0.  0.
         11    1    3    3    0    0  0.52899075143E+02 -0.92209175458E+01  0.65431950567E+02  0.84644418755E+02  0.00000000000E+00 0.  1.
        -11    1    3    3    0    0  0.59870080673E+02  0.96729509661E+02  0.85228229765E+02  0.14214385582E+03  0.00000000000E+00 0. -1.
         22    1    1    2    0    0 -0.11276915582E+03 -0.87508592115E+02 -0.26235532817E+02  0.14513076648E+03  0.00000000000E+00 0.  1.
<mgrwt>
<rscale>  0 0.35048863E+03</rscale>
<asrwt>0</asrwt>
<pdfrwt beam="1">  1        2 0.38180284E-01 0.35048863E+03</pdfrwt>
<pdfrwt beam="2">  1       -2 0.19038030E-01 0.35048863E+03</pdfrwt>
<totfact> 0.30878758E+03</totfact>
</mgrwt>
</event>
<event>
 6    1  0.1072514E-005  0.9455221E+03  0.7818608E-02  0.9370400E-01
         -2   -1    0    0    0  501 -0.00000000000E+00  0.00000000000E+00  0.16642601691E+03  0.16642601691E+03  0.00000000000E+00 0.  1.
          2   -1    0    0  501    0  0.00000000000E+00 -0.00000000000E+00 -0.13429572679E+04  0.13429572679E+04  0.00000000000E+00 0. -1.
         23    2    1    2    0    0 -0.39667086492E+03  0.42329580483E+02 -0.98506884184E+03  0.10668932594E+04  0.93600402233E+02 0.  0.
         11    1    3    3    0    0 -0.13343639841E+03 -0.23918170763E+02 -0.38851946906E+03  0.41149086157E+03  0.00000000000E+00 0. -1.
        -11    1    3    3    0    0 -0.26323446651E+03  0.66247751246E+02 -0.59654937278E+03  0.65540239782E+03  0.00000000000E+00 0.  1.
         22    1    1    2    0    0  0.39667086492E+03 -0.42329580483E+02 -0.19146240911E+03  0.44249002538E+03  0.00000000000E+00 0.  1.
<mgrwt>
<rscale>  0 0.94552214E+03</rscale>
<asrwt>0</asrwt>
<pdfrwt beam="1">  1        2 0.20660882E+00 0.94552214E+03</pdfrwt>
<pdfrwt beam="2">  1       -2 0.25604002E-01 0.94552214E+03</pdfrwt>
<totfact> 0.21430338E+02</totfact>
</mgrwt>
</event>
<event>
 6    1  0.1072514E-005  0.7935168E+03  0.7818608E-02  0.9569449E-01
         -2   -1    0    0    0  501 -0.00000000000E+00  0.00000000000E+00  0.92624061554E+02  0.92624061554E+02  0.00000000000E+00 0.  1.
          2   -1    0    0  501    0  0.00000000000E+00 -0.00000000000E+00 -0.16995283003E+04  0.16995283003E+04  0.00000000000E+00 0. -1.
         23    2    1    2    0    0  0.37021442152E+03 -0.12747426901E+03 -0.83377224213E+03  0.92552586135E+03  0.90075308139E+02 0.  0.
         13    1    3    3    0    0  0.23702558767E+03 -0.72905829848E+02 -0.42381162613E+03  0.49103226338E+03  0.00000000000E+00 0. -1.
        -13    1    3    3    0    0  0.13318883385E+03 -0.54568439161E+02 -0.40996061599E+03  0.43449359797E+03  0.00000000000E+00 0.  1.
         22    1    1    2    0    0 -0.37021442152E+03  0.12747426901E+03 -0.77313199657E+03  0.86662650045E+03  0.00000000000E+00 0. -1.
<mgrwt>
<rscale>  0 0.79351676E+03</rscale>
<asrwt>0</asrwt>
<pdfrwt beam="1">  1        2 0.26146589E+00 0.79351676E+03</pdfrwt>
<pdfrwt beam="2">  1       -2 0.14249856E-01 0.79351676E+03</pdfrwt>
<totfact> 0.38003886E+02</totfact>
</mgrwt>
</event>
<event>
 6    1  0.1072514E-005  0.1069345E+04  0.7818608E-02  0.9235597E-01
          2   -1    0    0  501    0  0.00000000000E+00  0.00000000000E+00  0.60099290565E+03  0.60099290565E+03  0.00000000000E+00 0. -1.
         -2   -1    0    0    0  501 -0.00000000000E+00 -0.00000000000E+00 -0.47567027208E+03  0.47567027208E+03  0.00000000000E+00 0.  1.
         23    2    1    2    0    0 -0.12066650102E+02 -0.51038561025E+03 -0.83077022584E+02  0.52523821286E+03  0.91292460620E+02 0.  0.
         11    1    3    3    0    0 -0.48709982474E+02 -0.26678914601E+03 -0.60523237426E+02  0.27787078488E+03  0.00000000000E+00 0. -1.
        -11    1    3    3    0    0  0.36643332373E+02 -0.24359646424E+03 -0.22553785158E+02  0.24736742797E+03  0.00000000000E+00 0.  1.
         22    1    1    2    0    0  0.12066650102E+02  0.51038561025E+03  0.20839965616E+03  0.55142496487E+03  0.00000000000E+00 0.  1.
<mgrwt>
<rscale>  0 0.10693446E+04</rscale>
<asrwt>0</asrwt>
<pdfrwt beam="1">  1        2 0.92460448E-01 0.10693446E+04</pdfrwt>
<pdfrwt beam="2">  1       -2 0.73180041E-01 0.10693446E+04</pdfrwt>
<totfact> 0.83063086E+01</totfact>
</mgrwt>
</event>
<event>
 6    1  0.1072514E-005  0.3064939E+04  0.7818608E-02  0.8225426E-01
         -2   -1    0    0    0  501 -0.00000000000E+00  0.00000000000E+00  0.14537041659E+04  0.14537041659E+04  0.00000000000E+00 0.  1.
          2   -1    0    0  501    0  0.00000000000E+00 -0.00000000000E+00 -0.16155027995E+04  0.16155027995E+04  0.00000000000E+00 0. -1.
         23    2    1    2    0    0 -0.11905625702E+04 -0.42399816050E+03 -0.94500271922E+03  0.15823907987E+04  0.11711885805E+03 0.  0.
         11    1    3    3    0    0 -0.25587494563E+03 -0.63645337918E+02 -0.14874379044E+03  0.30273326879E+03  0.00000000000E+00 0.  1.
        -11    1    3    3    0    0 -0.93468762457E+03 -0.36035282258E+03 -0.79625892878E+03  0.12796575299E+04  0.00000000000E+00 0. -1.
         22    1    1    2    0    0  0.11905625702E+04  0.42399816050E+03  0.78320408559E+03  0.14868161666E+04  0.00000000000E+00 0.  1.
<mgrwt>
<rscale>  0 0.30649392E+04</rscale>
<asrwt>0</asrwt>
<pdfrwt beam="1">  1        2 0.24853889E+00 0.30649392E+04</pdfrwt>
<pdfrwt beam="2">  1       -2 0.22364679E+00 0.30649392E+04</pdfrwt>
<totfact> 0.87243011E-01</totfact>
</mgrwt>
</event>
<event>
 6    1  0.1072514E-005  0.7422411E+03  0.7818608E-02  0.9647602E-01
         -1   -1    0    0    0  501 -0.00000000000E+00  0.00000000000E+00  0.78234553186E+03  0.78234553186E+03  0.00000000000E+00 0.  1.
          1   -1    0    0  501    0  0.00000000000E+00 -0.00000000000E+00 -0.17604810763E+03  0.17604810763E+03  0.00000000000E+00 0. -1.
         23    2    1    2    0    0 -0.36308767429E+02  0.35673844432E+03  0.21348180562E+03  0.42652452545E+03  0.88136514741E+02 0.  0.
         13    1    3    3    0    0 -0.13718154760E+02  0.12911430721E+03  0.12801629657E+03  0.18233722682E+03  0.00000000000E+00 0. -1.
        -13    1    3    3    0    0 -0.22590612669E+02  0.22762413710E+03  0.85465509052E+02  0.24418729863E+03  0.00000000000E+00 0.  1.
         22    1    1    2    0    0  0.36308767429E+02 -0.35673844432E+03  0.39281561861E+03  0.53186911404E+03  0.00000000000E+00 0.  1.
<mgrwt>
<rscale>  0 0.74224107E+03</rscale>
<asrwt>0</asrwt>
<pdfrwt beam="1">  1        1 0.27084325E-01 0.74224107E+03</pdfrwt>
<pdfrwt beam="2">  1       -1 0.12036085E+00 0.74224107E+03</pdfrwt>
<totfact> 0.10970283E+02</totfact>
</mgrwt>
</event>
<event>
 6    1  0.1072514E-005  0.2049773E+04  0.7818608E-02  0.8583697E-01
         -1   -1    0    0    0  501 -0.00000000000E+00  0.00000000000E+00  0.97070151892E+03  0.97070151892E+03  0.00000000000E+00 0.  1.
          1   -1    0    0  501    0  0.00000000000E+00 -0.00000000000E+00 -0.10820962841E+04  0.10820962841E+04  0.00000000000E+00 0. -1.
         23    2    1    2    0    0 -0.44702903674E+02  0.64789322302E+03  0.73555185256E+03  0.98551969899E+03  0.91916109923E+02 0.  0.
         11    1    3    3    0    0 -0.66227618170E+02  0.35861818823E+03  0.43850045813E+03  0.57032951363E+03  0.00000000000E+00 0. -1.
        -11    1    3    3    0    0  0.21524714497E+02  0.28927503479E+03  0.29705139443E+03  0.41519018536E+03  0.00000000000E+00 0.  1.
         22    1    1    2    0    0  0.44702903674E+02 -0.64789322302E+03 -0.84694661775E+03  0.10672781040E+04  0.00000000000E+00 0. -1.
<mgrwt>
<rscale>  0 0.20497732E+04</rscale>
<asrwt>0</asrwt>
<pdfrwt beam="1">  1        1 0.16647635E+00 0.20497732E+04</pdfrwt>
<pdfrwt beam="2">  1       -1 0.14933870E+00 0.20497732E+04</pdfrwt>
<totfact> 0.42663339E+00</totfact>
</mgrwt>
</event>
<event>
 6    1  0.1072514E-005  0.1133495E+04  0.7818608E-02  0.9173147E-01
          1   -1    0    0  501    0  0.00000000000E+00  0.00000000000E+00  0.24474468141E+03  0.24474468141E+03  0.00000000000E+00 0. -1.
         -1   -1    0    0    0  501 -0.00000000000E+00 -0.00000000000E+00 -0.13123982353E+04  0.13123982353E+04  0.00000000000E+00 0.  1.
         23    2    1    2    0    0 -0.26544649467E+03 -0.49661585353E+03 -0.52145214135E+03  0.77265255311E+03  0.89389510551E+02 0.  0.
         13    1    3    3    0    0 -0.58493495274E+02 -0.19066991488E+03 -0.20856084197E+03  0.28857257359E+03  0.00000000000E+00 0. -1.
        -13    1    3    3    0    0 -0.20695299940E+03 -0.30594593866E+03 -0.31289129939E+03  0.48407997952E+03  0.00000000000E+00 0.  1.
         22    1    1    2    0    0  0.26544649467E+03  0.49661585353E+03 -0.54620141253E+03  0.78449036359E+03  0.00000000000E+00 0. -1.
<mgrwt>
<rscale>  0 0.11334946E+04</rscale>
<asrwt>0</asrwt>
<pdfrwt beam="1">  1        1 0.37653027E-01 0.11334946E+04</pdfrwt>
<pdfrwt beam="2">  1       -1 0.20190742E+00 0.11334946E+04</pdfrwt>
<totfact> 0.16610417E+01</totfact>
</mgrwt>
</event>
<event>
 6    1  0.1072514E-005  0.2495154E+04  0.7818608E-02  0.8404714E-01
         -2   -1    0    0    0  501 -0.00000000000E+00  0.00000000000E+00  0.10840161351E+04  0.10840161351E+04  0.00000000000E+00 0.  1.
          2   -1    0    0  501    0  0.00000000000E+00 -0.00000000000E+00 -0.14358166604E+04  0.14358166604E+04  0.00000000000E+00 0. -1.
         23    2    1    2    0    0 -0.74050757960E+03  0.20722641923E+03 -0.11661808243E+04  0.13997838968E+04  0.90127567654E+02 0.  0.
         13    1    3    3    0    0 -0.27182721719E+03  0.69534619865E+02 -0.50520274935E+03  0.57788832599E+03  0.00000000000E+00 0.  1.
        -13    1    3    3    0    0 -0.46868036241E+03  0.13769179937E+03 -0.66097807494E+03  0.82189557078E+03  0.00000000000E+00 0. -1.
         22    1    1    2    0    0  0.74050757960E+03 -0.20722641923E+03  0.81438029899E+03  0.11200488988E+04  0.00000000000E+00 0.  1.
<mgrwt>
<rscale>  0 0.24951540E+04</rscale>
<asrwt>0</asrwt>
<pdfrwt beam="1">  1        2 0.22089487E+00 0.24951540E+04</pdfrwt>
<pdfrwt beam="2">  1       -2 0.16677171E+00 0.24951540E+04</pdfrwt>
<totfact> 0.27690723E+00</totfact>
</mgrwt>
</event>
<event>
 6    1  0.1072514E-005  0.1290647E+04  0.7818608E-02  0.9037015E-01
         -2   -1    0    0    0  501 -0.00000000000E+00  0.00000000000E+00  0.12629081348E+03  0.12629081348E+03  0.00000000000E+00 0.  1.
          2   -1    0    0  501    0  0.00000000000E+00 -0.00000000000E+00 -0.32974894600E+04  0.32974894600E+04  0.00000000000E+00 0. -1.
         23    2    1    2    0    0  0.32514345440E+03 -0.49554770515E+02 -0.30563660444E+04  0.30754119803E+04  0.92798221240E+02 0.  0.
         11    1    3    3    0    0  0.24357860336E+03 -0.77294684657E+02 -0.22658180765E+04  0.22801834488E+04  0.00000000000E+00 0. -1.
        -11    1    3    3    0    0  0.81564851036E+02  0.27739914142E+02 -0.79054796786E+03  0.79522853146E+03  0.00000000000E+00 0.  1.
         22    1    1    2    0    0 -0.32514345440E+03  0.49554770515E+02 -0.11483260215E+03  0.34836829324E+03  0.00000000000E+00 0.  1.
<mgrwt>
<rscale>  0 0.12906473E+04</rscale>
<asrwt>0</asrwt>
<pdfrwt beam="1">  1        2 0.50730614E+00 0.12906473E+04</pdfrwt>
<pdfrwt beam="2">  1       -2 0.19429353E-01 0.12906473E+04</pdfrwt>
<totfact> 0.25087812E+01</totfact>
</mgrwt>
</event>
<event>
 6    1  0.1072514E-005  0.2557065E+04  0.7818608E-02  0.8382933E-01
         -2   -1    0    0    0  501 -0.00000000000E+00  0.00000000000E+00  0.56145025033E+03  0.56145025033E+03  0.00000000000E+00 0.  1.
          2   -1    0    0  501    0  0.00000000000E+00 -0.00000000000E+00 -0.29114703619E+04  0.29114703619E+04  0.00000000000E+00 0. -1.
         23    2    1    2    0    0 -0.39243702388E+03  0.10872547438E+04 -0.19134092310E+04  0.22372998141E+04  0.90806813635E+02 0.  0.
         13    1    3    3    0    0 -0.11260543471E+03  0.38455711052E+03 -0.59535802369E+03  0.71764568663E+03  0.00000000000E+00 0. -1.
        -13    1    3    3    0    0 -0.27983158917E+03  0.70269763329E+03 -0.13180512073E+04  0.15196541275E+04  0.00000000000E+00 0.  1.
         22    1    1    2    0    0  0.39243702388E+03 -0.10872547438E+04 -0.43661088056E+03  0.12356207981E+04  0.00000000000E+00 0.  1.
<mgrwt>
<rscale>  0 0.25570653E+04</rscale>
<asrwt>0</asrwt>
<pdfrwt beam="1">  1        2 0.44791851E+00 0.25570653E+04</pdfrwt>
<pdfrwt beam="2">  1       -2 0.86376962E-01 0.25570653E+04</pdfrwt>
<totfact> 0.20378626E+00</totfact>
</mgrwt>
</event>
<event>
 6    1  0.1072514E-005  0.2521979E+04  0.7818608E-02  0.8395197E-01
         -1   -1    0    0    0  501 -0.00000000000E+00  0.00000000000E+00  0.64410600417E+03  0.64410600417E+03  0.00000000000E+00 0.  1.
          1   -1    0    0  501    0  0.00000000000E+00 -0.00000000000E+00 -0.24686844596E+04  0.24686844596E+04  0.00000000000E+00 0. -1.
         23    2    1    2    0    0  0.48378215933E+03  0.27956157876E+03 -0.23064944604E+04  0.23749267298E+04  0.90335053369E+02 0.  0.
         11    1    3    3    0    0  0.39183600173E+03  0.18815834358E+03 -0.18500036581E+04  0.19003822114E+04  0.00000000000E+00 0. -1.
        -11    1    3    3    0    0  0.91946157602E+02  0.91403235182E+02 -0.45649080231E+03  0.47454451834E+03  0.00000000000E+00 0.  1.
         22    1    1    2    0    0 -0.48378215933E+03 -0.27956157876E+03  0.48191600501E+03  0.73786373396E+03  0.00000000000E+00 0.  1.
<mgrwt>
<rscale>  0 0.25219790E+04</rscale>
<asrwt>0</asrwt>
<pdfrwt beam="1">  1        1 0.37979761E+00 0.25219790E+04</pdfrwt>
<pdfrwt beam="2">  1       -1 0.99093231E-01 0.25219790E+04</pdfrwt>
<totfact> 0.12285864E+00</totfact>
</mgrwt>
</event>
<event>
 6    1  0.1072514E-005  0.2186170E+04  0.7818608E-02  0.8524207E-01
         -1   -1    0    0    0  501 -0.00000000000E+00  0.00000000000E+00  0.58018126928E+03  0.58018126928E+03  0.00000000000E+00 0.  1.
          1   -1    0    0  501    0  0.00000000000E+00 -0.00000000000E+00 -0.20594166576E+04  0.20594166576E+04  0.00000000000E+00 0. -1.
         23    2    1    2    0    0 -0.28685117348E+03  0.18706577674E+03  0.51084126149E+03  0.62027074371E+03  0.80621340301E+02 0.  0.
         13    1    3    3    0    0 -0.23070886447E+03  0.15466412533E+03  0.34972785425E+03  0.44660625147E+03  0.00000000000E+00 0. -1.
        -13    1    3    3    0    0 -0.56142309003E+02  0.32401651408E+02  0.16111340724E+03  0.17366449224E+03  0.00000000000E+00 0.  1.
         22    1    1    2    0    0  0.28685117348E+03 -0.18706577674E+03 -0.19900766498E+04  0.20193271832E+04  0.00000000000E+00 0. -1.
<mgrwt>
<rscale>  0 0.21861701E+04</rscale>
<asrwt>0</asrwt>
<pdfrwt beam="1">  1        1 0.31683333E+00 0.21861701E+04</pdfrwt>
<pdfrwt beam="2">  1       -1 0.89258657E-01 0.21861701E+04</pdfrwt>
<totfact> 0.30489693E+00</totfact>
</mgrwt>
</event>
<event>
 6    1  0.1072514E-005  0.1628700E+04  0.7818608E-02  0.8803108E-01
         -2   -1    0    0    0  501 -0.00000000000E+00  0.00000000000E+00  0.15865890869E+03  0.15865890869E+03  0.00000000000E+00 0.  1.
          2   -1    0    0  501    0  0.00000000000E+00 -0.00000000000E+00 -0.41798219519E+04  0.41798219519E+04  0.00000000000E+00 0. -1.
         23    2    1    2    0    0 -0.35038798732E+01 -0.74744728794E+03 -0.28610265598E+04  0.29584060853E+04  0.89464316051E+02 0.  0.
         11    1    3    3    0    0 -0.11813684881E+02 -0.31741242414E+03 -0.13872117628E+04  0.14231116207E+04  0.00000000000E+00 0.  1.
        -11    1    3    3    0    0  0.83098050076E+01 -0.43003486380E+03 -0.14738147970E+04  0.15352944645E+04  0.00000000000E+00 0. -1.
         22    1    1    2    0    0  0.35038798732E+01  0.74744728794E+03 -0.11601364834E+04  0.13800747753E+04  0.00000000000E+00 0.  1.
<mgrwt>
<rscale>  0 0.16287001E+04</rscale>
<asrwt>0</asrwt>
<pdfrwt beam="1">  1        2 0.64304964E+00 0.16287001E+04</pdfrwt>
<pdfrwt beam="2">  1       -2 0.24409059E-01 0.16287001E+04</pdfrwt>
<totfact> 0.35497810E+00</totfact>
</mgrwt>
</event>
<event>
 6    1  0.1072514E-005  0.2720403E+04  0.7818608E-02  0.8328415E-01
          2   -1    0    0  501    0  0.00000000000E+00  0.00000000000E+00  0.25861444983E+04  0.25861444983E+04  0.00000000000E+00 0. -1.
         -2   -1    0    0    0  501 -0.00000000000E+00 -0.00000000000E+00 -0.71540804599E+03  0.71540804599E+03  0.00000000000E+00 0.  1.
         23    2    1    2    0    0  0.99981221996E+03  0.48378258475E+03  0.18859460559E+04  0.21907414008E+04  0.94261842251E+02 0.  0.
         11    1    3    3    0    0  0.37681336523E+03  0.22328765700E+03  0.68830433715E+03  0.81584836246E+03  0.00000000000E+00 0. -1.
        -11    1    3    3    0    0  0.62299885473E+03  0.26049492775E+03  0.11976417188E+04  0.13748930384E+04  0.00000000000E+00 0.  1.
         22    1    1    2    0    0 -0.99981221996E+03 -0.48378258475E+03 -0.15209603574E+02  0.11108111435E+04  0.00000000000E+00 0.  1.
<mgrwt>
<rscale>  0 0.27204033E+04</rscale>
<asrwt>0</asrwt>
<pdfrwt beam="1">  1        2 0.39786838E+00 0.27204033E+04</pdfrwt>
<pdfrwt beam="2">  1       -2 0.11006278E+00 0.27204033E+04</pdfrwt>
<totfact> 0.17813495E+00</totfact>
</mgrwt>
</event>
<event>
 6    1  0.1072514E-005  0.1014063E+04  0.7818608E-02  0.9293254E-01
         -2   -1    0    0    0  501 -0.00000000000E+00  0.00000000000E+00  0.19879631921E+03  0.19879631921E+03  0.00000000000E+00 0. -1.
          2   -1    0    0  501    0  0.00000000000E+00 -0.00000000000E+00 -0.12931869031E+04  0.12931869031E+04  0.00000000000E+00 0.  1.
         23    2    1    2    0    0 -0.26355373289E+03  0.42744711301E+03 -0.48996655451E+03  0.70617153251E+03  0.80245898651E+02 0.  0.
         13    1    3    3    0    0 -0.10785090606E+03  0.10655656445E+03 -0.13600680824E+03  0.20367614307E+03  0.00000000000E+00 0. -1.
        -13    1    3    3    0    0 -0.15570282683E+03  0.32089054855E+03 -0.35395974627E+03  0.50249538945E+03  0.00000000000E+00 0.  1.
         22    1    1    2    0    0  0.26355373289E+03 -0.42744711301E+03 -0.60442402937E+03  0.78581168980E+03  0.00000000000E+00 0. -1.
<mgrwt>
<rscale>  0 0.10140627E+04</rscale>
<asrwt>0</asrwt>
<pdfrwt beam="1">  1        2 0.19895184E+00 0.10140627E+04</pdfrwt>
<pdfrwt beam="2">  1       -2 0.30584048E-01 0.10140627E+04</pdfrwt>
<totfact> 0.16441237E+02</totfact>
</mgrwt>
</event>
<event>
 6    1  0.1072514E-005  0.1275696E+04  0.7818608E-02  0.9049064E-01
         -1   -1    0    0    0  501 -0.00000000000E+00  0.00000000000E+00  0.11097188752E+04  0.11097188752E+04  0.00000000000E+00 0.  1.
          1   -1    0    0  501    0  0.00000000000E+00 -0.00000000000E+00 -0.36662434349E+03  0.36662434349E+03  0.00000000000E+00 0. -1.
         23    2    1    2    0    0  0.21745739828E+03  0.45579657013E+03  0.81676726056E+03  0.96598461496E+03  0.10478208345E+03 0.  0.
         11    1    3    3    0    0  0.19561095649E+03  0.30424183645E+03  0.54646340199E+03  0.65532357737E+03  0.00000000000E+00 0. -1.
        -11    1    3    3    0    0  0.21846441798E+02  0.15155473368E+03  0.27030385857E+03  0.31066103759E+03  0.00000000000E+00 0.  1.
         22    1    1    2    0    0 -0.21745739828E+03 -0.45579657013E+03 -0.73672728859E+02  0.51035860372E+03  0.00000000000E+00 0. -1.
<mgrwt>
<rscale>  0 0.12756958E+04</rscale>
<asrwt>0</asrwt>
<pdfrwt beam="1">  1        1 0.56403746E-01 0.12756958E+04</pdfrwt>
<pdfrwt beam="2">  1       -1 0.17072598E+00 0.12756958E+04</pdfrwt>
<totfact> 0.16114496E+01</totfact>
</mgrwt>
</event>
<event>
 6    1  0.1072514E-005  0.2329443E+04  0.7818608E-02  0.8466402E-01
          1   -1    0    0  501    0  0.00000000000E+00  0.00000000000E+00  0.11949407056E+04  0.11949407056E+04  0.00000000000E+00 0. -1.
         -1   -1    0    0    0  501 -0.00000000000E+00 -0.00000000000E+00 -0.11352665644E+04  0.11352665644E+04  0.00000000000E+00 0.  1.
         23    2    1    2    0    0  0.71877828434E+03 -0.17647027373E+03  0.92728415939E+03  0.11897989558E+04  0.89340156197E+02 0.  0.
         13    1    3    3    0    0  0.29785903992E+03 -0.10535933466E+03  0.34515723091E+03  0.46792532643E+03  0.00000000000E+00 0. -1.
        -13    1    3    3    0    0  0.42091924441E+03 -0.71110939069E+02  0.58212692847E+03  0.72187362940E+03  0.00000000000E+00 0.  1.
         22    1    1    2    0    0 -0.71877828434E+03  0.17647027373E+03 -0.86761001816E+03  0.11404083142E+04  0.00000000000E+00 0.  1.
<mgrwt>
<rscale>  0 0.23294430E+04</rscale>
<asrwt>0</asrwt>
<pdfrwt beam="1">  1        1 0.18383703E+00 0.23294430E+04</pdfrwt>
<pdfrwt beam="2">  1       -1 0.17465639E+00 0.23294430E+04</pdfrwt>
<totfact> 0.22106389E+00</totfact>
</mgrwt>
</event>
<event>
 6    1  0.1072514E-005  0.2041741E+04  0.7818608E-02  0.8587350E-01
          2   -1    0    0  501    0  0.00000000000E+00  0.00000000000E+00  0.31117171600E+04  0.31117171600E+04  0.00000000000E+00 0.  1.
         -2   -1    0    0    0  501 -0.00000000000E+00 -0.00000000000E+00 -0.33491998772E+03  0.33491998772E+03  0.00000000000E+00 0. -1.
         23    2    1    2    0    0  0.31788653746E+03  0.66523840175E+03  0.25780118070E+04  0.26830210116E+04  0.94142923112E+02 0.  0.
         11    1    3    3    0    0  0.14036356972E+03  0.35061228738E+03  0.11723118976E+04  0.12316436550E+04  0.00000000000E+00 0. -1.
        -11    1    3    3    0    0  0.17752296774E+03  0.31462611437E+03  0.14056999094E+04  0.14513773566E+04  0.00000000000E+00 0.  1.
         22    1    1    2    0    0 -0.31788653746E+03 -0.66523840175E+03  0.19878536529E+03  0.76361613610E+03  0.00000000000E+00 0. -1.
<mgrwt>
<rscale>  0 0.20417407E+04</rscale>
<asrwt>0</asrwt>
<pdfrwt beam="1">  1        2 0.47872570E+00 0.20417407E+04</pdfrwt>
<pdfrwt beam="2">  1       -2 0.51526154E-01 0.20417407E+04</pdfrwt>
<totfact> 0.48860341E+00</totfact>
</mgrwt>
</event>
<event>
 6    1  0.1072514E-005  0.3679456E+04  0.7818608E-02  0.8072530E-01
          1   -1    0    0  501    0  0.00000000000E+00  0.00000000000E+00  0.14412266335E+04  0.14412266335E+04  0.00000000000E+00 0. -1.
         -1   -1    0    0    0  501 -0.00000000000E+00 -0.00000000000E+00 -0.23484153060E+04  0.23484153060E+04  0.00000000000E+00 0.  1.
         23    2    1    2    0    0 -0.50712031806E+03  0.17251502237E+04 -0.84902778858E+03  0.19905596735E+04  0.90362142244E+02 0.  0.
         11    1    3    3    0    0 -0.63265239933E+02  0.30265596614E+03 -0.17225039374E+03  0.35393971601E+03  0.00000000000E+00 0. -1.
        -11    1    3    3    0    0 -0.44385507812E+03  0.14224942576E+04 -0.67677739485E+03  0.16366199575E+04  0.00000000000E+00 0.  1.
         22    1    1    2    0    0  0.50712031806E+03 -0.17251502237E+04 -0.58160883880E+02  0.17990822660E+04  0.00000000000E+00 0. -1.
<mgrwt>
<rscale>  0 0.36794558E+04</rscale>
<asrwt>0</asrwt>
<pdfrwt beam="1">  1        1 0.22172718E+00 0.36794558E+04</pdfrwt>
<pdfrwt beam="2">  1       -1 0.36129466E+00 0.36794558E+04</pdfrwt>
<totfact> 0.75455780E-02</totfact>
</mgrwt>
</event>
<event>
 6    1  0.1072514E-005  0.5209317E+04  0.7818608E-02  0.7797005E-01
          1   -1    0    0  501    0  0.00000000000E+00  0.00000000000E+00  0.30628837470E+04  0.30628837470E+04  0.00000000000E+00 0. -1.
         -1   -1    0    0    0  501 -0.00000000000E+00 -0.00000000000E+00 -0.22149866878E+04  0.22149866878E+04  0.00000000000E+00 0.  1.
         23    2    1    2    0    0  0.25663593744E+03 -0.29585161684E+03  0.30322110070E+04  0.30587224888E+04  0.89941588610E+02 0.  0.
         13    1    3    3    0    0  0.15790147643E+03 -0.20511951733E+03  0.22806055150E+04  0.22952490949E+04  0.00000000000E+00 0.  1.
        -13    1    3    3    0    0  0.98734461013E+02 -0.90732099514E+02  0.75160549197E+03  0.76347339393E+03  0.00000000000E+00 0. -1.
         22    1    1    2    0    0 -0.25663593744E+03  0.29585161684E+03 -0.21843139478E+04  0.22191479460E+04  0.00000000000E+00 0.  1.
<mgrwt>
<rscale>  0 0.52093173E+04</rscale>
<asrwt>0</asrwt>
<pdfrwt beam="1">  1        1 0.47121288E+00 0.52093173E+04</pdfrwt>
<pdfrwt beam="2">  1       -1 0.34076718E+00 0.52093173E+04</pdfrwt>
<totfact> 0.68260549E-03</totfact>
</mgrwt>
</event>
<event>
 6    1  0.1072514E-005  0.3622764E+04  0.7818608E-02  0.8085297E-01
          2   -1    0    0  501    0  0.00000000000E+00  0.00000000000E+00  0.20021135613E+04  0.20021135613E+04  0.00000000000E+00 0. -1.
         -2   -1    0    0    0  501 -0.00000000000E+00 -0.00000000000E+00 -0.16388207563E+04  0.16388207563E+04  0.00000000000E+00 0.  1.
         23    2    1    2    0    0 -0.14021964746E+04  0.96670201695E+03 -0.43472660315E+03  0.17601093074E+04  0.91267802148E+02 0.  0.
         13    1    3    3    0    0 -0.25927955273E+03  0.14709024898E+03 -0.52622181756E+02  0.30270533828E+03  0.00000000000E+00 0.  1.
        -13    1    3    3    0    0 -0.11429169218E+04  0.81961176797E+03 -0.38210442139E+03  0.14574039691E+04  0.00000000000E+00 0. -1.
         22    1    1    2    0    0  0.14021964746E+04 -0.96670201695E+03  0.79801940819E+03  0.18808250101E+04  0.00000000000E+00 0. -1.
<mgrwt>
<rscale>  0 0.36227643E+04</rscale>
<asrwt>0</asrwt>
<pdfrwt beam="1">  1        2 0.30801747E+00 0.36227643E+04</pdfrwt>
<pdfrwt beam="2">  1       -2 0.25212627E+00 0.36227643E+04</pdfrwt>
<totfact> 0.33802416E-01</totfact>
</mgrwt>
</event>
<event>
 6    1  0.1072514E-005  0.2001110E+04  0.7818608E-02  0.8606102E-01
          2   -1    0    0  501    0  0.00000000000E+00  0.00000000000E+00  0.22635132687E+04  0.22635132687E+04  0.00000000000E+00 0. -1.
         -2   -1    0    0    0  501 -0.00000000000E+00 -0.00000000000E+00 -0.44228145881E+03  0.44228145881E+03  0.00000000000E+00 0.  1.
         23    2    1    2    0    0  0.64497039035E+03  0.19442933993E+03  0.19091497184E+04  0.20264427338E+04  0.88475611203E+02 0.  0.
         13    1    3    3    0    0  0.53716807487E+03  0.15883924236E+03  0.14777560883E+04  0.15803615099E+04  0.00000000000E+00 0.  1.
        -13    1    3    3    0    0  0.10780231548E+03  0.35590097566E+02  0.43139363006E+03  0.44608122391E+03  0.00000000000E+00 0. -1.
         22    1    1    2    0    0 -0.64497039035E+03 -0.19442933993E+03 -0.87917908484E+02  0.67935199366E+03  0.00000000000E+00 0.  1.
<mgrwt>
<rscale>  0 0.20011096E+04</rscale>
<asrwt>0</asrwt>
<pdfrwt beam="1">  1        2 0.34823280E+00 0.20011096E+04</pdfrwt>
<pdfrwt beam="2">  1       -2 0.68043303E-01 0.20011096E+04</pdfrwt>
<totfact> 0.87352543E+00</totfact>
</mgrwt>
</event>
<event>
 6    1  0.1072514E-005  0.1695487E+04  0.7818608E-02  0.8763943E-01
         -2   -1    0    0    0  501 -0.00000000000E+00  0.00000000000E+00  0.89423494714E+03  0.89423494714E+03  0.00000000000E+00 0.  1.
          2   -1    0    0  501    0  0.00000000000E+00 -0.00000000000E+00 -0.80366906046E+03  0.80366906046E+03  0.00000000000E+00 0. -1.
         23    2    1    2    0    0 -0.53651958678E+03 -0.53313093644E+03  0.42330531418E+03  0.87158845710E+03  0.91636167227E+02 0.  0.
         13    1    3    3    0    0 -0.33251102303E+03 -0.26923333228E+03  0.25332525239E+03  0.49721610105E+03  0.00000000000E+00 0. -1.
        -13    1    3    3    0    0 -0.20400856375E+03 -0.26389760416E+03  0.16998006179E+03  0.37437235605E+03  0.00000000000E+00 0.  1.
         22    1    1    2    0    0  0.53651958678E+03  0.53313093644E+03 -0.33273942751E+03  0.82631555050E+03  0.00000000000E+00 0. -1.
<mgrwt>
<rscale>  0 0.16954869E+04</rscale>
<asrwt>0</asrwt>
<pdfrwt beam="1">  1        2 0.12364139E+00 0.16954869E+04</pdfrwt>
<pdfrwt beam="2">  1       -2 0.13757461E+00 0.16954869E+04</pdfrwt>
<totfact> 0.12244318E+01</totfact>
</mgrwt>
</event>
<event>
 6    1  0.1072514E-005  0.2699873E+04  0.7818608E-02  0.8335046E-01
          2   -1    0    0  501    0  0.00000000000E+00  0.00000000000E+00  0.23850132032E+04  0.23850132032E+04  0.00000000000E+00 0. -1.
         -2   -1    0    0    0  501 -0.00000000000E+00 -0.00000000000E+00 -0.76407510687E+03  0.76407510687E+03  0.00000000000E+00 0.  1.
         23    2    1    2    0    0  0.68837369895E+03 -0.73939833660E+03 -0.23029355463E+03  0.10401485587E+04  0.91135356590E+02 0.  0.
         11    1    3    3    0    0  0.35453148058E+03 -0.33179176662E+03 -0.14219459309E+03  0.50596210275E+03  0.00000000000E+00 0.  1.
        -11    1    3    3    0    0  0.33384221837E+03 -0.40760656998E+03 -0.88098961536E+02  0.53418645591E+03  0.00000000000E+00 0. -1.
         22    1    1    2    0    0 -0.68837369895E+03  0.73939833660E+03  0.18512316510E+04  0.21089397514E+04  0.00000000000E+00 0. -1.
<mgrwt>
<rscale>  0 0.26998735E+04</rscale>
<asrwt>0</asrwt>
<pdfrwt beam="1">  1        2 0.36692510E+00 0.26998735E+04</pdfrwt>
<pdfrwt beam="2">  1       -2 0.11755002E+00 0.26998735E+04</pdfrwt>
<totfact> 0.19875471E+00</totfact>
</mgrwt>
</event>
<event>
 6    1  0.1072514E-005  0.1526203E+04  0.7818608E-02  0.8867213E-01
          1   -1    0    0  501    0  0.00000000000E+00  0.00000000000E+00  0.94259090697E+03  0.94259090697E+03  0.00000000000E+00 0. -1.
         -1   -1    0    0    0  501 -0.00000000000E+00 -0.00000000000E+00 -0.61779033407E+03  0.61779033407E+03  0.00000000000E+00 0.  1.
         23    2    1    2    0    0 -0.22690661265E+03  0.69145438984E+03  0.38875808242E+03  0.82984284566E+03  0.88941091451E+02 0.  0.
         13    1    3    3    0    0 -0.10120186567E+03  0.23731287417E+03  0.97050195796E+02  0.27564099543E+03  0.00000000000E+00 0. -1.
        -13    1    3    3    0    0 -0.12570474699E+03  0.45414151568E+03  0.29170788663E+03  0.55420185023E+03  0.00000000000E+00 0.  1.
         22    1    1    2    0    0  0.22690661265E+03 -0.69145438984E+03 -0.63957509523E+02  0.73053839538E+03  0.00000000000E+00 0.  1.
<mgrwt>
<rscale>  0 0.15262025E+04</rscale>
<asrwt>0</asrwt>
<pdfrwt beam="1">  1        1 0.14501399E+00 0.15262025E+04</pdfrwt>
<pdfrwt beam="2">  1       -1 0.95044667E-01 0.15262025E+04</pdfrwt>
<totfact> 0.17354416E+01</totfact>
</mgrwt>
</event>
<event>
 6    1  0.1072514E-005  0.5068198E+04  0.7818608E-02  0.7818072E-01
          1   -1    0    0  501    0  0.00000000000E+00  0.00000000000E+00  0.33904297467E+04  0.33904297467E+04  0.00000000000E+00 0. -1.
         -1   -1    0    0    0  501 -0.00000000000E+00 -0.00000000000E+00 -0.18940539659E+04  0.18940539659E+04  0.00000000000E+00 0.  1.
         23    2    1    2    0    0  0.18244222374E+04  0.17250390754E+04  0.39776306638E+03  0.25438220756E+04  0.92406619904E+02 0.  0.
         13    1    3    3    0    0  0.95974187067E+03  0.84774524431E+03  0.18669347576E+03  0.12940753114E+04  0.00000000000E+00 0. -1.
        -13    1    3    3    0    0  0.86468036673E+03  0.87729383111E+03  0.21106959062E+03  0.12497467643E+04  0.00000000000E+00 0.  1.
         22    1    1    2    0    0 -0.18244222374E+04 -0.17250390754E+04  0.10986127145E+04  0.27406616370E+04  0.00000000000E+00 0. -1.
<mgrwt>
<rscale>  0 0.50681977E+04</rscale>
<asrwt>0</asrwt>
<pdfrwt beam="1">  1        1 0.52160457E+00 0.50681977E+04</pdfrwt>
<pdfrwt beam="2">  1       -1 0.29139292E+00 0.50681977E+04</pdfrwt>
<totfact> 0.82002222E-03</totfact>
</mgrwt>
</event>
<event>
 6    1  0.1072514E-005  0.7324648E+03  0.7818608E-02  0.9663269E-01
         -2   -1    0    0    0  501 -0.00000000000E+00  0.00000000000E+00  0.16862211811E+03  0.16862211811E+03  0.00000000000E+00 0.  1.
          2   -1    0    0  501    0  0.00000000000E+00 -0.00000000000E+00 -0.79542445589E+03  0.79542445589E+03  0.00000000000E+00 0. -1.
         23    2    1    2    0    0 -0.58077055725E+02  0.41271519110E+02 -0.78372269101E+03  0.79170888239E+03  0.86633800374E+02 0.  0.
         13    1    3    3    0    0 -0.65045111778E+02  0.59358556435E+02 -0.71157162531E+03  0.71699963928E+03  0.00000000000E+00 0.  1.
        -13    1    3    3    0    0  0.69680560536E+01 -0.18087037325E+02 -0.72151065699E+02  0.74709243109E+02  0.00000000000E+00 0. -1.
         22    1    1    2    0    0  0.58077055725E+02 -0.41271519110E+02  0.15692035323E+03  0.17233769161E+03  0.00000000000E+00 0.  1.
<mgrwt>
<rscale>  0 0.73246476E+03</rscale>
<asrwt>0</asrwt>
<pdfrwt beam="1">  1        2 0.12237299E+00 0.73246476E+03</pdfrwt>
<pdfrwt beam="2">  1       -2 0.25941864E-01 0.73246476E+03</pdfrwt>
<totfact> 0.46782136E+02</totfact>
</mgrwt>
</event>
<event>
 6    1  0.1072514E-005  0.2971462E+04  0.7818608E-02  0.8251927E-01
         -2   -1    0    0    0  501 -0.00000000000E+00  0.00000000000E+00  0.12511938899E+04  0.12511938899E+04  0.00000000000E+00 0.  1.
          2   -1    0    0  501    0  0.00000000000E+00 -0.00000000000E+00 -0.17642326669E+04  0.17642326669E+04  0.00000000000E+00 0. -1.
         23    2    1    2    0    0 -0.41114923796E+03  0.93972327436E+03 -0.13454908503E+04  0.16944042321E+04  0.92393426505E+02 0.  0.
         13    1    3    3    0    0 -0.86178991446E+02  0.18384127650E+03 -0.20943529717E+03  0.29169774976E+03  0.00000000000E+00 0.  1.
        -13    1    3    3    0    0 -0.32497024652E+03  0.75588199786E+03 -0.11360555531E+04  0.14027064823E+04  0.00000000000E+00 0. -1.
         22    1    1    2    0    0  0.41114923796E+03 -0.93972327436E+03  0.83245207330E+03  0.13210223248E+04  0.00000000000E+00 0.  1.
<mgrwt>
<rscale>  0 0.29714624E+04</rscale>
<asrwt>0</asrwt>
<pdfrwt beam="1">  1        2 0.27142041E+00 0.29714624E+04</pdfrwt>
<pdfrwt beam="2">  1       -2 0.19249137E+00 0.29714624E+04</pdfrwt>
<totfact> 0.11561385E+00</totfact>
</mgrwt>
</event>
<event>
 6    1  0.1072514E-005  0.1368384E+04  0.7818608E-02  0.8977027E-01
         -1   -1    0    0    0  501 -0.00000000000E+00  0.00000000000E+00  0.15887515903E+03  0.15887515903E+03  0.00000000000E+00 0.  1.
          1   -1    0    0  501    0  0.00000000000E+00 -0.00000000000E+00 -0.29464581460E+04  0.29464581460E+04  0.00000000000E+00 0. -1.
         23    2    1    2    0    0 -0.89678289881E+02  0.63270908694E+03 -0.19360315077E+04  0.20406723702E+04  0.88106408316E+02 0.  0.
         11    1    3    3    0    0 -0.44316026569E+02  0.47421298629E+03 -0.13338857964E+04  0.14163661901E+04  0.00000000000E+00 0.  1.
        -11    1    3    3    0    0 -0.45362263313E+02  0.15849610065E+03 -0.60214571129E+03  0.62430618007E+03  0.00000000000E+00 0. -1.
         22    1    1    2    0    0  0.89678289881E+02 -0.63270908694E+03 -0.85155147928E+03  0.10646609349E+04  0.00000000000E+00 0.  1.
<mgrwt>
<rscale>  0 0.13683845E+04</rscale>
<asrwt>0</asrwt>
<pdfrwt beam="1">  1        1 0.45330125E+00 0.13683845E+04</pdfrwt>
<pdfrwt beam="2">  1       -1 0.24442332E-01 0.13683845E+04</pdfrwt>
<totfact> 0.93799261E+00</totfact>
</mgrwt>
</event>
<event>
 6    1  0.1072514E-005  0.2139129E+04  0.7818608E-02  0.8544200E-01
         -1   -1    0    0    0  501 -0.00000000000E+00  0.00000000000E+00  0.91967931866E+03  0.91967931866E+03  0.00000000000E+00 0.  1.
          1   -1    0    0  501    0  0.00000000000E+00 -0.00000000000E+00 -0.12438775369E+04  0.12438775369E+04  0.00000000000E+00 0. -1.
         23    2    1    2    0    0  0.99678613897E+03  0.34682754530E+03  0.10143092070E+01  0.10591859301E+04  0.89453075091E+02 0.  0.
         11    1    3    3    0    0  0.44525598715E+03  0.10800669951E+03  0.90670578437E+00  0.45816936099E+03  0.00000000000E+00 0. -1.
        -11    1    3    3    0    0  0.55153015181E+03  0.23882084579E+03  0.10760342267E+00  0.60101656909E+03  0.00000000000E+00 0.  1.
         22    1    1    2    0    0 -0.99678613897E+03 -0.34682754530E+03 -0.32521252743E+03  0.11043709255E+04  0.00000000000E+00 0. -1.
<mgrwt>
<rscale>  0 0.21391292E+04</rscale>
<asrwt>0</asrwt>
<pdfrwt beam="1">  1        1 0.19136577E+00 0.21391292E+04</pdfrwt>
<pdfrwt beam="2">  1       -1 0.14148913E+00 0.21391292E+04</pdfrwt>
<totfact> 0.37098780E+00</totfact>
</mgrwt>
</event>
<event>
 6    1  0.1072514E-005  0.1609186E+04  0.7818608E-02  0.8814924E-01
         -1   -1    0    0    0  501 -0.00000000000E+00  0.00000000000E+00  0.24957566370E+03  0.24957566370E+03  0.00000000000E+00 0.  1.
          1   -1    0    0  501    0  0.00000000000E+00 -0.00000000000E+00 -0.25938826437E+04  0.25938826437E+04  0.00000000000E+00 0. -1.
         23    2    1    2    0    0 -0.55505285974E+03  0.24248381492E+03 -0.24696615829E+03  0.66040526177E+03  0.90888661732E+02 0.  0.
         13    1    3    3    0    0 -0.31176821113E+03  0.18482126606E+03 -0.14291152958E+03  0.38959212408E+03  0.00000000000E+00 0.  1.
        -13    1    3    3    0    0 -0.24328464861E+03  0.57662548866E+02 -0.10405462871E+03  0.27081313769E+03  0.00000000000E+00 0. -1.
         22    1    1    2    0    0  0.55505285974E+03 -0.24248381492E+03 -0.20973408217E+04  0.21830530457E+04  0.00000000000E+00 0. -1.
<mgrwt>
<rscale>  0 0.16091861E+04</rscale>
<asrwt>0</asrwt>
<pdfrwt beam="1">  1        1 0.39905887E+00 0.16091861E+04</pdfrwt>
<pdfrwt beam="2">  1       -1 0.38396256E-01 0.16091861E+04</pdfrwt>
<totfact> 0.73511366E+00</totfact>
</mgrwt>
</event>
<event>
 6    1  0.1072514E-005  0.4526054E+03  0.7818608E-02  0.1026948E+00
          1   -1    0    0  501    0  0.00000000000E+00  0.00000000000E+00  0.94155842760E+03  0.94155842760E+03  0.00000000000E+00 0. -1.
         -1   -1    0    0    0  501 -0.00000000000E+00 -0.00000000000E+00 -0.54391653329E+02  0.54391653329E+02  0.00000000000E+00 0.  1.
         23    2    1    2    0    0 -0.79052988906E+02  0.36177356157E+02  0.89922607669E+03  0.90817990987E+03  0.92871069433E+02 0.  0.
         13    1    3    3    0    0 -0.40923372242E+02 -0.26588377234E+02  0.24261897834E+03  0.24747855028E+03  0.00000000000E+00 0. -1.
        -13    1    3    3    0    0 -0.38129616664E+02  0.62765733392E+02  0.65660709835E+03  0.66070135959E+03  0.00000000000E+00 0.  1.
         22    1    1    2    0    0  0.79052988906E+02 -0.36177356157E+02 -0.12059302416E+02  0.87770171062E+02  0.00000000000E+00 0.  1.
<mgrwt>
<rscale>  0 0.45260543E+03</rscale>
<asrwt>0</asrwt>
<pdfrwt beam="1">  1        1 0.14485513E+00 0.45260543E+03</pdfrwt>
<pdfrwt beam="2">  1       -1 0.83679474E-02 0.45260543E+03</pdfrwt>
<totfact> 0.14219769E+03</totfact>
</mgrwt>
</event>
<event>
 6    1  0.1072514E-005  0.6955728E+04  0.7818608E-02  0.7582018E-01
         -2   -1    0    0    0  501 -0.00000000000E+00  0.00000000000E+00  0.32203552396E+04  0.32203552396E+04  0.00000000000E+00 0.  1.
          2   -1    0    0  501    0  0.00000000000E+00 -0.00000000000E+00 -0.37559644123E+04  0.37559644123E+04  0.00000000000E+00 0. -1.
         23    2    1    2    0    0 -0.80328964116E+02 -0.32782782397E+04  0.89215008072E+03  0.33997210660E+04  0.92793321537E+02 0.  0.
         11    1    3    3    0    0 -0.56281688190E+01 -0.17973928248E+04  0.46226709759E+03  0.18558942622E+04  0.00000000000E+00 0. -1.
        -11    1    3    3    0    0 -0.74700795297E+02 -0.14808854148E+04  0.42988298313E+03  0.15438268037E+04  0.00000000000E+00 0.  1.
         22    1    1    2    0    0  0.80328964116E+02  0.32782782397E+04 -0.14277592534E+04  0.35765985859E+04  0.00000000000E+00 0. -1.
<mgrwt>
<rscale>  0 0.69557285E+04</rscale>
<asrwt>0</asrwt>
<pdfrwt beam="1">  1        2 0.57784068E+00 0.69557285E+04</pdfrwt>
<pdfrwt beam="2">  1       -2 0.49543927E+00 0.69557285E+04</pdfrwt>
<totfact> 0.59022356E-04</totfact>
</mgrwt>
</event>
<event>
 6    1  0.1072514E-005  0.1988821E+04  0.7818608E-02  0.8611865E-01
         -2   -1    0    0    0  501 -0.00000000000E+00  0.00000000000E+00  0.31718451710E+03  0.31718451710E+03  0.00000000000E+00 0.  1.
          2   -1    0    0  501    0  0.00000000000E+00 -0.00000000000E+00 -0.31175932854E+04  0.31175932854E+04  0.00000000000E+00 0. -1.
         23    2    1    2    0    0  0.83934722826E+03  0.23817214743E+03 -0.22196268285E+04  0.23866664520E+04  0.90574577442E+02 0.  0.
         11    1    3    3    0    0  0.24525508066E+03  0.27561850563E+02 -0.63668662377E+03  0.68284666440E+03  0.00000000000E+00 0. -1.
        -11    1    3    3    0    0  0.59409214761E+03  0.21061029687E+03 -0.15829402047E+04  0.17038197876E+04  0.00000000000E+00 0.  1.
         22    1    1    2    0    0 -0.83934722826E+03 -0.23817214743E+03 -0.58078193985E+03  0.10481113505E+04  0.00000000000E+00 0.  1.
<mgrwt>
<rscale>  0 0.19888211E+04</rscale>
<asrwt>0</asrwt>
<pdfrwt beam="1">  1        2 0.47962972E+00 0.19888211E+04</pdfrwt>
<pdfrwt beam="2">  1       -2 0.48797619E-01 0.19888211E+04</pdfrwt>
<totfact> 0.54392009E+00</totfact>
</mgrwt>
</event>
<event>
 6    1  0.1072514E-005  0.1535147E+04  0.7818608E-02  0.8861411E-01
          1   -1    0    0  501    0  0.00000000000E+00  0.00000000000E+00  0.22880488177E+03  0.22880488177E+03  0.00000000000E+00 0. -1.
         -1   -1    0    0    0  501 -0.00000000000E+00 -0.00000000000E+00 -0.25749840757E+04  0.25749840757E+04  0.00000000000E+00 0.  1.
         23    2    1    2    0    0  0.40750294487E+03  0.60455444610E+03 -0.75453752901E+03  0.10531125402E+04  0.90412451267E+02 0.  0.
         13    1    3    3    0    0  0.63393948537E+02  0.11434651697E+03 -0.91286270636E+02  0.15945877794E+03  0.00000000000E+00 0. -1.
        -13    1    3    3    0    0  0.34410899634E+03  0.49020792913E+03 -0.66325125837E+03  0.89365376230E+03  0.00000000000E+00 0.  1.
         22    1    1    2    0    0 -0.40750294487E+03 -0.60455444610E+03 -0.15916416649E+04  0.17506764173E+04  0.00000000000E+00 0.  1.
<mgrwt>
<rscale>  0 0.15351468E+04</rscale>
<asrwt>0</asrwt>
<pdfrwt beam="1">  1        1 0.35200752E-01 0.15351468E+04</pdfrwt>
<pdfrwt beam="2">  1       -1 0.39615139E+00 0.15351468E+04</pdfrwt>
<totfact> 0.92076038E-01</totfact>
</mgrwt>
</event>
<event>
 6    1  0.1072514E-005  0.2097987E+04  0.7818608E-02  0.8562131E-01
          3   -1    0    0  501    0  0.00000000000E+00  0.00000000000E+00  0.70291753944E+03  0.70291753944E+03  0.00000000000E+00 0. -1.
         -3   -1    0    0    0  501 -0.00000000000E+00 -0.00000000000E+00 -0.15654576584E+04  0.15654576584E+04  0.00000000000E+00 0.  1.
         23    2    1    2    0    0  0.44704895352E+03 -0.85748579275E+01 -0.14556954210E+04  0.15255700367E+04  0.91588662851E+02 0.  0.
         13    1    3    3    0    0  0.32537836106E+03 -0.48927555708E+01 -0.90916702197E+03  0.96564988000E+03  0.00000000000E+00 0.  1.
        -13    1    3    3    0    0  0.12167059245E+03 -0.36821023566E+01 -0.54652839905E+03  0.55992015673E+03  0.00000000000E+00 0. -1.
         22    1    1    2    0    0 -0.44704895352E+03  0.85748579275E+01  0.59315530205E+03  0.74280516112E+03  0.00000000000E+00 0. -1.
<mgrwt>
<rscale>  0 0.20979873E+04</rscale>
<asrwt>0</asrwt>
<pdfrwt beam="1">  1        3 0.10814116E+00 0.20979873E+04</pdfrwt>
<pdfrwt beam="2">  1       -3 0.24083964E+00 0.20979873E+04</pdfrwt>
<totfact> 0.14477365E-01</totfact>
</mgrwt>
</event>
<event>
 6    1  0.1072514E-005  0.1482665E+04  0.7818608E-02  0.8896063E-01
         -1   -1    0    0    0  501 -0.00000000000E+00  0.00000000000E+00  0.11350368701E+04  0.11350368701E+04  0.00000000000E+00 0.  1.
          1   -1    0    0  501    0  0.00000000000E+00 -0.00000000000E+00 -0.48419034117E+03  0.48419034117E+03  0.00000000000E+00 0. -1.
         23    2    1    2    0    0 -0.34887321678E+03 -0.64097229956E+03  0.20108120450E+03  0.76199512060E+03  0.87435134990E+02 0.  0.
         11    1    3    3    0    0 -0.21166290728E+03 -0.30125370811E+03  0.11374960552E+03  0.38534913485E+03  0.00000000000E+00 0. -1.
        -11    1    3    3    0    0 -0.13721030950E+03 -0.33971859144E+03  0.87331598985E+02  0.37664598576E+03  0.00000000000E+00 0.  1.
         22    1    1    2    0    0  0.34887321678E+03  0.64097229956E+03  0.44976532437E+03  0.85723209062E+03  0.00000000000E+00 0. -1.
<mgrwt>
<rscale>  0 0.14826650E+04</rscale>
<asrwt>0</asrwt>
<pdfrwt beam="1">  1        1 0.74490822E-01 0.14826650E+04</pdfrwt>
<pdfrwt beam="2">  1       -1 0.17462106E+00 0.14826650E+04</pdfrwt>
<totfact> 0.10214945E+01</totfact>
</mgrwt>
</event>
<event>
 6    1  0.1072514E-005  0.2207302E+04  0.7818608E-02  0.8515395E-01
         -2   -1    0    0    0  501 -0.00000000000E+00  0.00000000000E+00  0.75180721818E+03  0.75180721818E+03  0.00000000000E+00 0.  1.
          2   -1    0    0  501    0  0.00000000000E+00 -0.00000000000E+00 -0.16201560419E+04  0.16201560419E+04  0.00000000000E+00 0. -1.
         23    2    1    2    0    0 -0.15907794391E+03  0.60195910468E+03  0.54186709005E+03  0.83041550558E+03  0.91155979984E+02 0.  0.
         11    1    3    3    0    0 -0.14741069390E+03  0.39213032093E+03  0.37031712605E+03  0.55913404038E+03  0.00000000000E+00 0. -1.
        -11    1    3    3    0    0 -0.11667250011E+02  0.20982878375E+03  0.17154996401E+03  0.27128146520E+03  0.00000000000E+00 0.  1.
         22    1    1    2    0    0  0.15907794391E+03 -0.60195910468E+03 -0.14102159138E+04  0.15415477545E+04  0.00000000000E+00 0. -1.
<mgrwt>
<rscale>  0 0.22073015E+04</rscale>
<asrwt>0</asrwt>
<pdfrwt beam="1">  1        2 0.24925477E+00 0.22073015E+04</pdfrwt>
<pdfrwt beam="2">  1       -2 0.11566265E+00 0.22073015E+04</pdfrwt>
<totfact> 0.57719589E+00</totfact>
</mgrwt>
</event>
<event>
 6    1  0.1072514E-005  0.5541000E+04  0.7818608E-02  0.7750073E-01
          2   -1    0    0  501    0  0.00000000000E+00  0.00000000000E+00  0.28922822463E+04  0.28922822463E+04  0.00000000000E+00 0. -1.
         -2   -1    0    0    0  501 -0.00000000000E+00 -0.00000000000E+00 -0.26538456100E+04  0.26538456100E+04  0.00000000000E+00 0.  1.
         23    2    1    2    0    0  0.18677435073E+04  0.19396299544E+04 -0.53020289114E+03  0.27458712802E+04  0.89798736294E+02 0.  0.
         11    1    3    3    0    0  0.55682508141E+03  0.52886930276E+03 -0.17328076204E+03  0.78726306478E+03  0.00000000000E+00 0. -1.
        -11    1    3    3    0    0  0.13109184259E+04  0.14107606516E+04 -0.35692212910E+03  0.19586082155E+04  0.00000000000E+00 0.  1.
         22    1    1    2    0    0 -0.18677435073E+04 -0.19396299544E+04  0.76863952740E+03  0.28002565761E+04  0.00000000000E+00 0. -1.
<mgrwt>
<rscale>  0 0.55410001E+04</rscale>
<asrwt>0</asrwt>
<pdfrwt beam="1">  1        2 0.44496650E+00 0.55410001E+04</pdfrwt>
<pdfrwt beam="2">  1       -2 0.40828394E+00 0.55410001E+04</pdfrwt>
<totfact> 0.92901398E-03</totfact>
</mgrwt>
</event>
<event>
 6    1  0.1072514E-005  0.3700971E+04  0.7818608E-02  0.8067747E-01
         -2   -1    0    0    0  501 -0.00000000000E+00  0.00000000000E+00  0.13067384699E+04  0.13067384699E+04  0.00000000000E+00 0.  1.
          2   -1    0    0  501    0  0.00000000000E+00 -0.00000000000E+00 -0.26204910066E+04  0.26204910066E+04  0.00000000000E+00 0. -1.
         23    2    1    2    0    0 -0.73038071695E+03  0.86633510073E+03 -0.22082243117E+04  0.24835978563E+04  0.89505320004E+02 0.  0.
         11    1    3    3    0    0 -0.49449942279E+03  0.64897997815E+03 -0.15871608810E+04  0.17845964119E+04  0.00000000000E+00 0.  1.
        -11    1    3    3    0    0 -0.23588129416E+03  0.21735512258E+03 -0.62106343072E+03  0.69900144436E+03  0.00000000000E+00 0. -1.
         22    1    1    2    0    0  0.73038071695E+03 -0.86633510073E+03  0.89447177502E+03  0.14436316202E+04  0.00000000000E+00 0.  1.
<mgrwt>
<rscale>  0 0.37009709E+04</rscale>
<asrwt>0</asrwt>
<pdfrwt beam="1">  1        2 0.40315245E+00 0.37009709E+04</pdfrwt>
<pdfrwt beam="2">  1       -2 0.20103669E+00 0.37009709E+04</pdfrwt>
<totfact> 0.31321568E-01</totfact>
</mgrwt>
</event>
<event>
 6    1  0.1072514E-005  0.2193438E+04  0.7818608E-02  0.8521164E-01
         -2   -1    0    0    0  501 -0.00000000000E+00  0.00000000000E+00  0.90683092224E+03  0.90683092224E+03  0.00000000000E+00 0.  1.
          2   -1    0    0  501    0  0.00000000000E+00 -0.00000000000E+00 -0.13263692210E+04  0.13263692210E+04  0.00000000000E+00 0. -1.
         23    2    1    2    0    0 -0.43406936650E+03  0.54415807240E+03 -0.10702626105E+04  0.12803274590E+04  0.96187962767E+02 0.  0.
         11    1    3    3    0    0 -0.31798672890E+03  0.35513146862E+03 -0.66312013545E+03  0.81667755804E+03  0.00000000000E+00 0. -1.
        -11    1    3    3    0    0 -0.11608263760E+03  0.18902660378E+03 -0.40714247501E+03  0.46364990095E+03  0.00000000000E+00 0.  1.
         22    1    1    2    0    0  0.43406936650E+03 -0.54415807240E+03  0.65072431166E+03  0.95287268430E+03  0.00000000000E+00 0.  1.
<mgrwt>
<rscale>  0 0.21934381E+04</rscale>
<asrwt>0</asrwt>
<pdfrwt beam="1">  1        2 0.20405680E+00 0.21934381E+04</pdfrwt>
<pdfrwt beam="2">  1       -2 0.13951245E+00 0.21934381E+04</pdfrwt>
<totfact> 0.52899703E+00</totfact>
</mgrwt>
</event>
<event>
 6    1  0.1182034E-005  0.3761923E+04  0.7818608E-02  0.8054376E-01
         -2   -1    0    0    0  501 -0.00000000000E+00  0.00000000000E+00  0.17728525498E+04  0.17728525498E+04  0.00000000000E+00 0.  1.
          2   -1    0    0  501    0  0.00000000000E+00 -0.00000000000E+00 -0.19956625949E+04  0.19956625949E+04  0.00000000000E+00 0. -1.
         23    2    1    2    0    0  0.11241823189E+04 -0.12609429253E+04 -0.93745962074E+03  0.19342613555E+04  0.93666984152E+02 0.  0.
         13    1    3    3    0    0  0.38176357325E+03 -0.39346920305E+03 -0.26186503777E+03  0.60756459542E+03  0.00000000000E+00 0.  1.
        -13    1    3    3    0    0  0.74241874570E+03 -0.86747372223E+03 -0.67559458297E+03  0.13266967601E+04  0.00000000000E+00 0. -1.
         22    1    1    2    0    0 -0.11241823189E+04  0.12609429253E+04  0.71464957563E+03  0.18342537891E+04  0.00000000000E+00 0.  1.
<mgrwt>
<rscale>  0 0.37619227E+04</rscale>
<asrwt>0</asrwt>
<pdfrwt beam="1">  1        2 0.30702502E+00 0.37619227E+04</pdfrwt>
<pdfrwt beam="2">  1       -2 0.27274655E+00 0.37619227E+04</pdfrwt>
<totfact> 0.25199622E-01</totfact>
</mgrwt>
</event>
<event>
 6    1  0.1072514E-005  0.3099162E+04  0.7818608E-02  0.8215968E-01
         -2   -1    0    0    0  501 -0.00000000000E+00  0.00000000000E+00  0.69011661925E+03  0.69011661925E+03  0.00000000000E+00 0.  1.
          2   -1    0    0  501    0  0.00000000000E+00 -0.00000000000E+00 -0.34794127210E+04  0.34794127210E+04  0.00000000000E+00 0. -1.
         23    2    1    2    0    0 -0.59630202956E+02 -0.19167227081E+03 -0.34613068670E+04  0.34681788651E+04  0.85588505706E+02 0.  0.
         13    1    3    3    0    0 -0.27045793151E+02 -0.13079987323E+03 -0.15905498118E+04  0.15961481089E+04  0.00000000000E+00 0. -1.
        -13    1    3    3    0    0 -0.32584409806E+02 -0.60872397580E+02 -0.18707570552E+04  0.18720307562E+04  0.00000000000E+00 0.  1.
         22    1    1    2    0    0  0.59630202956E+02  0.19167227081E+03  0.67201076520E+03  0.70135047519E+03  0.00000000000E+00 0.  1.
<mgrwt>
<rscale>  0 0.30991615E+04</rscale>
<asrwt>0</asrwt>
<pdfrwt beam="1">  1        2 0.53529427E+00 0.30991615E+04</pdfrwt>
<pdfrwt beam="2">  1       -2 0.10617179E+00 0.30991615E+04</pdfrwt>
<totfact> 0.51015283E-01</totfact>
</mgrwt>
</event>
<event>
 6    1  0.1072514E-005  0.3641421E+04  0.7818608E-02  0.8081069E-01
          1   -1    0    0  501    0  0.00000000000E+00  0.00000000000E+00  0.22624003576E+04  0.22624003576E+04  0.00000000000E+00 0. -1.
         -1   -1    0    0    0  501 -0.00000000000E+00 -0.00000000000E+00 -0.14652518246E+04  0.14652518246E+04  0.00000000000E+00 0.  1.
         23    2    1    2    0    0  0.19094413421E+03  0.16130929866E+04 -0.44059061581E+03  0.16854654017E+04  0.90249009983E+02 0.  0.
         11    1    3    3    0    0  0.16301926058E+03  0.14158889328E+04 -0.35570677475E+03  0.14689601965E+04  0.00000000000E+00 0. -1.
        -11    1    3    3    0    0  0.27924873630E+02  0.19720405383E+03 -0.84883841057E+02  0.21650520522E+03  0.00000000000E+00 0.  1.
         22    1    1    2    0    0 -0.19094413421E+03 -0.16130929866E+04  0.12377391488E+04  0.20421867805E+04  0.00000000000E+00 0. -1.
<mgrwt>
<rscale>  0 0.36414207E+04</rscale>
<asrwt>0</asrwt>
<pdfrwt beam="1">  1        1 0.34806160E+00 0.36414207E+04</pdfrwt>
<pdfrwt beam="2">  1       -1 0.22542336E+00 0.36414207E+04</pdfrwt>
<totfact> 0.16120594E-01</totfact>
</mgrwt>
</event>
<event>
 6    1  0.1072514E-005  0.3186848E+04  0.7818608E-02  0.8192299E-01
          1   -1    0    0  501    0  0.00000000000E+00  0.00000000000E+00  0.30622735499E+04  0.30622735499E+04  0.00000000000E+00 0. -1.
         -1   -1    0    0    0  501 -0.00000000000E+00 -0.00000000000E+00 -0.82912241823E+03  0.82912241823E+03  0.00000000000E+00 0.  1.
         23    2    1    2    0    0  0.21835021779E+03  0.50823558907E+03  0.29405446373E+04  0.29934060998E+04  0.87733020235E+02 0.  0.
         13    1    3    3    0    0  0.16121761540E+02  0.60572354826E+02  0.50027062471E+03  0.50418212911E+03  0.00000000000E+00 0. -1.
        -13    1    3    3    0    0  0.20222845625E+03  0.44766323424E+03  0.24402740126E+04  0.24892239707E+04  0.00000000000E+00 0.  1.
         22    1    1    2    0    0 -0.21835021779E+03 -0.50823558907E+03 -0.70739350569E+03  0.89798986826E+03  0.00000000000E+00 0.  1.
<mgrwt>
<rscale>  0 0.31868478E+04</rscale>
<asrwt>0</asrwt>
<pdfrwt beam="1">  1        1 0.47111900E+00 0.31868478E+04</pdfrwt>
<pdfrwt beam="2">  1       -1 0.12755730E+00 0.31868478E+04</pdfrwt>
<totfact> 0.23954577E-01</totfact>
</mgrwt>
</event>
<event>
 6    1  0.1072514E-005  0.1571282E+04  0.7818608E-02  0.8838388E-01
          2   -1    0    0  501    0  0.00000000000E+00  0.00000000000E+00  0.30608453084E+04  0.30608453084E+04  0.00000000000E+00 0. -1.
         -2   -1    0    0    0  501 -0.00000000000E+00 -0.00000000000E+00 -0.20165391459E+03  0.20165391459E+03  0.00000000000E+00 0.  1.
         23    2    1    2    0    0 -0.36113137183E+03 -0.92203830291E+02  0.28641023302E+04  0.28897506062E+04  0.93053714500E+02 0.  0.
         11    1    3    3    0    0 -0.15070556985E+03 -0.10228117351E+02  0.14330807156E+04  0.14410194726E+04  0.00000000000E+00 0. -1.
        -11    1    3    3    0    0 -0.21042580198E+03 -0.81975712939E+02  0.14310216146E+04  0.14487311335E+04  0.00000000000E+00 0.  1.
         22    1    1    2    0    0  0.36113137183E+03  0.92203830291E+02 -0.49109364192E+01  0.37274861682E+03  0.00000000000E+00 0.  1.
<mgrwt>
<rscale>  0 0.15712816E+04</rscale>
<asrwt>0</asrwt>
<pdfrwt beam="1">  1        2 0.47089924E+00 0.15712816E+04</pdfrwt>
<pdfrwt beam="2">  1       -2 0.31023681E-01 0.15712816E+04</pdfrwt>
<totfact> 0.14853159E+01</totfact>
</mgrwt>
</event>
<event>
 6    1  0.1072514E-005  0.2875202E+04  0.7818608E-02  0.8280294E-01
         -1   -1    0    0    0  501 -0.00000000000E+00  0.00000000000E+00  0.15553937584E+04  0.15553937584E+04  0.00000000000E+00 0.  1.
          1   -1    0    0  501    0  0.00000000000E+00 -0.00000000000E+00 -0.13287285180E+04  0.13287285180E+04  0.00000000000E+00 0. -1.
         23    2    1    2    0    0  0.10524421684E+04 -0.33228512774E+03  0.10352950924E+04  0.15159372884E+04  0.90454463484E+02 0.  0.
         13    1    3    3    0    0  0.85065556036E+03 -0.30523604654E+03  0.84459316342E+03  0.12369808156E+04  0.00000000000E+00 0. -1.
        -13    1    3    3    0    0  0.20178660802E+03 -0.27049081195E+02  0.19070192902E+03  0.27895647277E+03  0.00000000000E+00 0.  1.
         22    1    1    2    0    0 -0.10524421684E+04  0.33228512774E+03 -0.80862985205E+03  0.13681849880E+04  0.00000000000E+00 0. -1.
<mgrwt>
<rscale>  0 0.28752016E+04</rscale>
<asrwt>0</asrwt>
<pdfrwt beam="1">  1        1 0.20441977E+00 0.28752016E+04</pdfrwt>
<pdfrwt beam="2">  1       -1 0.23929135E+00 0.28752016E+04</pdfrwt>
<totfact> 0.60822453E-01</totfact>
</mgrwt>
</event>
<event>
 6    1  0.1072514E-005  0.1890954E+04  0.7818608E-02  0.8659372E-01
          1   -1    0    0  501    0  0.00000000000E+00  0.00000000000E+00  0.16301075489E+04  0.16301075489E+04  0.00000000000E+00 0. -1.
         -1   -1    0    0    0  501 -0.00000000000E+00 -0.00000000000E+00 -0.54838518979E+03  0.54838518979E+03  0.00000000000E+00 0.  1.
         23    2    1    2    0    0  0.22626595864E+03 -0.91524645255E+03  0.57888944697E+03  0.11099828929E+04  0.89870338979E+02 0.  0.
         11    1    3    3    0    0  0.17626192839E+03 -0.82554124925E+03  0.50846910058E+03  0.98545798888E+03  0.00000000000E+00 0.  1.
        -11    1    3    3    0    0  0.50004030252E+02 -0.89705203299E+02  0.70420346389E+02  0.12452490404E+03  0.00000000000E+00 0. -1.
         22    1    1    2    0    0 -0.22626595864E+03  0.91524645255E+03  0.50283291212E+03  0.10685098457E+04  0.00000000000E+00 0.  1.
<mgrwt>
<rscale>  0 0.18909541E+04</rscale>
<asrwt>0</asrwt>
<pdfrwt beam="1">  1        1 0.25078578E+00 0.18909541E+04</pdfrwt>
<pdfrwt beam="2">  1       -1 0.84366953E-01 0.18909541E+04</pdfrwt>
<totfact> 0.69317917E+00</totfact>
</mgrwt>
</event>
<event>
 6    1  0.1072514E-005  0.2532935E+04  0.7818608E-02  0.8391345E-01
          2   -1    0    0  501    0  0.00000000000E+00  0.00000000000E+00  0.16646253641E+04  0.16646253641E+04  0.00000000000E+00 0. -1.
         -2   -1    0    0    0  501 -0.00000000000E+00 -0.00000000000E+00 -0.96354430275E+03  0.96354430275E+03  0.00000000000E+00 0.  1.
         23    2    1    2    0    0  0.12447152991E+04  0.22372701194E+03  0.33276769913E+03  0.13109663096E+04  0.92349182764E+02 0.  0.
         13    1    3    3    0    0  0.92246947861E+03  0.20633270549E+03  0.24295403209E+03  0.97598657062E+03  0.00000000000E+00 0. -1.
        -13    1    3    3    0    0  0.32224582047E+03  0.17394306454E+02  0.89813667042E+02  0.33497973893E+03  0.00000000000E+00 0.  1.
         22    1    1    2    0    0 -0.12447152991E+04 -0.22372701194E+03  0.36831336219E+03  0.13172033573E+04  0.00000000000E+00 0.  1.
<mgrwt>
<rscale>  0 0.25329353E+04</rscale>
<asrwt>0</asrwt>
<pdfrwt beam="1">  1        2 0.25609621E+00 0.25329353E+04</pdfrwt>
<pdfrwt beam="2">  1       -2 0.14823759E+00 0.25329353E+04</pdfrwt>
<totfact> 0.28223241E+00</totfact>
</mgrwt>
</event>
<event>
 6    1  0.1072514E-005  0.2688957E+04  0.7818608E-02  0.8338597E-01
         -2   -1    0    0    0  501 -0.00000000000E+00  0.00000000000E+00  0.99426845248E+03  0.99426845248E+03  0.00000000000E+00 0.  1.
          2   -1    0    0  501    0  0.00000000000E+00 -0.00000000000E+00 -0.18180427475E+04  0.18180427475E+04  0.00000000000E+00 0. -1.
         23    2    1    2    0    0 -0.82857957678E+03  0.86910351523E+03 -0.10413353779E+04  0.15919760575E+04  0.90129702290E+02 0.  0.
         13    1    3    3    0    0 -0.74887858141E+02  0.11287193990E+03 -0.13875007853E+03  0.19390680856E+03  0.00000000000E+00 0. -1.
        -13    1    3    3    0    0 -0.75369171864E+03  0.75623157533E+03 -0.90258529933E+03  0.13980692489E+04  0.00000000000E+00 0.  1.
         22    1    1    2    0    0  0.82857957678E+03 -0.86910351523E+03  0.21756108282E+03  0.12203351425E+04  0.00000000000E+00 0.  1.
<mgrwt>
<rscale>  0 0.26889571E+04</rscale>
<asrwt>0</asrwt>
<pdfrwt beam="1">  1        2 0.27969888E+00 0.26889571E+04</pdfrwt>
<pdfrwt beam="2">  1       -2 0.15296438E+00 0.26889571E+04</pdfrwt>
<totfact> 0.21060878E+00</totfact>
</mgrwt>
</event>
<event>
 6    1  0.1072514E-005  0.1159231E+04  0.7818608E-02  0.9149309E-01
          2   -1    0    0  501    0  0.00000000000E+00  0.00000000000E+00  0.17541043754E+04  0.17541043754E+04  0.00000000000E+00 0. -1.
         -2   -1    0    0    0  501 -0.00000000000E+00 -0.00000000000E+00 -0.19152469777E+03  0.19152469777E+03  0.00000000000E+00 0.  1.
         23    2    1    2    0    0 -0.24652957478E+03 -0.50054834405E+03  0.10267869837E+04  0.11720663499E+04  0.90125150221E+02 0.  0.
         11    1    3    3    0    0 -0.63450995055E+02 -0.22164624852E+03  0.45462418235E+03  0.50974134170E+03  0.00000000000E+00 0.  1.
        -11    1    3    3    0    0 -0.18307857972E+03 -0.27890209553E+03  0.57216280131E+03  0.66232500817E+03  0.00000000000E+00 0. -1.
         22    1    1    2    0    0  0.24652957478E+03  0.50054834405E+03  0.53579269395E+03  0.77356272329E+03  0.00000000000E+00 0.  1.
<mgrwt>
<rscale>  0 0.11592313E+04</rscale>
<asrwt>0</asrwt>
<pdfrwt beam="1">  1        2 0.26986220E+00 0.11592313E+04</pdfrwt>
<pdfrwt beam="2">  1       -2 0.29465339E-01 0.11592313E+04</pdfrwt>
<totfact> 0.96006619E+01</totfact>
</mgrwt>
</event>
<event>
 6    1  0.1072514E-005  0.9488236E+03  0.7818608E-02  0.9366527E-01
         -2   -1    0    0    0  501 -0.00000000000E+00  0.00000000000E+00  0.29991367094E+03  0.29991367094E+03  0.00000000000E+00 0.  1.
          2   -1    0    0  501    0  0.00000000000E+00 -0.00000000000E+00 -0.75043787293E+03  0.75043787293E+03  0.00000000000E+00 0. -1.
         23    2    1    2    0    0  0.67512456172E+02  0.41036201518E+03  0.14886792992E+02  0.42620227528E+03  0.92042640164E+02 0.  0.
         13    1    3    3    0    0 -0.15838433932E+02  0.10265264019E+03  0.26492454962E+02  0.10719268024E+03  0.00000000000E+00 0.  1.
        -13    1    3    3    0    0  0.83350890104E+02  0.30770937499E+03 -0.11605661970E+02  0.31900959504E+03  0.00000000000E+00 0. -1.
         22    1    1    2    0    0 -0.67512456172E+02 -0.41036201518E+03 -0.46541099498E+03  0.62414926859E+03  0.00000000000E+00 0. -1.
<mgrwt>
<rscale>  0 0.94882364E+03</rscale>
<asrwt>0</asrwt>
<pdfrwt beam="1">  1        2 0.11545198E+00 0.94882364E+03</pdfrwt>
<pdfrwt beam="2">  1       -2 0.46140565E-01 0.94882364E+03</pdfrwt>
<totfact> 0.16700336E+02</totfact>
</mgrwt>
</event>
<event>
 6    1  0.1072514E-005  0.6545982E+03  0.7818608E-02  0.9798189E-01
         -2   -1    0    0    0  501 -0.00000000000E+00  0.00000000000E+00  0.32681535157E+03  0.32681535157E+03  0.00000000000E+00 0.  1.
          2   -1    0    0  501    0  0.00000000000E+00 -0.00000000000E+00 -0.32778360164E+03  0.32778360164E+03  0.00000000000E+00 0. -1.
         23    2    1    2    0    0 -0.94510803860E+02 -0.40632125698E+02  0.30343870393E+03  0.33327846627E+03  0.91739998628E+02 0.  0.
         11    1    3    3    0    0  0.12374249643E+02  0.11405956182E+02  0.60743371082E+02  0.63031539892E+02  0.00000000000E+00 0. -1.
        -11    1    3    3    0    0 -0.10688505350E+03 -0.52038081881E+02  0.24269533285E+03  0.27024692638E+03  0.00000000000E+00 0.  1.
         22    1    1    2    0    0  0.94510803860E+02  0.40632125698E+02 -0.30440695400E+03  0.32132048695E+03  0.00000000000E+00 0. -1.
<mgrwt>
<rscale>  0 0.65459824E+03</rscale>
<asrwt>0</asrwt>
<pdfrwt beam="1">  1        2 0.50428247E-01 0.65459824E+03</pdfrwt>
<pdfrwt beam="2">  1       -2 0.50279285E-01 0.65459824E+03</pdfrwt>
<totfact> 0.37557766E+02</totfact>
</mgrwt>
</event>
<event>
 6    1  0.1072514E-005  0.7053963E+03  0.7818608E-02  0.9708048E-01
         -1   -1    0    0    0  501 -0.00000000000E+00  0.00000000000E+00  0.12175949681E+04  0.12175949681E+04  0.00000000000E+00 0.  1.
          1   -1    0    0  501    0  0.00000000000E+00 -0.00000000000E+00 -0.10216533066E+03  0.10216533066E+03  0.00000000000E+00 0. -1.
         23    2    1    2    0    0  0.11618375877E+03 -0.23552109332E+03  0.14214973104E+03  0.31167169780E+03  0.89240405505E+02 0.  0.
         11    1    3    3    0    0  0.12346650509E+02 -0.11171862018E+03  0.34737078430E+02  0.11764418597E+03  0.00000000000E+00 0.  1.
        -11    1    3    3    0    0  0.10383710826E+03 -0.12380247313E+03  0.10741265261E+03  0.19402751183E+03  0.00000000000E+00 0. -1.
         22    1    1    2    0    0 -0.11618375877E+03  0.23552109332E+03  0.97327990635E+03  0.10080886009E+04  0.00000000000E+00 0.  1.
<mgrwt>
<rscale>  0 0.70539632E+03</rscale>
<asrwt>0</asrwt>
<pdfrwt beam="1">  1        1 0.15717744E-01 0.70539632E+03</pdfrwt>
<pdfrwt beam="2">  1       -1 0.18732229E+00 0.70539632E+03</pdfrwt>
<totfact> 0.68428773E+01</totfact>
</mgrwt>
</event>
<event>
 6    1  0.1072514E-005  0.2149862E+04  0.7818608E-02  0.8539591E-01
         -1   -1    0    0    0  501 -0.00000000000E+00  0.00000000000E+00  0.43237521374E+03  0.43237521374E+03  0.00000000000E+00 0.  1.
          1   -1    0    0  501    0  0.00000000000E+00 -0.00000000000E+00 -0.26723924968E+04  0.26723924968E+04  0.00000000000E+00 0. -1.
         23    2    1    2    0    0 -0.96312189685E+03 -0.10068407725E+03 -0.45458645924E+03  0.10736339635E+04  0.91104155286E+02 0.  0.
         13    1    3    3    0    0 -0.61869679962E+03 -0.22248286549E+02 -0.27643888028E+03  0.67801118769E+03  0.00000000000E+00 0. -1.
        -13    1    3    3    0    0 -0.34442509723E+03 -0.78435790698E+02 -0.17814757896E+03  0.39562277583E+03  0.00000000000E+00 0.  1.
         22    1    1    2    0    0  0.96312189685E+03  0.10068407725E+03 -0.17854308239E+04  0.20311337471E+04  0.00000000000E+00 0. -1.
<mgrwt>
<rscale>  0 0.21498616E+04</rscale>
<asrwt>0</asrwt>
<pdfrwt beam="1">  1        1 0.41113731E+00 0.21498616E+04</pdfrwt>
<pdfrwt beam="2">  1       -1 0.66519263E-01 0.21498616E+04</pdfrwt>
<totfact> 0.21531253E+00</totfact>
</mgrwt>
</event>
<event>
 6    1  0.1072514E-005  0.3280121E+04  0.7818608E-02  0.8167972E-01
         -2   -1    0    0    0  501 -0.00000000000E+00  0.00000000000E+00  0.77955349340E+03  0.77955349340E+03  0.00000000000E+00 0. -1.
          2   -1    0    0  501    0  0.00000000000E+00 -0.00000000000E+00 -0.34504346423E+04  0.34504346423E+04  0.00000000000E+00 0.  1.
         23    2    1    2    0    0 -0.16124012613E+04  0.28493363575E+03 -0.14242178568E+04  0.21720293489E+04  0.91049354016E+02 0.  0.
         13    1    3    3    0    0 -0.50116032241E+03  0.12368591907E+03 -0.41657640995E+03  0.66332177761E+03  0.00000000000E+00 0. -1.
        -13    1    3    3    0    0 -0.11112409389E+04  0.16124771668E+03 -0.10076414468E+04  0.15087075713E+04  0.00000000000E+00 0.  1.
         22    1    1    2    0    0  0.16124012613E+04 -0.28493363575E+03 -0.12466632921E+04  0.20579587868E+04  0.00000000000E+00 0.  1.
<mgrwt>
<rscale>  0 0.32801210E+04</rscale>
<asrwt>0</asrwt>
<pdfrwt beam="1">  1        2 0.53083609E+00 0.32801210E+04</pdfrwt>
<pdfrwt beam="2">  1       -2 0.11993131E+00 0.32801210E+04</pdfrwt>
<totfact> 0.39104424E-01</totfact>
</mgrwt>
</event>
<event>
 6    1  0.1072514E-005  0.1407596E+04  0.7818608E-02  0.8948339E-01
         -1   -1    0    0    0  501 -0.00000000000E+00  0.00000000000E+00  0.28788143388E+03  0.28788143388E+03  0.00000000000E+00 0.  1.
          1   -1    0    0  501    0  0.00000000000E+00 -0.00000000000E+00 -0.17206093608E+04  0.17206093608E+04  0.00000000000E+00 0. -1.
         23    2    1    2    0    0  0.62733474597E+03  0.27164352922E+03 -0.49894935133E+03  0.85121748266E+03  0.91003610510E+02 0.  0.
         13    1    3    3    0    0  0.83809855765E+02  0.15106444646E+02 -0.35513652039E+02  0.92268716661E+02  0.00000000000E+00 0. -1.
        -13    1    3    3    0    0  0.54352489020E+03  0.25653708457E+03 -0.46343569929E+03  0.75894876600E+03  0.00000000000E+00 0.  1.
         22    1    1    2    0    0 -0.62733474597E+03 -0.27164352922E+03 -0.93377857556E+03  0.11572733120E+04  0.00000000000E+00 0. -1.
<mgrwt>
<rscale>  0 0.14075958E+04</rscale>
<asrwt>0</asrwt>
<pdfrwt beam="1">  1        1 0.26470913E+00 0.14075958E+04</pdfrwt>
<pdfrwt beam="2">  1       -1 0.44289452E-01 0.14075958E+04</pdfrwt>
<totfact> 0.22688855E+01</totfact>
</mgrwt>
</event>
<event>
 6    1  0.1072514E-005  0.9334229E+03  0.7818608E-02  0.9384739E-01
          2   -1    0    0  501    0  0.00000000000E+00  0.00000000000E+00  0.68709126699E+03  0.68709126699E+03  0.00000000000E+00 0. -1.
         -2   -1    0    0    0  501 -0.00000000000E+00 -0.00000000000E+00 -0.31701692394E+03  0.31701692394E+03  0.00000000000E+00 0.  1.
         23    2    1    2    0    0 -0.68234497084E+02  0.43177411930E+03  0.34860974812E+03  0.56644900215E+03  0.90834348496E+02 0.  0.
         13    1    3    3    0    0 -0.90651863048E+02  0.32776298097E+03  0.26469867359E+03  0.43094282656E+03  0.00000000000E+00 0. -1.
        -13    1    3    3    0    0  0.22417365965E+02  0.10401113833E+03  0.83911074531E+02  0.13550617559E+03  0.00000000000E+00 0.  1.
         22    1    1    2    0    0  0.68234497084E+02 -0.43177411930E+03  0.21464594935E+02  0.43765918878E+03  0.00000000000E+00 0.  1.
<mgrwt>
<rscale>  0 0.93342286E+03</rscale>
<asrwt>0</asrwt>
<pdfrwt beam="1">  1        2 0.10570635E+00 0.93342286E+03</pdfrwt>
<pdfrwt beam="2">  1       -2 0.48771835E-01 0.93342286E+03</pdfrwt>
<totfact> 0.16728183E+02</totfact>
</mgrwt>
</event>
<event>
 6    1  0.1072514E-005  0.3430667E+04  0.7818608E-02  0.8130420E-01
         -2   -1    0    0    0  501 -0.00000000000E+00  0.00000000000E+00  0.93428455486E+03  0.93428455486E+03  0.00000000000E+00 0.  1.
          2   -1    0    0  501    0  0.00000000000E+00 -0.00000000000E+00 -0.31493290654E+04  0.31493290654E+04  0.00000000000E+00 0. -1.
         23    2    1    2    0    0 -0.15225134237E+04 -0.76023520299E+03 -0.86342688375E+03  0.19103959832E+04  0.90011886663E+02 0.  0.
         13    1    3    3    0    0 -0.10650166280E+04 -0.55473859920E+03 -0.64852022841E+03  0.13647614510E+04  0.00000000000E+00 0.  1.
        -13    1    3    3    0    0 -0.45749679564E+03 -0.20549660378E+03 -0.21490665534E+03  0.54563453217E+03  0.00000000000E+00 0. -1.
         22    1    1    2    0    0  0.15225134237E+04  0.76023520299E+03 -0.13516176268E+04  0.21732176371E+04  0.00000000000E+00 0.  1.
<mgrwt>
<rscale>  0 0.34306673E+04</rscale>
<asrwt>0</asrwt>
<pdfrwt beam="1">  1        2 0.48451216E+00 0.34306673E+04</pdfrwt>
<pdfrwt beam="2">  1       -2 0.14373609E+00 0.34306673E+04</pdfrwt>
<totfact> 0.38722530E-01</totfact>
</mgrwt>
</event>
<event>
 6    1  0.1072514E-005  0.3090225E+04  0.7818608E-02  0.8218426E-01
         -2   -1    0    0    0  501 -0.00000000000E+00  0.00000000000E+00  0.73833634547E+03  0.73833634547E+03  0.00000000000E+00 0.  1.
          2   -1    0    0  501    0  0.00000000000E+00 -0.00000000000E+00 -0.32334492956E+04  0.32334492956E+04  0.00000000000E+00 0. -1.
         23    2    1    2    0    0  0.30901363386E+03 -0.14748460901E+04 -0.16783745790E+04  0.22578072333E+04  0.10045825129E+03 0.  0.
         11    1    3    3    0    0  0.10984848530E+03 -0.46803204365E+03 -0.46879256923E+03  0.67148131514E+03  0.00000000000E+00 0.  1.
        -11    1    3    3    0    0  0.19916514856E+03 -0.10068140464E+04 -0.12095820098E+04  0.15863259182E+04  0.00000000000E+00 0. -1.
         22    1    1    2    0    0 -0.30901363386E+03  0.14748460901E+04 -0.81673837115E+03  0.17139784077E+04  0.00000000000E+00 0.  1.
<mgrwt>
<rscale>  0 0.30902253E+04</rscale>
<asrwt>0</asrwt>
<pdfrwt beam="1">  1        2 0.49745374E+00 0.30902253E+04</pdfrwt>
<pdfrwt beam="2">  1       -2 0.11359021E+00 0.30902253E+04</pdfrwt>
<totfact> 0.63605698E-01</totfact>
</mgrwt>
</event>
<event>
 6    1  0.1090640E-005  0.1854574E+04  0.7818608E-02  0.8677804E-01
          2   -1    0    0  501    0  0.00000000000E+00  0.00000000000E+00  0.12702781036E+04  0.12702781036E+04  0.00000000000E+00 0. -1.
         -2   -1    0    0    0  501 -0.00000000000E+00 -0.00000000000E+00 -0.67690811564E+03  0.67690811564E+03  0.00000000000E+00 0.  1.
         23    2    1    2    0    0  0.18603794878E+03  0.89116654208E+03  0.12340709877E+03  0.92266045516E+03  0.85352676417E+02 0.  0.
         11    1    3    3    0    0  0.10360951645E+03  0.37043795381E+03  0.18412846311E+02  0.38509510829E+03  0.00000000000E+00 0. -1.
        -11    1    3    3    0    0  0.82428432332E+02  0.52072858827E+03  0.10499425246E+03  0.53756534687E+03  0.00000000000E+00 0.  1.
         22    1    1    2    0    0 -0.18603794878E+03 -0.89116654208E+03  0.46996288923E+03  0.10245257641E+04  0.00000000000E+00 0. -1.
<mgrwt>
<rscale>  0 0.18545744E+04</rscale>
<asrwt>0</asrwt>
<pdfrwt beam="1">  1        2 0.19542740E+00 0.18545744E+04</pdfrwt>
<pdfrwt beam="2">  1       -2 0.10413971E+00 0.18545744E+04</pdfrwt>
<totfact> 0.12128946E+01</totfact>
</mgrwt>
</event>
<event>
 6    1  0.1072514E-005  0.1053587E+04  0.7818608E-02  0.9251649E-01
          2   -1    0    0  501    0  0.00000000000E+00  0.00000000000E+00  0.50353219411E+03  0.50353219411E+03  0.00000000000E+00 0. -1.
         -2   -1    0    0    0  501 -0.00000000000E+00 -0.00000000000E+00 -0.55112896091E+03  0.55112896091E+03  0.00000000000E+00 0.  1.
         23    2    1    2    0    0  0.15699149137E+03  0.69528365012E+02  0.47024618221E+03  0.50909553867E+03  0.92554166378E+02 0.  0.
         11    1    3    3    0    0  0.60399885067E+02 -0.19403070684E+02  0.16711714416E+03  0.17875336400E+03  0.00000000000E+00 0.  1.
        -11    1    3    3    0    0  0.96591606299E+02  0.88931435696E+02  0.30312903805E+03  0.33034217468E+03  0.00000000000E+00 0. -1.
         22    1    1    2    0    0 -0.15699149137E+03 -0.69528365012E+02 -0.51784294901E+03  0.54556561635E+03  0.00000000000E+00 0.  1.
<mgrwt>
<rscale>  0 0.10535866E+04</rscale>
<asrwt>0</asrwt>
<pdfrwt beam="1">  1        2 0.77466491E-01 0.10535866E+04</pdfrwt>
<pdfrwt beam="2">  1       -2 0.84789071E-01 0.10535866E+04</pdfrwt>
<totfact> 0.73723006E+01</totfact>
</mgrwt>
</event>
<event>
 6    1  0.1072514E-005  0.2857852E+04  0.7818608E-02  0.8285529E-01
         -3   -1    0    0    0  501 -0.00000000000E+00  0.00000000000E+00  0.10505725377E+04  0.10505725377E+04  0.00000000000E+00 0.  1.
          3   -1    0    0  501    0  0.00000000000E+00 -0.00000000000E+00 -0.19435395802E+04  0.19435395802E+04  0.00000000000E+00 0. -1.
         23    2    1    2    0    0 -0.11554181962E+04 -0.50966982925E+03 -0.11443651428E+04  0.17064958910E+04  0.88329513293E+02 0.  0.
         13    1    3    3    0    0 -0.39546424881E+03 -0.13190618489E+03 -0.35764251113E+03  0.54927168092E+03  0.00000000000E+00 0. -1.
        -13    1    3    3    0    0 -0.75995394736E+03 -0.37776364436E+03 -0.78672263170E+03  0.11572242101E+04  0.00000000000E+00 0.  1.
         22    1    1    2    0    0  0.11554181962E+04  0.50966982925E+03  0.25139810031E+03  0.12876162269E+04  0.00000000000E+00 0.  1.
<mgrwt>
<rscale>  0 0.28578519E+04</rscale>
<asrwt>0</asrwt>
<pdfrwt beam="1">  1        3 0.29900609E+00 0.28578519E+04</pdfrwt>
<pdfrwt beam="2">  1       -3 0.16162655E+00 0.28578519E+04</pdfrwt>
<totfact> 0.23349790E-02</totfact>
</mgrwt>
</event>
<event>
 6    1  0.1072514E-005  0.1461210E+04  0.7818608E-02  0.8910666E-01
          2   -1    0    0  501    0  0.00000000000E+00  0.00000000000E+00  0.13271061180E+04  0.13271061180E+04  0.00000000000E+00 0. -1.
         -2   -1    0    0    0  501 -0.00000000000E+00 -0.00000000000E+00 -0.40221614314E+03  0.40221614314E+03  0.00000000000E+00 0.  1.
         23    2    1    2    0    0 -0.32582332409E+03  0.62746375390E+03  0.26014871419E+03  0.75888290465E+03  0.91401906413E+02 0.  0.
         13    1    3    3    0    0 -0.81474471261E+02  0.16274200662E+03  0.11054583350E+03  0.21293997157E+03  0.00000000000E+00 0. -1.
        -13    1    3    3    0    0 -0.24434885283E+03  0.46472174728E+03  0.14960288068E+03  0.54594293309E+03  0.00000000000E+00 0.  1.
         22    1    1    2    0    0  0.32582332409E+03 -0.62746375390E+03  0.66474126072E+03  0.97043935652E+03  0.00000000000E+00 0. -1.
<mgrwt>
<rscale>  0 0.14612098E+04</rscale>
<asrwt>0</asrwt>
<pdfrwt beam="1">  1        2 0.20417017E+00 0.14612098E+04</pdfrwt>
<pdfrwt beam="2">  1       -2 0.61879407E-01 0.14612098E+04</pdfrwt>
<totfact> 0.37467755E+01</totfact>
</mgrwt>
</event>
<event>
 6    1  0.1072514E-005  0.1934153E+04  0.7818608E-02  0.8638041E-01
          2   -1    0    0  501    0  0.00000000000E+00  0.00000000000E+00  0.39564305954E+04  0.39564305954E+04  0.00000000000E+00 0.  1.
         -2   -1    0    0    0  501 -0.00000000000E+00 -0.00000000000E+00 -0.23638402235E+03  0.23638402235E+03  0.00000000000E+00 0. -1.
         23    2    1    2    0    0 -0.75649844196E+03 -0.31533083593E+03  0.75965049141E+03  0.11210613091E+04  0.89365323155E+02 0.  0.
         11    1    3    3    0    0 -0.66827237711E+03 -0.30374806675E+03  0.65619986330E+03  0.98460607283E+03  0.00000000000E+00 0.  1.
        -11    1    3    3    0    0 -0.88226064849E+02 -0.11582769185E+02  0.10345062811E+03  0.13645523631E+03  0.00000000000E+00 0. -1.
         22    1    1    2    0    0  0.75649844196E+03  0.31533083593E+03  0.29603960816E+04  0.30717533086E+04  0.00000000000E+00 0.  1.
<mgrwt>
<rscale>  0 0.19341530E+04</rscale>
<asrwt>0</asrwt>
<pdfrwt beam="1">  1        2 0.60868158E+00 0.19341530E+04</pdfrwt>
<pdfrwt beam="2">  1       -2 0.36366776E-01 0.19341530E+04</pdfrwt>
<totfact> 0.24932850E+00</totfact>
</mgrwt>
</event>
<event>
 6    1  0.1072514E-005  0.7567467E+03  0.7818608E-02  0.9624825E-01
          1   -1    0    0  501    0  0.00000000000E+00  0.00000000000E+00  0.88488552831E+03  0.88488552831E+03  0.00000000000E+00 0. -1.
         -1   -1    0    0    0  501 -0.00000000000E+00 -0.00000000000E+00 -0.16179086902E+03  0.16179086902E+03  0.00000000000E+00 0.  1.
         23    2    1    2    0    0 -0.24232799824E+03 -0.96209182221E+01 -0.24740302742E+02  0.26050049383E+03  0.91831388450E+02 0.  0.
         13    1    3    3    0    0 -0.14765852047E+03  0.30373270909E+02  0.12317666916E+02  0.15125243525E+03  0.00000000000E+00 0.  1.
        -13    1    3    3    0    0 -0.94669477776E+02 -0.39994189132E+02 -0.37057969658E+02  0.10924805857E+03  0.00000000000E+00 0. -1.
         22    1    1    2    0    0  0.24232799824E+03  0.96209182221E+01  0.74783496204E+03  0.78617590350E+03  0.00000000000E+00 0. -1.
<mgrwt>
<rscale>  0 0.75674672E+03</rscale>
<asrwt>0</asrwt>
<pdfrwt beam="1">  1        1 0.13613623E+00 0.75674672E+03</pdfrwt>
<pdfrwt beam="2">  1       -1 0.24890904E-01 0.75674672E+03</pdfrwt>
<totfact> 0.26707409E+02</totfact>
</mgrwt>
</event>
<event>
 6    1  0.1072514E-005  0.2149696E+04  0.7818608E-02  0.8539662E-01
         -1   -1    0    0    0  501 -0.00000000000E+00  0.00000000000E+00  0.92403513325E+03  0.92403513325E+03  0.00000000000E+00 0.  1.
          1   -1    0    0  501    0  0.00000000000E+00 -0.00000000000E+00 -0.12502751771E+04  0.12502751771E+04  0.00000000000E+00 0. -1.
         23    2    1    2    0    0 -0.34809582209E+01  0.65346650465E+03  0.69619240538E+03  0.96088593983E+03  0.10764448094E+03 0.  0.
         11    1    3    3    0    0 -0.41470681522E+02  0.55763229539E+03  0.58504756517E+03  0.80929243651E+03  0.00000000000E+00 0.  1.
        -11    1    3    3    0    0  0.37989723301E+02  0.95834209260E+02  0.11114484021E+03  0.15159350331E+03  0.00000000000E+00 0. -1.
         22    1    1    2    0    0  0.34809582209E+01 -0.65346650465E+03 -0.10224324493E+04  0.12134243706E+04  0.00000000000E+00 0. -1.
<mgrwt>
<rscale>  0 0.21496960E+04</rscale>
<asrwt>0</asrwt>
<pdfrwt beam="1">  1        1 0.19235003E+00 0.21496960E+04</pdfrwt>
<pdfrwt beam="2">  1       -1 0.14215925E+00 0.21496960E+04</pdfrwt>
<totfact> 0.36217946E+00</totfact>
</mgrwt>
</event>
<event>
 6    1  0.1072514E-005  0.3788005E+04  0.7818608E-02  0.8048734E-01
          2   -1    0    0  501    0  0.00000000000E+00  0.00000000000E+00  0.15743821212E+04  0.15743821212E+04  0.00000000000E+00 0. -1.
         -2   -1    0    0    0  501 -0.00000000000E+00 -0.00000000000E+00 -0.22785101999E+04  0.22785101999E+04  0.00000000000E+00 0.  1.
         23    2    1    2    0    0  0.15355423525E+03  0.11270894218E+04 -0.18911850785E+04  0.22088078377E+04  0.91332331838E+02 0.  0.
         13    1    3    3    0    0  0.11650096125E+03  0.89927128327E+03 -0.14337007146E+04  0.16963959013E+04  0.00000000000E+00 0.  1.
        -13    1    3    3    0    0  0.37053273999E+02  0.22781813856E+03 -0.45748436389E+03  0.51241193641E+03  0.00000000000E+00 0. -1.
         22    1    1    2    0    0 -0.15355423525E+03 -0.11270894218E+04  0.11870569998E+04  0.16440844834E+04  0.00000000000E+00 0. -1.
<mgrwt>
<rscale>  0 0.37880051E+04</rscale>
<asrwt>0</asrwt>
<pdfrwt beam="1">  1        2 0.24221264E+00 0.37880051E+04</pdfrwt>
<pdfrwt beam="2">  1       -2 0.35054003E+00 0.37880051E+04</pdfrwt>
<totfact> 0.14275961E-01</totfact>
</mgrwt>
</event>
<event>
 6    1  0.1072514E-005  0.1233046E+04  0.7818608E-02  0.9084413E-01
          2   -1    0    0  501    0  0.00000000000E+00  0.00000000000E+00  0.12723600406E+04  0.12723600406E+04  0.00000000000E+00 0. -1.
         -2   -1    0    0    0  501 -0.00000000000E+00 -0.00000000000E+00 -0.29873658298E+03  0.29873658298E+03  0.00000000000E+00 0.  1.
         23    2    1    2    0    0 -0.44107724058E+03 -0.44814670064E+02 -0.50023614576E+02  0.45556499461E+03  0.92084827693E+02 0.  0.
         13    1    3    3    0    0 -0.29210382443E+03 -0.47501809638E+02  0.70116244699E+01  0.29602403457E+03  0.00000000000E+00 0.  1.
        -13    1    3    3    0    0 -0.14897341615E+03  0.26871395734E+01 -0.57035239046E+02  0.15954096004E+03  0.00000000000E+00 0. -1.
         22    1    1    2    0    0  0.44107724058E+03  0.44814670064E+02  0.10236470722E+04  0.11155316290E+04  0.00000000000E+00 0. -1.
<mgrwt>
<rscale>  0 0.12330458E+04</rscale>
<asrwt>0</asrwt>
<pdfrwt beam="1">  1        2 0.19574769E+00 0.12330458E+04</pdfrwt>
<pdfrwt beam="2">  1       -2 0.45959475E-01 0.12330458E+04</pdfrwt>
<totfact> 0.75811650E+01</totfact>
</mgrwt>
</event>
<event>
 6    1  0.1072514E-005  0.4714253E+04  0.7818608E-02  0.7874165E-01
          1   -1    0    0  501    0  0.00000000000E+00  0.00000000000E+00  0.21210514253E+04  0.21210514253E+04  0.00000000000E+00 0. -1.
         -1   -1    0    0    0  501 -0.00000000000E+00 -0.00000000000E+00 -0.26194770789E+04  0.26194770789E+04  0.00000000000E+00 0.  1.
         23    2    1    2    0    0 -0.10536943257E+04  0.19835626469E+04 -0.96553631508E+03  0.24464088743E+04  0.88676370311E+02 0.  0.
         13    1    3    3    0    0 -0.10537392230E+04  0.19701797643E+04 -0.95749981039E+03  0.24307983340E+04  0.00000000000E+00 0. -1.
        -13    1    3    3    0    0  0.44897300346E-01  0.13382882609E+02 -0.80365046931E+01  0.15610540362E+02  0.00000000000E+00 0.  1.
         22    1    1    2    0    0  0.10536943257E+04 -0.19835626469E+04  0.46711066143E+03  0.22941196299E+04  0.00000000000E+00 0. -1.
<mgrwt>
<rscale>  0 0.47142531E+04</rscale>
<asrwt>0</asrwt>
<pdfrwt beam="1">  1        1 0.32631560E+00 0.47142531E+04</pdfrwt>
<pdfrwt beam="2">  1       -1 0.40299647E+00 0.47142531E+04</pdfrwt>
<totfact> 0.12427718E-02</totfact>
</mgrwt>
</event>
<event>
 6    1  0.1072514E-005  0.2500695E+04  0.7818608E-02  0.8402738E-01
          1   -1    0    0  501    0  0.00000000000E+00  0.00000000000E+00  0.63492088653E+03  0.63492088653E+03  0.00000000000E+00 0. -1.
         -1   -1    0    0    0  501 -0.00000000000E+00 -0.00000000000E+00 -0.24623050356E+04  0.24623050356E+04  0.00000000000E+00 0.  1.
         23    2    1    2    0    0 -0.11612768865E+04  0.43262212897E+03 -0.72517244088E+03  0.14387336661E+04  0.91397918713E+02 0.  0.
         13    1    3    3    0    0 -0.84256078275E+03  0.34428150819E+03 -0.49824483187E+03  0.10376349753E+04  0.00000000000E+00 0.  1.
        -13    1    3    3    0    0 -0.31871610372E+03  0.88340620783E+02 -0.22692760901E+03  0.40109869083E+03  0.00000000000E+00 0. -1.
         22    1    1    2    0    0  0.11612768865E+04 -0.43262212897E+03 -0.11022117082E+04  0.16584922560E+04  0.00000000000E+00 0. -1.
<mgrwt>
<rscale>  0 0.25006950E+04</rscale>
<asrwt>0</asrwt>
<pdfrwt beam="1">  1        1 0.97680137E-01 0.25006950E+04</pdfrwt>
<pdfrwt beam="2">  1       -1 0.37881616E+00 0.25006950E+04</pdfrwt>
<totfact> 0.27922807E-01</totfact>
</mgrwt>
</event>
<event>
 6    1  0.1072514E-005  0.3116505E+04  0.7818608E-02  0.8211223E-01
          1   -1    0    0  501    0  0.00000000000E+00  0.00000000000E+00  0.17099277652E+04  0.17099277652E+04  0.00000000000E+00 0. -1.
         -1   -1    0    0    0  501 -0.00000000000E+00 -0.00000000000E+00 -0.14200316086E+04  0.14200316086E+04  0.00000000000E+00 0.  1.
         23    2    1    2    0    0  0.79845934589E+03  0.75653151399E+02  0.14851937624E+04  0.16905160464E+04  0.93719075150E+02 0.  0.
         11    1    3    3    0    0  0.36788380369E+03 -0.11764690783E+02  0.68735587752E+03  0.77970186823E+03  0.00000000000E+00 0.  1.
        -11    1    3    3    0    0  0.43057554221E+03  0.87417842182E+02  0.79783788487E+03  0.91081417820E+03  0.00000000000E+00 0. -1.
         22    1    1    2    0    0 -0.79845934589E+03 -0.75653151399E+02 -0.11952976058E+04  0.14394433274E+04  0.00000000000E+00 0.  1.
<mgrwt>
<rscale>  0 0.31165054E+04</rscale>
<asrwt>0</asrwt>
<pdfrwt beam="1">  1        1 0.26306581E+00 0.31165054E+04</pdfrwt>
<pdfrwt beam="2">  1       -1 0.21846640E+00 0.31165054E+04</pdfrwt>
<totfact> 0.44558116E-01</totfact>
</mgrwt>
</event>
<event>
 6    1  0.1072514E-005  0.3807475E+04  0.7818608E-02  0.8044553E-01
         -1   -1    0    0    0  501 -0.00000000000E+00  0.00000000000E+00  0.92575392563E+03  0.92575392563E+03  0.00000000000E+00 0.  1.
          1   -1    0    0  501    0  0.00000000000E+00 -0.00000000000E+00 -0.39148817946E+04  0.39148817946E+04  0.00000000000E+00 0. -1.
         23    2    1    2    0    0  0.76694689988E+02 -0.13316479321E+04  0.22968488376E+03  0.13563963732E+04  0.88812638610E+02 0.  0.
         13    1    3    3    0    0  0.39806367065E+02 -0.46815432698E+03  0.39987919681E+02  0.47154220856E+03  0.00000000000E+00 0.  1.
        -13    1    3    3    0    0  0.36888322923E+02 -0.86349360511E+03  0.18969696408E+03  0.88485416460E+03  0.00000000000E+00 0. -1.
         22    1    1    2    0    0 -0.76694689988E+02  0.13316479321E+04 -0.32188127527E+04  0.34842393471E+04  0.00000000000E+00 0. -1.
<mgrwt>
<rscale>  0 0.38074754E+04</rscale>
<asrwt>0</asrwt>
<pdfrwt beam="1">  1        1 0.60228952E+00 0.38074754E+04</pdfrwt>
<pdfrwt beam="2">  1       -1 0.14242368E+00 0.38074754E+04</pdfrwt>
<totfact> 0.36161131E-02</totfact>
</mgrwt>
</event>
<event>
 6    1  0.1072514E-005  0.1512109E+04  0.7818608E-02  0.8876440E-01
          1   -1    0    0  501    0  0.00000000000E+00  0.00000000000E+00  0.26590353168E+04  0.26590353168E+04  0.00000000000E+00 0. -1.
         -1   -1    0    0    0  501 -0.00000000000E+00 -0.00000000000E+00 -0.21497201848E+03  0.21497201848E+03  0.00000000000E+00 0.  1.
         23    2    1    2    0    0 -0.32796733756E+03  0.62167275673E+03  0.17413924505E+04  0.18801331423E+04  0.91724453845E+02 0.  0.
         13    1    3    3    0    0 -0.18968814279E+03  0.32209946075E+03  0.10363920916E+04  0.11017432648E+04  0.00000000000E+00 0. -1.
        -13    1    3    3    0    0 -0.13827919477E+03  0.29957329598E+03  0.70500035889E+03  0.77838987750E+03  0.00000000000E+00 0.  1.
         22    1    1    2    0    0  0.32796733756E+03 -0.62167275673E+03  0.70267084790E+03  0.99387419297E+03  0.00000000000E+00 0.  1.
<mgrwt>
<rscale>  0 0.15121087E+04</rscale>
<asrwt>0</asrwt>
<pdfrwt beam="1">  1        1 0.40908233E+00 0.15121087E+04</pdfrwt>
<pdfrwt beam="2">  1       -1 0.33072620E-01 0.15121087E+04</pdfrwt>
<totfact> 0.87342877E+00</totfact>
</mgrwt>
</event>
<event>
 6    1  0.1072514E-005  0.2112287E+04  0.7818608E-02  0.8555850E-01
         -3   -1    0    0    0  501 -0.00000000000E+00  0.00000000000E+00  0.56154140529E+03  0.56154140529E+03  0.00000000000E+00 0.  1.
          3   -1    0    0  501    0  0.00000000000E+00 -0.00000000000E+00 -0.19863884655E+04  0.19863884655E+04  0.00000000000E+00 0. -1.
         23    2    1    2    0    0  0.10755589009E+03 -0.99218648197E+03 -0.30420693576E+03  0.10473178047E+04  0.91271242360E+02 0.  0.
         11    1    3    3    0    0  0.10933391442E+03 -0.81628635815E+03 -0.22094085544E+03  0.85269700654E+03  0.00000000000E+00 0.  1.
        -11    1    3    3    0    0 -0.17780243249E+01 -0.17590012382E+03 -0.83266080315E+02  0.19462079812E+03  0.00000000000E+00 0. -1.
         22    1    1    2    0    0 -0.10755589009E+03  0.99218648197E+03 -0.11206401245E+04  0.15006120662E+04  0.00000000000E+00 0. -1.
<mgrwt>
<rscale>  0 0.21122873E+04</rscale>
<asrwt>0</asrwt>
<pdfrwt beam="1">  1        3 0.30559823E+00 0.21122873E+04</pdfrwt>
<pdfrwt beam="2">  1       -3 0.86390985E-01 0.21122873E+04</pdfrwt>
<totfact> 0.10607633E-01</totfact>
</mgrwt>
</event>
<event>
 6    1  0.1072514E-005  0.8569272E+03  0.7818608E-02  0.9481086E-01
          1   -1    0    0  501    0  0.00000000000E+00  0.00000000000E+00  0.68169059125E+03  0.68169059125E+03  0.00000000000E+00 0. -1.
         -1   -1    0    0    0  501 -0.00000000000E+00 -0.00000000000E+00 -0.26930259614E+03  0.26930259614E+03  0.00000000000E+00 0.  1.
         23    2    1    2    0    0 -0.37427260145E+03  0.57846473466E+02 -0.31583082068E+00  0.39085870120E+03  0.96665556752E+02 0.  0.
         11    1    3    3    0    0 -0.11692715495E+03  0.63630842091E+02 -0.77022783608E+01  0.13334229907E+03  0.00000000000E+00 0.  1.
        -11    1    3    3    0    0 -0.25734544651E+03 -0.57843686250E+01  0.73864475401E+01  0.25751640213E+03  0.00000000000E+00 0. -1.
         22    1    1    2    0    0  0.37427260145E+03 -0.57846473466E+02  0.41270382593E+03  0.56013448620E+03  0.00000000000E+00 0. -1.
<mgrwt>
<rscale>  0 0.85692718E+03</rscale>
<asrwt>0</asrwt>
<pdfrwt beam="1">  1        1 0.10487547E+00 0.85692718E+03</pdfrwt>
<pdfrwt beam="2">  1       -1 0.41431169E-01 0.85692718E+03</pdfrwt>
<totfact> 0.16334732E+02</totfact>
</mgrwt>
</event>
<event>
 6    1  0.1072514E-005  0.9200909E+03  0.7818608E-02  0.9400810E-01
          1   -1    0    0  501    0  0.00000000000E+00  0.00000000000E+00  0.16679725426E+03  0.16679725426E+03  0.00000000000E+00 0. -1.
         -1   -1    0    0    0  501 -0.00000000000E+00 -0.00000000000E+00 -0.12688566245E+04  0.12688566245E+04  0.00000000000E+00 0.  1.
         23    2    1    2    0    0  0.31559175504E+03 -0.18659347810E+03 -0.97842177015E+03  0.10487410487E+04  0.90185059603E+02 0.  0.
         11    1    3    3    0    0  0.23070224557E+03 -0.88512369868E+02 -0.60979103982E+03  0.65795370504E+03  0.00000000000E+00 0.  1.
        -11    1    3    3    0    0  0.84889509470E+02 -0.98081108228E+02 -0.36863073033E+03  0.39078734365E+03  0.00000000000E+00 0. -1.
         22    1    1    2    0    0 -0.31559175504E+03  0.18659347810E+03 -0.12363760008E+03  0.38691283007E+03  0.00000000000E+00 0. -1.
<mgrwt>
<rscale>  0 0.92009087E+03</rscale>
<asrwt>0</asrwt>
<pdfrwt beam="1">  1        1 0.25661117E-01 0.92009087E+03</pdfrwt>
<pdfrwt beam="2">  1       -1 0.19520870E+00 0.92009087E+03</pdfrwt>
<totfact> 0.30968331E+01</totfact>
</mgrwt>
</event>
<event>
 6    1  0.1072514E-005  0.2728315E+04  0.7818608E-02  0.8325876E-01
         -1   -1    0    0    0  501 -0.00000000000E+00  0.00000000000E+00  0.63521908438E+03  0.63521908438E+03  0.00000000000E+00 0.  1.
          1   -1    0    0  501    0  0.00000000000E+00 -0.00000000000E+00 -0.29295804791E+04  0.29295804791E+04  0.00000000000E+00 0. -1.
         23    2    1    2    0    0 -0.54853909998E+03  0.10734349231E+04 -0.19785501437E+04  0.23186477169E+04  0.91153088657E+02 0.  0.
         13    1    3    3    0    0 -0.46677860165E+03  0.83233137155E+03 -0.15693387849E+04  0.18367041125E+04  0.00000000000E+00 0. -1.
        -13    1    3    3    0    0 -0.81760498334E+02  0.24110355158E+03 -0.40921135880E+03  0.48194360442E+03  0.00000000000E+00 0.  1.
         22    1    1    2    0    0  0.54853909998E+03 -0.10734349231E+04 -0.31581125101E+03  0.12461518466E+04  0.00000000000E+00 0.  1.
<mgrwt>
<rscale>  0 0.27283148E+04</rscale>
<asrwt>0</asrwt>
<pdfrwt beam="1">  1        1 0.45070470E+00 0.27283148E+04</pdfrwt>
<pdfrwt beam="2">  1       -1 0.97726011E-01 0.27283148E+04</pdfrwt>
<totfact> 0.58811850E-01</totfact>
</mgrwt>
</event>
<event>
 6    1  0.1072514E-005  0.2907593E+04  0.7818608E-02  0.8270622E-01
          1   -1    0    0  501    0  0.00000000000E+00  0.00000000000E+00  0.21281113115E+04  0.21281113115E+04  0.00000000000E+00 0. -1.
         -1   -1    0    0    0  501 -0.00000000000E+00 -0.00000000000E+00 -0.99314528307E+03  0.99314528307E+03  0.00000000000E+00 0.  1.
         23    2    1    2    0    0  0.10326530137E+04 -0.87382335822E+03  0.11298802538E+00  0.13555185247E+04  0.86550274574E+02 0.  0.
         13    1    3    3    0    0  0.46254415634E+03 -0.38805662543E+03 -0.42899765391E+02  0.60528954309E+03  0.00000000000E+00 0. -1.
        -13    1    3    3    0    0  0.57010885734E+03 -0.48576673279E+03  0.43012753416E+02  0.75022898162E+03  0.00000000000E+00 0.  1.
         22    1    1    2    0    0 -0.10326530137E+04  0.87382335822E+03  0.11348530404E+04  0.17657380698E+04  0.00000000000E+00 0. -1.
<mgrwt>
<rscale>  0 0.29075926E+04</rscale>
<asrwt>0</asrwt>
<pdfrwt beam="1">  1        1 0.32740174E+00 0.29075926E+04</pdfrwt>
<pdfrwt beam="2">  1       -1 0.15279158E+00 0.29075926E+04</pdfrwt>
<totfact> 0.69417576E-01</totfact>
</mgrwt>
</event>
<event>
 6    1  0.1072514E-005  0.1646848E+04  0.7818608E-02  0.8792273E-01
          2   -1    0    0  501    0  0.00000000000E+00  0.00000000000E+00  0.22673539326E+04  0.22673539326E+04  0.00000000000E+00 0. -1.
         -2   -1    0    0    0  501 -0.00000000000E+00 -0.00000000000E+00 -0.29903893108E+03  0.29903893108E+03  0.00000000000E+00 0.  1.
         23    2    1    2    0    0  0.49566765500E+03  0.64736492858E+03  0.11371012801E+04  0.14020544139E+04  0.89383909917E+02 0.  0.
         13    1    3    3    0    0  0.42146771870E+03  0.52981401570E+03  0.88607607527E+03  0.11151092952E+04  0.00000000000E+00 0. -1.
        -13    1    3    3    0    0  0.74199936297E+02  0.11755091288E+03  0.25102520487E+03  0.28694511870E+03  0.00000000000E+00 0.  1.
         22    1    1    2    0    0 -0.49566765500E+03 -0.64736492858E+03  0.83121372141E+03  0.11643384498E+04  0.00000000000E+00 0.  1.
<mgrwt>
<rscale>  0 0.16468480E+04</rscale>
<asrwt>0</asrwt>
<pdfrwt beam="1">  1        2 0.34882367E+00 0.16468480E+04</pdfrwt>
<pdfrwt beam="2">  1       -2 0.46005991E-01 0.16468480E+04</pdfrwt>
<totfact> 0.20268653E+01</totfact>
</mgrwt>
</event>
<event>
 6    1  0.1072514E-005  0.2137899E+04  0.7818608E-02  0.8544730E-01
          2   -1    0    0  501    0  0.00000000000E+00  0.00000000000E+00  0.15205183628E+04  0.15205183628E+04  0.00000000000E+00 0. -1.
         -2   -1    0    0    0  501 -0.00000000000E+00 -0.00000000000E+00 -0.75148930419E+03  0.75148930419E+03  0.00000000000E+00 0.  1.
         23    2    1    2    0    0 -0.24485782003E+03 -0.53037808659E+03  0.13340807194E+04  0.14592717651E+04  0.91904580625E+02 0.  0.
         11    1    3    3    0    0 -0.24382257373E+02 -0.11496885779E+02  0.48133522445E+02  0.55168005585E+02  0.00000000000E+00 0. -1.
        -11    1    3    3    0    0 -0.22047556266E+03 -0.51888120081E+03  0.12859471969E+04  0.14041037596E+04  0.00000000000E+00 0.  1.
         22    1    1    2    0    0  0.24485782003E+03  0.53037808659E+03 -0.56505166079E+03  0.81273590183E+03  0.00000000000E+00 0.  1.
<mgrwt>
<rscale>  0 0.21378992E+04</rscale>
<asrwt>0</asrwt>
<pdfrwt beam="1">  1        2 0.23392590E+00 0.21378992E+04</pdfrwt>
<pdfrwt beam="2">  1       -2 0.11561374E+00 0.21378992E+04</pdfrwt>
<totfact> 0.66098267E+00</totfact>
</mgrwt>
</event>
<event>
 6    1  0.1072514E-005  0.1384049E+04  0.7818608E-02  0.8965447E-01
          1   -1    0    0  501    0  0.00000000000E+00  0.00000000000E+00  0.13835942001E+04  0.13835942001E+04  0.00000000000E+00 0. -1.
         -1   -1    0    0    0  501 -0.00000000000E+00 -0.00000000000E+00 -0.34612579925E+03  0.34612579925E+03  0.00000000000E+00 0.  1.
         23    2    1    2    0    0  0.81531216169E+02 -0.76030347732E+02  0.13707523483E+04  0.13782855921E+04  0.91001208585E+02 0.  0.
         13    1    3    3    0    0  0.55480266198E+02 -0.79443397599E+02  0.66277365121E+03  0.66981954742E+03  0.00000000000E+00 0.  1.
        -13    1    3    3    0    0  0.26050949972E+02  0.34130498670E+01  0.70797869710E+03  0.70846604467E+03  0.00000000000E+00 0. -1.
         22    1    1    2    0    0 -0.81531216169E+02  0.76030347732E+02 -0.33328394745E+03  0.35143440727E+03  0.00000000000E+00 0.  1.
<mgrwt>
<rscale>  0 0.13840486E+04</rscale>
<asrwt>0</asrwt>
<pdfrwt beam="1">  1        1 0.21286064E+00 0.13840486E+04</pdfrwt>
<pdfrwt beam="2">  1       -1 0.53250124E-01 0.13840486E+04</pdfrwt>
<totfact> 0.27395654E+01</totfact>
</mgrwt>
</event>
<event>
 6    1  0.1072514E-005  0.4021063E+04  0.7818608E-02  0.8000311E-01
         -1   -1    0    0    0  501 -0.00000000000E+00  0.00000000000E+00  0.21915982434E+04  0.21915982434E+04  0.00000000000E+00 0.  1.
          1   -1    0    0  501    0  0.00000000000E+00 -0.00000000000E+00 -0.18444245039E+04  0.18444245039E+04  0.00000000000E+00 0. -1.
         23    2    1    2    0    0 -0.66172723210E+03 -0.14696623654E+04  0.13782378578E+04  0.21226791780E+04  0.91852611408E+02 0.  0.
         11    1    3    3    0    0 -0.19186693970E+03 -0.43645835017E+03  0.35372946799E+03  0.59366097270E+03  0.00000000000E+00 0. -1.
        -11    1    3    3    0    0 -0.46986029240E+03 -0.10332040152E+04  0.10245083898E+04  0.15290182053E+04  0.00000000000E+00 0.  1.
         22    1    1    2    0    0  0.66172723210E+03  0.14696623654E+04 -0.10310641183E+04  0.19133435693E+04  0.00000000000E+00 0.  1.
<mgrwt>
<rscale>  0 0.40210633E+04</rscale>
<asrwt>0</asrwt>
<pdfrwt beam="1">  1        1 0.28375761E+00 0.40210633E+04</pdfrwt>
<pdfrwt beam="2">  1       -1 0.33716896E+00 0.40210633E+04</pdfrwt>
<totfact> 0.56069090E-02</totfact>
</mgrwt>
</event>
<event>
 6    1  0.1072514E-005  0.3304633E+04  0.7818608E-02  0.8161718E-01
         -1   -1    0    0    0  501 -0.00000000000E+00  0.00000000000E+00  0.20372492208E+04  0.20372492208E+04  0.00000000000E+00 0.  1.
          1   -1    0    0  501    0  0.00000000000E+00 -0.00000000000E+00 -0.13401156789E+04  0.13401156789E+04  0.00000000000E+00 0. -1.
         23    2    1    2    0    0 -0.60303660753E+03 -0.89771228619E+03  0.16236015688E+04  0.19533271531E+04  0.99319755595E+02 0.  0.
         13    1    3    3    0    0 -0.32454591628E+03 -0.56581727556E+03  0.94762907908E+03  0.11504260570E+04  0.00000000000E+00 0. -1.
        -13    1    3    3    0    0 -0.27849069125E+03 -0.33189501063E+03  0.67597248975E+03  0.80290109608E+03  0.00000000000E+00 0.  1.
         22    1    1    2    0    0  0.60303660753E+03  0.89771228619E+03 -0.92646802691E+03  0.14240377466E+04  0.00000000000E+00 0. -1.
<mgrwt>
<rscale>  0 0.33046329E+04</rscale>
<asrwt>0</asrwt>
<pdfrwt beam="1">  1        1 0.20617164E+00 0.33046329E+04</pdfrwt>
<pdfrwt beam="2">  1       -1 0.31342296E+00 0.33046329E+04</pdfrwt>
<totfact> 0.18969573E-01</totfact>
</mgrwt>
</event>
<event>
 6    1  0.1072514E-005  0.2576053E+04  0.7818608E-02  0.8376381E-01
         -2   -1    0    0    0  501 -0.00000000000E+00  0.00000000000E+00  0.98424330567E+03  0.98424330567E+03  0.00000000000E+00 0.  1.
          2   -1    0    0  501    0  0.00000000000E+00 -0.00000000000E+00 -0.16855719079E+04  0.16855719079E+04  0.00000000000E+00 0. -1.
         23    2    1    2    0    0  0.51268032174E+03  0.95924545274E+03  0.36063177243E+03  0.11496991692E+04  0.93594623404E+02 0.  0.
         11    1    3    3    0    0  0.20380631861E+03  0.47848579168E+03  0.18170723310E+03  0.55091123323E+03  0.00000000000E+00 0.  1.
        -11    1    3    3    0    0  0.30887400313E+03  0.48075966106E+03  0.17892453933E+03  0.59878793599E+03  0.00000000000E+00 0. -1.
         22    1    1    2    0    0 -0.51268032174E+03 -0.95924545274E+03 -0.10619603746E+04  0.15201160443E+04  0.00000000000E+00 0.  1.
<mgrwt>
<rscale>  0 0.25760535E+04</rscale>
<asrwt>0</asrwt>
<pdfrwt beam="1">  1        2 0.25931875E+00 0.25760535E+04</pdfrwt>
<pdfrwt beam="2">  1       -2 0.15142205E+00 0.25760535E+04</pdfrwt>
<totfact> 0.25876177E+00</totfact>
</mgrwt>
</event>
<event>
 6    1  0.1072514E-005  0.2136142E+04  0.7818608E-02  0.8545487E-01
         -2   -1    0    0    0  501 -0.00000000000E+00  0.00000000000E+00  0.82325565693E+03  0.82325565693E+03  0.00000000000E+00 0.  1.
          2   -1    0    0  501    0  0.00000000000E+00 -0.00000000000E+00 -0.13856883764E+04  0.13856883764E+04  0.00000000000E+00 0. -1.
         23    2    1    2    0    0  0.30788252262E+03  0.51665081426E+03 -0.11921085964E+04  0.13381906689E+04  0.88947451837E+02 0.  0.
         11    1    3    3    0    0  0.86747776702E+02  0.22918046741E+03 -0.46231448470E+03  0.52324329539E+03  0.00000000000E+00 0.  1.
        -11    1    3    3    0    0  0.22113474592E+03  0.28747034685E+03 -0.72979411171E+03  0.81494737355E+03  0.00000000000E+00 0. -1.
         22    1    1    2    0    0 -0.30788252262E+03 -0.51665081426E+03  0.62967587693E+03  0.87075336439E+03  0.00000000000E+00 0.  1.
<mgrwt>
<rscale>  0 0.21361421E+04</rscale>
<asrwt>0</asrwt>
<pdfrwt beam="1">  1        2 0.21318282E+00 0.21361421E+04</pdfrwt>
<pdfrwt beam="2">  1       -2 0.12665472E+00 0.21361421E+04</pdfrwt>
<totfact> 0.62866257E+00</totfact>
</mgrwt>
</event>
<event>
 6    1  0.1072514E-005  0.2274564E+04  0.7818608E-02  0.8488018E-01
         -2   -1    0    0    0  501 -0.00000000000E+00  0.00000000000E+00  0.54380963957E+03  0.54380963957E+03  0.00000000000E+00 0.  1.
          2   -1    0    0  501    0  0.00000000000E+00 -0.00000000000E+00 -0.23784252594E+04  0.23784252594E+04  0.00000000000E+00 0. -1.
         23    2    1    2    0    0 -0.39631681274E+02 -0.73467026457E+03  0.19207582816E+03  0.76612977788E+03  0.93544882247E+02 0.  0.
         11    1    3    3    0    0 -0.53831613488E+02 -0.33617411680E+03  0.11956386445E+03  0.36084123530E+03  0.00000000000E+00 0. -1.
        -11    1    3    3    0    0  0.14199932213E+02 -0.39849614777E+03  0.72511963711E+02  0.40528854258E+03  0.00000000000E+00 0.  1.
         22    1    1    2    0    0  0.39631681274E+02  0.73467026457E+03 -0.20266914480E+04  0.21561051211E+04  0.00000000000E+00 0. -1.
<mgrwt>
<rscale>  0 0.22745642E+04</rscale>
<asrwt>0</asrwt>
<pdfrwt beam="1">  1        2 0.36591158E+00 0.22745642E+04</pdfrwt>
<pdfrwt beam="2">  1       -2 0.83663020E-01 0.22745642E+04</pdfrwt>
<totfact> 0.46414776E+00</totfact>
</mgrwt>
</event>
<event>
 6    1  0.1072514E-005  0.2835615E+04  0.7818608E-02  0.8292296E-01
         -2   -1    0    0    0  501 -0.00000000000E+00  0.00000000000E+00  0.17626355323E+04  0.17626355323E+04  0.00000000000E+00 0.  1.
          2   -1    0    0  501    0  0.00000000000E+00 -0.00000000000E+00 -0.11404391770E+04  0.11404391770E+04  0.00000000000E+00 0. -1.
         23    2    1    2    0    0  0.10449653302E+04  0.60211210639E+03 -0.44877251916E+03  0.12901686798E+04  0.92988808103E+02 0.  0.
         13    1    3    3    0    0  0.43546415379E+03  0.23096686856E+03 -0.22869017314E+03  0.54339112884E+03  0.00000000000E+00 0.  1.
        -13    1    3    3    0    0  0.60950117639E+03  0.37114523783E+03 -0.22008234602E+03  0.74677755096E+03  0.00000000000E+00 0. -1.
         22    1    1    2    0    0 -0.10449653302E+04 -0.60211210639E+03  0.10709688744E+04  0.16129060295E+04  0.00000000000E+00 0.  1.
<mgrwt>
<rscale>  0 0.28356154E+04</rscale>
<asrwt>0</asrwt>
<pdfrwt beam="1">  1        2 0.17545218E+00 0.28356154E+04</pdfrwt>
<pdfrwt beam="2">  1       -2 0.27117470E+00 0.28356154E+04</pdfrwt>
<totfact> 0.85105109E-01</totfact>
</mgrwt>
</event>
<event>
 6    1  0.1072514E-005  0.2605299E+04  0.7818608E-02  0.8366403E-01
         -2   -1    0    0    0  501 -0.00000000000E+00  0.00000000000E+00  0.25634665200E+04  0.25634665200E+04  0.00000000000E+00 0.  1.
          2   -1    0    0  501    0  0.00000000000E+00 -0.00000000000E+00 -0.66195364300E+03  0.66195364300E+03  0.00000000000E+00 0. -1.
         23    2    1    2    0    0 -0.32168451746E+03  0.17004785565E+03  0.24983743906E+04  0.25263916455E+04  0.91558445609E+02 0.  0.
         11    1    3    3    0    0 -0.66732162000E+02  0.79140183226E+02  0.77718322210E+03  0.78404726309E+03  0.00000000000E+00 0. -1.
        -11    1    3    3    0    0 -0.25495235546E+03  0.90907672424E+02  0.17211911685E+04  0.17423443824E+04  0.00000000000E+00 0.  1.
         22    1    1    2    0    0  0.32168451746E+03 -0.17004785565E+03 -0.59686151354E+03  0.69902851754E+03  0.00000000000E+00 0. -1.
<mgrwt>
<rscale>  0 0.26052992E+04</rscale>
<asrwt>0</asrwt>
<pdfrwt beam="1">  1        2 0.10183902E+00 0.26052992E+04</pdfrwt>
<pdfrwt beam="2">  1       -2 0.39437946E+00 0.26052992E+04</pdfrwt>
<totfact> 0.31392913E-01</totfact>
</mgrwt>
</event>
<event>
 6    1  0.1072514E-005  0.2309313E+04  0.7818608E-02  0.8474258E-01
          1   -1    0    0  501    0  0.00000000000E+00  0.00000000000E+00  0.14082804669E+04  0.14082804669E+04  0.00000000000E+00 0. -1.
         -1   -1    0    0    0  501 -0.00000000000E+00 -0.00000000000E+00 -0.94670883666E+03  0.94670883666E+03  0.00000000000E+00 0.  1.
         23    2    1    2    0    0  0.76203998327E+03 -0.69726159176E+03 -0.29103898847E+03  0.10769824934E+04  0.91153359119E+02 0.  0.
         11    1    3    3    0    0  0.18094393522E+03 -0.13172097369E+03 -0.34195254366E+02  0.22640768102E+03  0.00000000000E+00 0.  1.
        -11    1    3    3    0    0  0.58109604805E+03 -0.56554061806E+03 -0.25684373410E+03  0.85057481240E+03  0.00000000000E+00 0. -1.
         22    1    1    2    0    0 -0.76203998327E+03  0.69726159176E+03  0.75261061875E+03  0.12780068102E+04  0.00000000000E+00 0. -1.
<mgrwt>
<rscale>  0 0.23093129E+04</rscale>
<asrwt>0</asrwt>
<pdfrwt beam="1">  1        1 0.21665853E+00 0.23093129E+04</pdfrwt>
<pdfrwt beam="2">  1       -1 0.14564751E+00 0.23093129E+04</pdfrwt>
<totfact> 0.25852078E+00</totfact>
</mgrwt>
</event>
<event>
 6    1  0.1072514E-005  0.1213221E+04  0.7818608E-02  0.9101363E-01
         -2   -1    0    0    0  501 -0.00000000000E+00  0.00000000000E+00  0.32309792409E+03  0.32309792409E+03  0.00000000000E+00 0.  1.
          2   -1    0    0  501    0  0.00000000000E+00 -0.00000000000E+00 -0.11388996290E+04  0.11388996290E+04  0.00000000000E+00 0. -1.
         23    2    1    2    0    0 -0.36440924242E+03  0.41080068457E+03 -0.71081948006E+03  0.90291565750E+03  0.91875202942E+02 0.  0.
         13    1    3    3    0    0 -0.19413535522E+03  0.27082483711E+03 -0.47380170169E+03  0.57924319682E+03  0.00000000000E+00 0. -1.
        -13    1    3    3    0    0 -0.17027388720E+03  0.13997584746E+03 -0.23701777837E+03  0.32367246068E+03  0.00000000000E+00 0.  1.
         22    1    1    2    0    0  0.36440924242E+03 -0.41080068457E+03 -0.10498222482E+03  0.55908189555E+03  0.00000000000E+00 0.  1.
<mgrwt>
<rscale>  0 0.12132207E+04</rscale>
<asrwt>0</asrwt>
<pdfrwt beam="1">  1        2 0.17521533E+00 0.12132207E+04</pdfrwt>
<pdfrwt beam="2">  1       -2 0.49707372E-01 0.12132207E+04</pdfrwt>
<totfact> 0.77840733E+01</totfact>
</mgrwt>
</event>
<event>
 6    1  0.1072514E-005  0.1657710E+04  0.7818608E-02  0.8785858E-01
          2   -1    0    0  501    0  0.00000000000E+00  0.00000000000E+00  0.37688612980E+04  0.37688612980E+04  0.00000000000E+00 0. -1.
         -2   -1    0    0    0  501 -0.00000000000E+00 -0.00000000000E+00 -0.18228340387E+03  0.18228340387E+03  0.00000000000E+00 0.  1.
         23    2    1    2    0    0  0.55898441137E+03 -0.12977317535E+03  0.38095481217E+03  0.69456305959E+03  0.89367922908E+02 0.  0.
         13    1    3    3    0    0  0.17272706503E+03 -0.29111922506E+02  0.16543462043E+03  0.24093724632E+03  0.00000000000E+00 0.  1.
        -13    1    3    3    0    0  0.38625734634E+03 -0.10066125284E+03  0.21552019174E+03  0.45362581328E+03  0.00000000000E+00 0. -1.
         22    1    1    2    0    0 -0.55898441137E+03  0.12977317535E+03  0.32056230819E+04  0.32565816422E+04  0.00000000000E+00 0. -1.
<mgrwt>
<rscale>  0 0.16577103E+04</rscale>
<asrwt>0</asrwt>
<pdfrwt beam="1">  1        2 0.57982476E+00 0.16577103E+04</pdfrwt>
<pdfrwt beam="2">  1       -2 0.28043603E-01 0.16577103E+04</pdfrwt>
<totfact> 0.58387080E+00</totfact>
</mgrwt>
</event>
<event>
 6    1  0.1072514E-005  0.7427982E+03  0.7818608E-02  0.9646717E-01
         -1   -1    0    0    0  501 -0.00000000000E+00  0.00000000000E+00  0.50260942732E+03  0.50260942732E+03  0.00000000000E+00 0.  1.
          1   -1    0    0  501    0  0.00000000000E+00 -0.00000000000E+00 -0.27444233205E+03  0.27444233205E+03  0.00000000000E+00 0. -1.
         23    2    1    2    0    0  0.17977092115E+03 -0.15897161161E+03 -0.17262540295E+03  0.30990704516E+03  0.93023059000E+02 0.  0.
         11    1    3    3    0    0  0.12129597947E+03 -0.96584795707E+02 -0.16115493972E+03  0.22363419236E+03  0.00000000000E+00 0. -1.
        -11    1    3    3    0    0  0.58474941680E+02 -0.62386815899E+02 -0.11470463232E+02  0.86272852794E+02  0.00000000000E+00 0.  1.
         22    1    1    2    0    0 -0.17977092115E+03  0.15897161161E+03  0.40079249823E+03  0.46714471422E+03  0.00000000000E+00 0.  1.
<mgrwt>
<rscale>  0 0.74279823E+03</rscale>
<asrwt>0</asrwt>
<pdfrwt beam="1">  1        1 0.42221897E-01 0.74279823E+03</pdfrwt>
<pdfrwt beam="2">  1       -1 0.77324527E-01 0.74279823E+03</pdfrwt>
<totfact> 0.16744675E+02</totfact>
</mgrwt>
</event>
<event>
 6    1  0.1072514E-005  0.1223533E+04  0.7818608E-02  0.9092504E-01
          1   -1    0    0  501    0  0.00000000000E+00  0.00000000000E+00  0.15169050963E+04  0.15169050963E+04  0.00000000000E+00 0. -1.
         -1   -1    0    0    0  501 -0.00000000000E+00 -0.00000000000E+00 -0.24672500676E+03  0.24672500676E+03  0.00000000000E+00 0.  1.
         23    2    1    2    0    0  0.22472827210E+03 -0.43388497605E+02  0.14511247331E+04  0.14718659482E+04  0.90780067459E+02 0.  0.
         11    1    3    3    0    0  0.18473481676E+03  0.29461513975E+01  0.10601037924E+04  0.10760834926E+04  0.00000000000E+00 0. -1.
        -11    1    3    3    0    0  0.39993455349E+02 -0.46334649002E+02  0.39102094068E+03  0.39578245568E+03  0.00000000000E+00 0.  1.
         22    1    1    2    0    0 -0.22472827210E+03  0.43388497605E+02 -0.18094464354E+03  0.29176415481E+03  0.00000000000E+00 0.  1.
<mgrwt>
<rscale>  0 0.12235333E+04</rscale>
<asrwt>0</asrwt>
<pdfrwt beam="1">  1        1 0.23337001E+00 0.12235333E+04</pdfrwt>
<pdfrwt beam="2">  1       -1 0.37957694E-01 0.12235333E+04</pdfrwt>
<totfact> 0.42159012E+01</totfact>
</mgrwt>
</event>
<event>
 6    1  0.1396974E-005  0.1982488E+04  0.7818608E-02  0.8614852E-01
          2   -1    0    0  501    0  0.00000000000E+00  0.00000000000E+00  0.86861929295E+03  0.86861929295E+03  0.00000000000E+00 0. -1.
         -2   -1    0    0    0  501 -0.00000000000E+00 -0.00000000000E+00 -0.11311801831E+04  0.11311801831E+04  0.00000000000E+00 0.  1.
         23    2    1    2    0    0 -0.84318554398E+03  0.90343466289E+02  0.38209687616E+03  0.93457300288E+03  0.91131067440E+02 0.  0.
         13    1    3    3    0    0 -0.51125425436E+03  0.52171908596E+02  0.18236725871E+03  0.54530783756E+03  0.00000000000E+00 0.  1.
        -13    1    3    3    0    0 -0.33193128962E+03  0.38171557693E+02  0.19972961745E+03  0.38926516532E+03  0.00000000000E+00 0. -1.
         22    1    1    2    0    0  0.84318554398E+03 -0.90343466289E+02 -0.64465776628E+03  0.10652264732E+04  0.00000000000E+00 0. -1.
<mgrwt>
<rscale>  0 0.19824883E+04</rscale>
<asrwt>0</asrwt>
<pdfrwt beam="1">  1        2 0.13363374E+00 0.19824883E+04</pdfrwt>
<pdfrwt beam="2">  1       -2 0.17402772E+00 0.19824883E+04</pdfrwt>
<totfact> 0.57187292E+00</totfact>
</mgrwt>
</event>
<event>
 6    1  0.1072514E-005  0.2033671E+04  0.7818608E-02  0.8591038E-01
          2   -1    0    0  501    0  0.00000000000E+00  0.00000000000E+00  0.14656637876E+04  0.14656637876E+04  0.00000000000E+00 0. -1.
         -2   -1    0    0    0  501 -0.00000000000E+00 -0.00000000000E+00 -0.70545158701E+03  0.70545158701E+03  0.00000000000E+00 0.  1.
         23    2    1    2    0    0  0.87278939292E+03 -0.43729098886E+03  0.67698078862E+03  0.11913642832E+04  0.89783816374E+02 0.  0.
         13    1    3    3    0    0  0.25017316156E+03 -0.83505650613E+02  0.19884620516E+03  0.33030231267E+03  0.00000000000E+00 0.  1.
        -13    1    3    3    0    0  0.62261623135E+03 -0.35378533825E+03  0.47813458346E+03  0.86106197048E+03  0.00000000000E+00 0. -1.
         22    1    1    2    0    0 -0.87278939292E+03  0.43729098886E+03  0.83231412007E+02  0.97975109149E+03  0.00000000000E+00 0. -1.
<mgrwt>
<rscale>  0 0.20336714E+04</rscale>
<asrwt>0</asrwt>
<pdfrwt beam="1">  1        2 0.22548674E+00 0.20336714E+04</pdfrwt>
<pdfrwt beam="2">  1       -2 0.10853101E+00 0.20336714E+04</pdfrwt>
<totfact> 0.83498531E+00</totfact>
</mgrwt>
</event>
<event>
 6    1  0.1072514E-005  0.2036538E+04  0.7818608E-02  0.8589726E-01
          2   -1    0    0  501    0  0.00000000000E+00  0.00000000000E+00  0.13444596248E+04  0.13444596248E+04  0.00000000000E+00 0. -1.
         -2   -1    0    0    0  501 -0.00000000000E+00 -0.00000000000E+00 -0.77121785178E+03  0.77121785178E+03  0.00000000000E+00 0.  1.
         23    2    1    2    0    0 -0.57582679326E+03 -0.70971341184E+03 -0.17396457348E+03  0.93517464005E+03  0.94964792311E+02 0.  0.
         13    1    3    3    0    0 -0.36217519162E+03 -0.50478897319E+03 -0.14297813577E+03  0.63751511683E+03  0.00000000000E+00 0.  1.
        -13    1    3    3    0    0 -0.21365160164E+03 -0.20492443864E+03 -0.30986437714E+02  0.29765952321E+03  0.00000000000E+00 0. -1.
         22    1    1    2    0    0  0.57582679326E+03  0.70971341184E+03  0.74720634647E+03  0.11805028365E+04  0.00000000000E+00 0. -1.
<mgrwt>
<rscale>  0 0.20365375E+04</rscale>
<asrwt>0</asrwt>
<pdfrwt beam="1">  1        2 0.20683994E+00 0.20365375E+04</pdfrwt>
<pdfrwt beam="2">  1       -2 0.11864890E+00 0.20365375E+04</pdfrwt>
<totfact> 0.78816767E+00</totfact>
</mgrwt>
</event>
<event>
 6    1  0.1072514E-005  0.1339259E+04  0.7818608E-02  0.8998999E-01
         -1   -1    0    0    0  501 -0.00000000000E+00  0.00000000000E+00  0.87897545077E+03  0.87897545077E+03  0.00000000000E+00 0.  1.
          1   -1    0    0  501    0  0.00000000000E+00 -0.00000000000E+00 -0.51014335414E+03  0.51014335414E+03  0.00000000000E+00 0. -1.
         23    2    1    2    0    0 -0.52645256005E+03  0.15900614671E+03  0.57576173832E+03  0.80153465835E+03  0.92309135739E+02 0.  0.
         11    1    3    3    0    0 -0.50928833069E+03  0.15325120265E+03  0.57523212100E+03  0.78342359418E+03  0.00000000000E+00 0. -1.
        -11    1    3    3    0    0 -0.17164229364E+02  0.57549440624E+01  0.52961732331E+00  0.18111064169E+02  0.00000000000E+00 0.  1.
         22    1    1    2    0    0  0.52645256005E+03 -0.15900614671E+03 -0.20692964169E+03  0.58758414656E+03  0.00000000000E+00 0. -1.
<mgrwt>
<rscale>  0 0.13392587E+04</rscale>
<asrwt>0</asrwt>
<pdfrwt beam="1">  1        1 0.78483593E-01 0.13392587E+04</pdfrwt>
<pdfrwt beam="2">  1       -1 0.13522699E+00 0.13392587E+04</pdfrwt>
<totfact> 0.19372020E+01</totfact>
</mgrwt>
</event>
<event>
 6    1  0.1072514E-005  0.3306521E+04  0.7818608E-02  0.8161238E-01
          1   -1    0    0  501    0  0.00000000000E+00  0.00000000000E+00  0.28054908374E+04  0.28054908374E+04  0.00000000000E+00 0. -1.
         -1   -1    0    0    0  501 -0.00000000000E+00 -0.00000000000E+00 -0.97425732489E+03  0.97425732489E+03  0.00000000000E+00 0.  1.
         23    2    1    2    0    0  0.12311869199E+04 -0.37127698512E+03  0.21016670320E+04  0.24656697324E+04  0.94101458980E+02 0.  0.
         13    1    3    3    0    0  0.10619714472E+04 -0.35315649416E+03  0.18166376325E+04  0.21336998739E+04  0.00000000000E+00 0. -1.
        -13    1    3    3    0    0  0.16921547269E+03 -0.18120490958E+02  0.28502939948E+03  0.33196985851E+03  0.00000000000E+00 0.  1.
         22    1    1    2    0    0 -0.12311869199E+04  0.37127698512E+03 -0.27043351945E+03  0.13140784299E+04  0.00000000000E+00 0.  1.
<mgrwt>
<rscale>  0 0.33065208E+04</rscale>
<asrwt>0</asrwt>
<pdfrwt beam="1">  1        1 0.43161397E+00 0.33065208E+04</pdfrwt>
<pdfrwt beam="2">  1       -1 0.14988574E+00 0.33065208E+04</pdfrwt>
<totfact> 0.23928058E-01</totfact>
</mgrwt>
</event>
<event>
 6    1  0.1072514E-005  0.1078469E+04  0.7818608E-02  0.9226436E-01
         -1   -1    0    0    0  501 -0.00000000000E+00  0.00000000000E+00  0.44269973772E+03  0.44269973772E+03  0.00000000000E+00 0.  1.
          1   -1    0    0  501    0  0.00000000000E+00 -0.00000000000E+00 -0.65681899916E+03  0.65681899916E+03  0.00000000000E+00 0. -1.
         23    2    1    2    0    0  0.18238852380E+03  0.50055916354E+03 -0.16362488751E+03  0.56437881909E+03  0.89024141713E+02 0.  0.
         13    1    3    3    0    0  0.16825044488E+03  0.44909617026E+03 -0.17370096269E+03  0.51006627685E+03  0.00000000000E+00 0. -1.
        -13    1    3    3    0    0  0.14138078925E+02  0.51462993279E+02  0.10076075186E+02  0.54312542235E+02  0.00000000000E+00 0.  1.
         22    1    1    2    0    0 -0.18238852380E+03 -0.50055916354E+03 -0.50494373929E+02  0.53513991779E+03  0.00000000000E+00 0. -1.
<mgrwt>
<rscale>  0 0.10784685E+04</rscale>
<asrwt>0</asrwt>
<pdfrwt beam="1">  1        1 0.10104908E+00 0.10784685E+04</pdfrwt>
<pdfrwt beam="2">  1       -1 0.68107652E-01 0.10784685E+04</pdfrwt>
<totfact> 0.65330315E+01</totfact>
</mgrwt>
</event>
<event>
 6    1  0.1072514E-005  0.2722741E+04  0.7818608E-02  0.8327664E-01
          4   -1    0    0  501    0  0.00000000000E+00  0.00000000000E+00  0.77576010461E+03  0.77576010461E+03  0.00000000000E+00 0. -1.
         -4   -1    0    0    0  501 -0.00000000000E+00 -0.00000000000E+00 -0.23890501066E+04  0.23890501066E+04  0.00000000000E+00 0.  1.
         23    2    1    2    0    0  0.86163828969E+03 -0.93479160733E+03 -0.13687388661E+04  0.18701824078E+04  0.88770847862E+02 0.  0.
         11    1    3    3    0    0  0.42481776393E+03 -0.52531315128E+03 -0.71464489281E+03  0.98343345595E+03  0.00000000000E+00 0.  1.
        -11    1    3    3    0    0  0.43682052576E+03 -0.40947845606E+03 -0.65409397330E+03  0.88674895185E+03  0.00000000000E+00 0. -1.
         22    1    1    2    0    0 -0.86163828969E+03  0.93479160733E+03 -0.24455113592E+03  0.12946278035E+04  0.00000000000E+00 0. -1.
<mgrwt>
<rscale>  0 0.27227411E+04</rscale>
<asrwt>0</asrwt>
<pdfrwt beam="1">  1        4 0.11934771E+00 0.27227411E+04</pdfrwt>
<pdfrwt beam="2">  1       -4 0.36754617E+00 0.27227411E+04</pdfrwt>
<totfact> 0.10622970E-02</totfact>
</mgrwt>
</event>
<event>
 6    1  0.1072514E-005  0.4955585E+04  0.7818608E-02  0.7835395E-01
         -2   -1    0    0    0  501 -0.00000000000E+00  0.00000000000E+00  0.21395342600E+04  0.21395342600E+04  0.00000000000E+00 0.  1.
          2   -1    0    0  501    0  0.00000000000E+00 -0.00000000000E+00 -0.28695292790E+04  0.28695292790E+04  0.00000000000E+00 0. -1.
         23    2    1    2    0    0  0.10755431617E+04  0.15638994528E+03  0.18847628521E+04  0.21774192054E+04  0.87019997242E+02 0.  0.
         13    1    3    3    0    0  0.59402069309E+03  0.12333487335E+03  0.10954921428E+04  0.12522679864E+04  0.00000000000E+00 0.  1.
        -13    1    3    3    0    0  0.48152246860E+03  0.33055071927E+02  0.78927070925E+03  0.92515121901E+03  0.00000000000E+00 0. -1.
         22    1    1    2    0    0 -0.10755431617E+04 -0.15638994528E+03 -0.26147578710E+04  0.28316443336E+04  0.00000000000E+00 0. -1.
<mgrwt>
<rscale>  0 0.49555852E+04</rscale>
<asrwt>0</asrwt>
<pdfrwt beam="1">  1        2 0.44146605E+00 0.49555852E+04</pdfrwt>
<pdfrwt beam="2">  1       -2 0.32915911E+00 0.49555852E+04</pdfrwt>
<totfact> 0.32188633E-02</totfact>
</mgrwt>
</event>
<event>
 6    1  0.1072514E-005  0.6238805E+03  0.7818608E-02  0.9857064E-01
         -2   -1    0    0    0  501 -0.00000000000E+00  0.00000000000E+00  0.91497199863E+02  0.91497199863E+02  0.00000000000E+00 0.  1.
          2   -1    0    0  501    0  0.00000000000E+00 -0.00000000000E+00 -0.10634941082E+04  0.10634941082E+04  0.00000000000E+00 0. -1.
         23    2    1    2    0    0 -0.11407529594E+03  0.28039359239E+03 -0.56037271829E+03  0.64404296073E+03  0.95603410352E+02 0.  0.
         13    1    3    3    0    0 -0.45748850389E+02  0.35164201728E+02 -0.63823574633E+02  0.86040264261E+02  0.00000000000E+00 0.  1.
        -13    1    3    3    0    0 -0.68326445551E+02  0.24522939066E+03 -0.49654914365E+03  0.55800269647E+03  0.00000000000E+00 0. -1.
         22    1    1    2    0    0  0.11407529594E+03 -0.28039359239E+03 -0.41162419001E+03  0.51094834729E+03  0.00000000000E+00 0.  1.
<mgrwt>
<rscale>  0 0.62388054E+03</rscale>
<asrwt>0</asrwt>
<pdfrwt beam="1">  1        2 0.16361447E+00 0.62388054E+03</pdfrwt>
<pdfrwt beam="2">  1       -2 0.14076493E-01 0.62388054E+03</pdfrwt>
<totfact> 0.90328149E+02</totfact>
</mgrwt>
</event>
<event>
 6    1  0.1072514E-005  0.1871460E+04  0.7818608E-02  0.8669194E-01
          1   -1    0    0  501    0  0.00000000000E+00  0.00000000000E+00  0.15075827597E+04  0.15075827597E+04  0.00000000000E+00 0. -1.
         -1   -1    0    0    0  501 -0.00000000000E+00 -0.00000000000E+00 -0.58079113807E+03  0.58079113807E+03  0.00000000000E+00 0.  1.
         23    2    1    2    0    0  0.28409069398E+03 -0.39819977868E+03 -0.42299513610E+03  0.65268769337E+03  0.88350176970E+02 0.  0.
         13    1    3    3    0    0  0.12722523129E+03 -0.14860607317E+03 -0.22198486175E+03  0.29588393553E+03  0.00000000000E+00 0.  1.
        -13    1    3    3    0    0  0.15686546268E+03 -0.24959370551E+03 -0.20101027435E+03  0.35680375784E+03  0.00000000000E+00 0. -1.
         22    1    1    2    0    0 -0.28409069398E+03  0.39819977868E+03  0.13497867577E+04  0.14356862044E+04  0.00000000000E+00 0. -1.
<mgrwt>
<rscale>  0 0.18714601E+04</rscale>
<asrwt>0</asrwt>
<pdfrwt beam="1">  1        1 0.23193581E+00 0.18714601E+04</pdfrwt>
<pdfrwt beam="2">  1       -1 0.89352484E-01 0.18714601E+04</pdfrwt>
<totfact> 0.74392432E+00</totfact>
</mgrwt>
</event>
<event>
 6    1  0.1072514E-005  0.1759657E+04  0.7818608E-02  0.8728053E-01
          2   -1    0    0  501    0  0.00000000000E+00  0.00000000000E+00  0.11915057201E+04  0.11915057201E+04  0.00000000000E+00 0. -1.
         -2   -1    0    0    0  501 -0.00000000000E+00 -0.00000000000E+00 -0.64968057887E+03  0.64968057887E+03  0.00000000000E+00 0.  1.
         23    2    1    2    0    0 -0.53120207057E+03 -0.54554041567E+03 -0.18466169206E+03  0.78877330785E+03  0.90958263838E+02 0.  0.
         11    1    3    3    0    0 -0.13969214476E+03 -0.94904691241E+02 -0.23993943333E+02  0.17057697689E+03  0.00000000000E+00 0.  1.
        -11    1    3    3    0    0 -0.39150992581E+03 -0.45063572443E+03 -0.16066774872E+03  0.61819633096E+03  0.00000000000E+00 0. -1.
         22    1    1    2    0    0  0.53120207057E+03  0.54554041567E+03  0.72648683327E+03  0.10524129911E+04  0.00000000000E+00 0. -1.
<mgrwt>
<rscale>  0 0.17596569E+04</rscale>
<asrwt>0</asrwt>
<pdfrwt beam="1">  1        2 0.18330857E+00 0.17596569E+04</pdfrwt>
<pdfrwt beam="2">  1       -2 0.99950858E-01 0.17596569E+04</pdfrwt>
<totfact> 0.15012574E+01</totfact>
</mgrwt>
</event>
<event>
 6    1  0.1072514E-005  0.3393333E+04  0.7818608E-02  0.8139544E-01
          2   -1    0    0  501    0  0.00000000000E+00  0.00000000000E+00  0.17693027202E+04  0.17693027202E+04  0.00000000000E+00 0. -1.
         -2   -1    0    0    0  501 -0.00000000000E+00 -0.00000000000E+00 -0.16270126780E+04  0.16270126780E+04  0.00000000000E+00 0.  1.
         23    2    1    2    0    0 -0.13884242407E+04  0.68039020969E+03  0.76743578913E+03  0.17285444565E+04  0.90859991130E+02 0.  0.
         13    1    3    3    0    0 -0.19870240421E+03  0.72978147005E+02  0.80633915410E+02  0.22651773373E+03  0.00000000000E+00 0. -1.
        -13    1    3    3    0    0 -0.11897218365E+04  0.60741206268E+03  0.68680187372E+03  0.15020267227E+04  0.00000000000E+00 0.  1.
         22    1    1    2    0    0  0.13884242407E+04 -0.68039020969E+03 -0.62514574693E+03  0.16677709418E+04  0.00000000000E+00 0.  1.
<mgrwt>
<rscale>  0 0.33933334E+04</rscale>
<asrwt>0</asrwt>
<pdfrwt beam="1">  1        2 0.27220042E+00 0.33933334E+04</pdfrwt>
<pdfrwt beam="2">  1       -2 0.25030964E+00 0.33933334E+04</pdfrwt>
<totfact> 0.47594875E-01</totfact>
</mgrwt>
</event>
<event>
 6    1  0.1072514E-005  0.4071123E+04  0.7818608E-02  0.7990350E-01
          2   -1    0    0  501    0  0.00000000000E+00  0.00000000000E+00  0.19266164316E+04  0.19266164316E+04  0.00000000000E+00 0. -1.
         -2   -1    0    0    0  501 -0.00000000000E+00 -0.00000000000E+00 -0.21506673670E+04  0.21506673670E+04  0.00000000000E+00 0.  1.
         23    2    1    2    0    0 -0.64085800076E+02  0.19256339824E+04 -0.76663348368E+03  0.20756422110E+04  0.91599487546E+02 0.  0.
         13    1    3    3    0    0 -0.57781732675E+02  0.11241094636E+04 -0.40429122884E+03  0.11959984166E+04  0.00000000000E+00 0. -1.
        -13    1    3    3    0    0 -0.63040674018E+01  0.80152451872E+03 -0.36234225484E+03  0.87964379439E+03  0.00000000000E+00 0.  1.
         22    1    1    2    0    0  0.64085800076E+02 -0.19256339824E+04  0.54258254828E+03  0.20016415877E+04  0.00000000000E+00 0. -1.
<mgrwt>
<rscale>  0 0.40711232E+04</rscale>
<asrwt>0</asrwt>
<pdfrwt beam="1">  1        2 0.29640253E+00 0.40711232E+04</pdfrwt>
<pdfrwt beam="2">  1       -2 0.33087190E+00 0.40711232E+04</pdfrwt>
<totfact> 0.11800751E-01</totfact>
</mgrwt>
</event>
<event>
 6    1  0.1072514E-005  0.3307401E+04  0.7818608E-02  0.8161015E-01
          3   -1    0    0  501    0  0.00000000000E+00  0.00000000000E+00  0.14804519555E+04  0.14804519555E+04  0.00000000000E+00 0. -1.
         -3   -1    0    0    0  501 -0.00000000000E+00 -0.00000000000E+00 -0.18472233369E+04  0.18472233369E+04  0.00000000000E+00 0.  1.
         23    2    1    2    0    0 -0.10394497652E+03 -0.12177198461E+04 -0.13025981684E+04  0.17883839110E+04  0.88931676922E+02 0.  0.
         11    1    3    3    0    0 -0.61974856940E+02 -0.28931023767E+03 -0.32653292572E+03  0.44064163228E+03  0.00000000000E+00 0.  1.
        -11    1    3    3    0    0 -0.41970119577E+02 -0.92840960842E+03 -0.97606524267E+03  0.13477422787E+04  0.00000000000E+00 0. -1.
         22    1    1    2    0    0  0.10394497652E+03  0.12177198461E+04  0.93582678693E+03  0.15392913814E+04  0.00000000000E+00 0. -1.
<mgrwt>
<rscale>  0 0.33074010E+04</rscale>
<asrwt>0</asrwt>
<pdfrwt beam="1">  1        3 0.22776184E+00 0.33074010E+04</pdfrwt>
<pdfrwt beam="2">  1       -3 0.28418820E+00 0.33074010E+04</pdfrwt>
<totfact> 0.10033882E-02</totfact>
</mgrwt>
</event>
<event>
 6    1  0.1072514E-005  0.4488711E+04  0.7818608E-02  0.7912616E-01
         -2   -1    0    0    0  501 -0.00000000000E+00  0.00000000000E+00  0.40825608091E+04  0.40825608091E+04  0.00000000000E+00 0.  1.
          2   -1    0    0  501    0  0.00000000000E+00 -0.00000000000E+00 -0.12338167650E+04  0.12338167650E+04  0.00000000000E+00 0. -1.
         23    2    1    2    0    0 -0.17654024527E+04 -0.20402047512E+03  0.30466815545E+04  0.35282362396E+04  0.88951076172E+02 0.  0.
         13    1    3    3    0    0 -0.88480555229E+03 -0.57860439479E+02  0.15068079629E+04  0.17483417666E+04  0.00000000000E+00 0.  1.
        -13    1    3    3    0    0 -0.88059690039E+03 -0.14616003564E+03  0.15398735916E+04  0.17798944730E+04  0.00000000000E+00 0. -1.
         22    1    1    2    0    0  0.17654024527E+04  0.20402047512E+03 -0.19793751036E+03  0.17881413345E+04  0.00000000000E+00 0. -1.
<mgrwt>
<rscale>  0 0.44887112E+04</rscale>
<asrwt>0</asrwt>
<pdfrwt beam="1">  1        2 0.18981797E+00 0.44887112E+04</pdfrwt>
<pdfrwt beam="2">  1       -2 0.62808627E+00 0.44887112E+04</pdfrwt>
<totfact> 0.54999838E-03</totfact>
</mgrwt>
</event>
<event>
 6    1  0.1072514E-005  0.1288915E+04  0.7818608E-02  0.9038402E-01
         -1   -1    0    0    0  501 -0.00000000000E+00  0.00000000000E+00  0.28302338168E+03  0.28302338168E+03  0.00000000000E+00 0.  1.
          1   -1    0    0  501    0  0.00000000000E+00 -0.00000000000E+00 -0.14674596564E+04  0.14674596564E+04  0.00000000000E+00 0. -1.
         23    2    1    2    0    0 -0.17093205085E+03  0.53642928765E+03 -0.17788189612E+03  0.59717221106E+03  0.89434523786E+02 0.  0.
         13    1    3    3    0    0 -0.14600412062E+03  0.34779404641E+03 -0.14483593454E+03  0.40404869742E+03  0.00000000000E+00 0. -1.
        -13    1    3    3    0    0 -0.24927930223E+02  0.18863524124E+03 -0.33045961576E+02  0.19312351364E+03  0.00000000000E+00 0.  1.
         22    1    1    2    0    0  0.17093205085E+03 -0.53642928765E+03 -0.10065543787E+04  0.11533108271E+04  0.00000000000E+00 0. -1.
<mgrwt>
<rscale>  0 0.12889149E+04</rscale>
<asrwt>0</asrwt>
<pdfrwt beam="1">  1        1 0.22576302E+00 0.12889149E+04</pdfrwt>
<pdfrwt beam="2">  1       -1 0.43542059E-01 0.12889149E+04</pdfrwt>
<totfact> 0.35283900E+01</totfact>
</mgrwt>
</event>
<event>
 6    1  0.1072514E-005  0.1876944E+04  0.7818608E-02  0.8666418E-01
          2   -1    0    0  501    0  0.00000000000E+00  0.00000000000E+00  0.13477468712E+04  0.13477468712E+04  0.00000000000E+00 0. -1.
         -2   -1    0    0    0  501 -0.00000000000E+00 -0.00000000000E+00 -0.65348328276E+03  0.65348328276E+03  0.00000000000E+00 0.  1.
         23    2    1    2    0    0  0.89574308025E+03 -0.26072591137E+03  0.43958268495E+03  0.10341748147E+04  0.77142360093E+02 0.  0.
         11    1    3    3    0    0  0.40575688239E+03 -0.80611730465E+02  0.17988133668E+03  0.45110330744E+03  0.00000000000E+00 0. -1.
        -11    1    3    3    0    0  0.48998619786E+03 -0.18011418091E+03  0.25970134826E+03  0.58307150723E+03  0.00000000000E+00 0.  1.
         22    1    1    2    0    0 -0.89574308025E+03  0.26072591137E+03  0.25468090351E+03  0.96705533931E+03  0.00000000000E+00 0.  1.
<mgrwt>
<rscale>  0 0.18769444E+04</rscale>
<asrwt>0</asrwt>
<pdfrwt beam="1">  1        2 0.20734567E+00 0.18769444E+04</pdfrwt>
<pdfrwt beam="2">  1       -2 0.10053589E+00 0.18769444E+04</pdfrwt>
<totfact> 0.11869589E+01</totfact>
</mgrwt>
</event>
<event>
 6    1  0.1072514E-005  0.3059407E+04  0.7818608E-02  0.8226967E-01
          1   -1    0    0  501    0  0.00000000000E+00  0.00000000000E+00  0.15600357322E+04  0.15600357322E+04  0.00000000000E+00 0. -1.
         -1   -1    0    0    0  501 -0.00000000000E+00 -0.00000000000E+00 -0.14999607115E+04  0.14999607115E+04  0.00000000000E+00 0.  1.
         23    2    1    2    0    0  0.51614312648E+03 -0.12023289309E+04 -0.76001923136E+03  0.15157965966E+04  0.89507011225E+02 0.  0.
         13    1    3    3    0    0  0.40717241710E+03 -0.87230245679E+03 -0.52841670747E+03  0.10981462426E+04  0.00000000000E+00 0.  1.
        -13    1    3    3    0    0  0.10897070938E+03 -0.33002647416E+03 -0.23160252389E+03  0.41765035403E+03  0.00000000000E+00 0. -1.
         22    1    1    2    0    0 -0.51614312648E+03  0.12023289309E+04  0.82009425207E+03  0.15441998470E+04  0.00000000000E+00 0. -1.
<mgrwt>
<rscale>  0 0.30594067E+04</rscale>
<asrwt>0</asrwt>
<pdfrwt beam="1">  1        1 0.24000550E+00 0.30594067E+04</pdfrwt>
<pdfrwt beam="2">  1       -1 0.23076318E+00 0.30594067E+04</pdfrwt>
<totfact> 0.46968084E-01</totfact>
</mgrwt>
</event>
<event>
 6    1  0.1072514E-005  0.4380473E+04  0.7818608E-02  0.7931903E-01
         -2   -1    0    0    0  501 -0.00000000000E+00  0.00000000000E+00  0.15093641952E+04  0.15093641952E+04  0.00000000000E+00 0.  1.
          2   -1    0    0  501    0  0.00000000000E+00 -0.00000000000E+00 -0.31782500259E+04  0.31782500259E+04  0.00000000000E+00 0. -1.
         23    2    1    2    0    0 -0.78990246133E+03  0.18168783145E+04  0.16168891007E+03  0.19902086918E+04  0.98967798450E+02 0.  0.
         11    1    3    3    0    0 -0.66219885325E+02  0.14121563332E+03 -0.13554261210E+02  0.15655876310E+03  0.00000000000E+00 0. -1.
        -11    1    3    3    0    0 -0.72368257601E+03  0.16756626812E+04  0.17524317128E+03  0.18336499287E+04  0.00000000000E+00 0.  1.
         22    1    1    2    0    0  0.78990246133E+03 -0.18168783145E+04 -0.18305747408E+04  0.26974055294E+04  0.00000000000E+00 0. -1.
<mgrwt>
<rscale>  0 0.43804734E+04</rscale>
<asrwt>0</asrwt>
<pdfrwt beam="1">  1        2 0.48896154E+00 0.43804734E+04</pdfrwt>
<pdfrwt beam="2">  1       -2 0.23220988E+00 0.43804734E+04</pdfrwt>
<totfact> 0.84811643E-02</totfact>
</mgrwt>
</event>
<event>
 6    1  0.1072514E-005  0.2632451E+04  0.7818608E-02  0.8357261E-01
          2   -1    0    0  501    0  0.00000000000E+00  0.00000000000E+00  0.98142850999E+03  0.98142850999E+03  0.00000000000E+00 0.  1.
         -2   -1    0    0    0  501 -0.00000000000E+00 -0.00000000000E+00 -0.17652328124E+04  0.17652328124E+04  0.00000000000E+00 0. -1.
         23    2    1    2    0    0 -0.11652942082E+04  0.58278121867E+02 -0.10243516546E+04  0.15553721217E+04  0.92623936162E+02 0.  0.
         11    1    3    3    0    0 -0.17994232901E+03  0.94454208413E+01 -0.20501787359E+03  0.27294832154E+03  0.00000000000E+00 0. -1.
        -11    1    3    3    0    0 -0.98535187919E+03  0.48832701025E+02 -0.81933378102E+03  0.12824238002E+04  0.00000000000E+00 0.  1.
         22    1    1    2    0    0  0.11652942082E+04 -0.58278121867E+02  0.24054735215E+03  0.11912892007E+04  0.00000000000E+00 0.  1.
<mgrwt>
<rscale>  0 0.26324512E+04</rscale>
<asrwt>0</asrwt>
<pdfrwt beam="1">  1        2 0.15098900E+00 0.26324512E+04</pdfrwt>
<pdfrwt beam="2">  1       -2 0.27157427E+00 0.26324512E+04</pdfrwt>
<totfact> 0.10828884E+00</totfact>
</mgrwt>
</event>
<event>
 6    1  0.1072514E-005  0.9042191E+03  0.7818608E-02  0.9420323E-01
         -1   -1    0    0    0  501 -0.00000000000E+00  0.00000000000E+00  0.12393935053E+03  0.12393935053E+03  0.00000000000E+00 0.  1.
          1   -1    0    0  501    0  0.00000000000E+00 -0.00000000000E+00 -0.16492183798E+04  0.16492183798E+04  0.00000000000E+00 0. -1.
         23    2    1    2    0    0  0.32571286259E+03  0.29542807129E+03 -0.93230220173E+03  0.10349246153E+04  0.92276485507E+02 0.  0.
         13    1    3    3    0    0  0.20233385687E+03  0.24038874717E+03 -0.65460290184E+03  0.72610653385E+03  0.00000000000E+00 0.  1.
        -13    1    3    3    0    0  0.12337900572E+03  0.55039324117E+02 -0.27769929989E+03  0.30881808142E+03  0.00000000000E+00 0. -1.
         22    1    1    2    0    0 -0.32571286259E+03 -0.29542807129E+03 -0.59297682755E+03  0.73823311506E+03  0.00000000000E+00 0.  1.
<mgrwt>
<rscale>  0 0.90421912E+03</rscale>
<asrwt>0</asrwt>
<pdfrwt beam="1">  1        1 0.25372589E+00 0.90421912E+03</pdfrwt>
<pdfrwt beam="2">  1       -1 0.19067593E-01 0.90421912E+03</pdfrwt>
<totfact> 0.11554407E+02</totfact>
</mgrwt>
</event>
<event>
 6    1  0.1072514E-005  0.2810516E+04  0.7818608E-02  0.8300011E-01
          1   -1    0    0  501    0  0.00000000000E+00  0.00000000000E+00  0.27097746184E+04  0.27097746184E+04  0.00000000000E+00 0. -1.
         -1   -1    0    0    0  501 -0.00000000000E+00 -0.00000000000E+00 -0.72875062113E+03  0.72875062113E+03  0.00000000000E+00 0.  1.
         23    2    1    2    0    0  0.13164099551E+03  0.67636989788E+03 -0.50455715613E+03  0.85919988963E+03  0.94026252064E+02 0.  0.
         11    1    3    3    0    0  0.10177310880E+03  0.33872173996E+03 -0.21909570708E+03  0.41604460297E+03  0.00000000000E+00 0.  1.
        -11    1    3    3    0    0  0.29867886718E+02  0.33764815792E+03 -0.28546144905E+03  0.44315528666E+03  0.00000000000E+00 0. -1.
         22    1    1    2    0    0 -0.13164099551E+03 -0.67636989788E+03  0.24855811535E+04  0.25793253499E+04  0.00000000000E+00 0. -1.
<mgrwt>
<rscale>  0 0.28105159E+04</rscale>
<asrwt>0</asrwt>
<pdfrwt beam="1">  1        1 0.41688840E+00 0.28105159E+04</pdfrwt>
<pdfrwt beam="2">  1       -1 0.11211548E+00 0.28105159E+04</pdfrwt>
<totfact> 0.60905927E-01</totfact>
</mgrwt>
</event>
<event>
 6    1  0.1072514E-005  0.3069151E+04  0.7818608E-02  0.8224255E-01
          2   -1    0    0  501    0  0.00000000000E+00  0.00000000000E+00  0.91329264881E+03  0.91329264881E+03  0.00000000000E+00 0. -1.
         -2   -1    0    0    0  501 -0.00000000000E+00 -0.00000000000E+00 -0.25784966568E+04  0.25784966568E+04  0.00000000000E+00 0.  1.
         23    2    1    2    0    0  0.44107545538E+03  0.90438966956E+03 -0.21494871071E+04  0.23750985015E+04  0.91267938588E+02 0.  0.
         13    1    3    3    0    0  0.25514367799E+03  0.61560257225E+03 -0.14534000742E+04  0.15988860494E+04  0.00000000000E+00 0. -1.
        -13    1    3    3    0    0  0.18593177739E+03  0.28878709731E+03 -0.69608703292E+03  0.77621245211E+03  0.00000000000E+00 0.  1.
         22    1    1    2    0    0 -0.44107545538E+03 -0.90438966956E+03  0.48428309914E+03  0.11166908041E+04  0.00000000000E+00 0. -1.
<mgrwt>
<rscale>  0 0.30691510E+04</rscale>
<asrwt>0</asrwt>
<pdfrwt beam="1">  1        2 0.14050656E+00 0.30691510E+04</pdfrwt>
<pdfrwt beam="2">  1       -2 0.39669179E+00 0.30691510E+04</pdfrwt>
<totfact> 0.19057788E-01</totfact>
</mgrwt>
</event>
<event>
 6    1  0.1072514E-005  0.4213628E+03  0.7818608E-02  0.1036624E+00
          1   -1    0    0  501    0  0.00000000000E+00  0.00000000000E+00  0.32528780227E+03  0.32528780227E+03  0.00000000000E+00 0. -1.
         -1   -1    0    0    0  501 -0.00000000000E+00 -0.00000000000E+00 -0.13645345019E+03  0.13645345019E+03  0.00000000000E+00 0.  1.
         23    2    1    2    0    0 -0.61902849259E+02 -0.17624536246E+03  0.18076668630E+03  0.27476671471E+03  0.89026749357E+02 0.  0.
         13    1    3    3    0    0 -0.70854721937E+02 -0.68858524328E+02  0.94668177422E+02  0.13683549178E+03  0.00000000000E+00 0.  1.
        -13    1    3    3    0    0  0.89518726783E+01 -0.10738683814E+03  0.86098508880E+02  0.13793122294E+03  0.00000000000E+00 0. -1.
         22    1    1    2    0    0  0.61902849259E+02  0.17624536246E+03  0.80676657755E+01  0.18697453775E+03  0.00000000000E+00 0.  1.
<mgrwt>
<rscale>  0 0.42136276E+03</rscale>
<asrwt>0</asrwt>
<pdfrwt beam="1">  1        1 0.50044277E-01 0.42136276E+03</pdfrwt>
<pdfrwt beam="2">  1       -1 0.20992838E-01 0.42136276E+03</pdfrwt>
<totfact> 0.14787387E+03</totfact>
</mgrwt>
</event>
<event>
 6    1  0.1072514E-005  0.1927513E+04  0.7818608E-02  0.8641281E-01
         -2   -1    0    0    0  501 -0.00000000000E+00  0.00000000000E+00  0.11379746988E+04  0.11379746988E+04  0.00000000000E+00 0.  1.
          2   -1    0    0  501    0  0.00000000000E+00 -0.00000000000E+00 -0.81621049890E+03  0.81621049890E+03  0.00000000000E+00 0. -1.
         23    2    1    2    0    0 -0.33901446246E+03 -0.75102141425E+03 -0.34113215631E+03  0.89664297655E+03  0.92916677255E+02 0.  0.
         13    1    3    3    0    0 -0.30118151053E+03 -0.61322181758E+03 -0.25178922623E+03  0.72811339384E+03  0.00000000000E+00 0.  1.
        -13    1    3    3    0    0 -0.37832951927E+02 -0.13779959667E+03 -0.89342930081E+02  0.16852958272E+03  0.00000000000E+00 0. -1.
         22    1    1    2    0    0  0.33901446246E+03  0.75102141425E+03  0.66289635617E+03  0.10575422211E+04  0.00000000000E+00 0.  1.
<mgrwt>
<rscale>  0 0.19275133E+04</rscale>
<asrwt>0</asrwt>
<pdfrwt beam="1">  1        2 0.12557085E+00 0.19275133E+04</pdfrwt>
<pdfrwt beam="2">  1       -2 0.17507303E+00 0.19275133E+04</pdfrwt>
<totfact> 0.61468046E+00</totfact>
</mgrwt>
</event>
<event>
 6    1  0.1072514E-005  0.3678201E+04  0.7818608E-02  0.8072810E-01
         -1   -1    0    0    0  501 -0.00000000000E+00  0.00000000000E+00  0.17717045746E+04  0.17717045746E+04  0.00000000000E+00 0.  1.
          1   -1    0    0  501    0  0.00000000000E+00 -0.00000000000E+00 -0.19090605634E+04  0.19090605634E+04  0.00000000000E+00 0. -1.
         23    2    1    2    0    0  0.17273759028E+04 -0.41705008486E+01  0.55969169470E+03  0.18180465935E+04  0.90519171068E+02 0.  0.
         11    1    3    3    0    0  0.45361119581E+03  0.33455162473E+02  0.12644989559E+03  0.47209314860E+03  0.00000000000E+00 0.  1.
        -11    1    3    3    0    0  0.12737647070E+04 -0.37625663322E+02  0.43324179911E+03  0.13459534449E+04  0.00000000000E+00 0. -1.
         22    1    1    2    0    0 -0.17273759028E+04  0.41705008486E+01 -0.69704768350E+03  0.18627185444E+04  0.00000000000E+00 0. -1.
<mgrwt>
<rscale>  0 0.36782014E+04</rscale>
<asrwt>0</asrwt>
<pdfrwt beam="1">  1        1 0.29370163E+00 0.36782014E+04</pdfrwt>
<pdfrwt beam="2">  1       -1 0.27256993E+00 0.36782014E+04</pdfrwt>
<totfact> 0.13729586E-01</totfact>
</mgrwt>
</event>
<event>
 6    1  0.1072514E-005  0.1771882E+04  0.7818608E-02  0.8721397E-01
          1   -1    0    0  501    0  0.00000000000E+00  0.00000000000E+00  0.21436238129E+04  0.21436238129E+04  0.00000000000E+00 0. -1.
         -1   -1    0    0    0  501 -0.00000000000E+00 -0.00000000000E+00 -0.36615164997E+03  0.36615164997E+03  0.00000000000E+00 0.  1.
         23    2    1    2    0    0 -0.13196087480E+03  0.87301988948E+03  0.86098329209E+03  0.12371681981E+04  0.98567344213E+02 0.  0.
         11    1    3    3    0    0 -0.81694649964E+02  0.24725220742E+03  0.23945142008E+03  0.35375790095E+03  0.00000000000E+00 0. -1.
        -11    1    3    3    0    0 -0.50266224836E+02  0.62576768206E+03  0.62153187201E+03  0.88341029719E+03  0.00000000000E+00 0.  1.
         22    1    1    2    0    0  0.13196087480E+03 -0.87301988948E+03  0.91648887089E+03  0.12726072648E+04  0.00000000000E+00 0. -1.
<mgrwt>
<rscale>  0 0.17718819E+04</rscale>
<asrwt>0</asrwt>
<pdfrwt beam="1">  1        1 0.32978827E+00 0.17718819E+04</pdfrwt>
<pdfrwt beam="2">  1       -1 0.56331025E-01 0.17718819E+04</pdfrwt>
<totfact> 0.71817589E+00</totfact>
</mgrwt>
</event>
<event>
 6    1  0.1072514E-005  0.3337611E+04  0.7818608E-02  0.8153391E-01
          1   -1    0    0  501    0  0.00000000000E+00  0.00000000000E+00  0.27491072841E+04  0.27491072841E+04  0.00000000000E+00 0. -1.
         -1   -1    0    0    0  501 -0.00000000000E+00 -0.00000000000E+00 -0.10130238126E+04  0.10130238126E+04  0.00000000000E+00 0.  1.
         23    2    1    2    0    0 -0.28570997555E+03  0.14660900438E+04  0.17044414149E+04  0.22681259340E+04  0.90689077980E+02 0.  0.
         13    1    3    3    0    0 -0.22123646153E+03  0.11840728622E+04  0.13200850794E+04  0.17870642775E+04  0.00000000000E+00 0. -1.
        -13    1    3    3    0    0 -0.64473514020E+02  0.28201718158E+03  0.38435633549E+03  0.48106165650E+03  0.00000000000E+00 0.  1.
         22    1    1    2    0    0  0.28570997555E+03 -0.14660900438E+04  0.31642056544E+02  0.14940051628E+04  0.00000000000E+00 0.  1.
<mgrwt>
<rscale>  0 0.33376106E+04</rscale>
<asrwt>0</asrwt>
<pdfrwt beam="1">  1        1 0.42293958E+00 0.33376106E+04</pdfrwt>
<pdfrwt beam="2">  1       -1 0.15584982E+00 0.33376106E+04</pdfrwt>
<totfact> 0.23538456E-01</totfact>
</mgrwt>
</event>
<event>
 6    1  0.1072514E-005  0.1549033E+04  0.7818608E-02  0.8852486E-01
         -2   -1    0    0    0  501 -0.00000000000E+00  0.00000000000E+00  0.63678730188E+03  0.63678730188E+03  0.00000000000E+00 0. -1.
          2   -1    0    0  501    0  0.00000000000E+00 -0.00000000000E+00 -0.94203479471E+03  0.94203479471E+03  0.00000000000E+00 0.  1.
         23    2    1    2    0    0 -0.88487215266E+02  0.38229837520E+03  0.52416700928E+03  0.66126531293E+03  0.92405224564E+02 0.  0.
         11    1    3    3    0    0 -0.54430009988E+02  0.25837513098E+03  0.27702761436E+03  0.38270698114E+03  0.00000000000E+00 0.  1.
        -11    1    3    3    0    0 -0.34057205278E+02  0.12392324421E+03  0.24713939492E+03  0.27855833179E+03  0.00000000000E+00 0. -1.
         22    1    1    2    0    0  0.88487215266E+02 -0.38229837520E+03 -0.82941450211E+03  0.91755678366E+03  0.00000000000E+00 0.  1.
<mgrwt>
<rscale>  0 0.15490330E+04</rscale>
<asrwt>0</asrwt>
<pdfrwt beam="1">  1        2 0.14492843E+00 0.15490330E+04</pdfrwt>
<pdfrwt beam="2">  1       -2 0.97967278E-01 0.15490330E+04</pdfrwt>
<totfact> 0.22943012E+01</totfact>
</mgrwt>
</event>
<event>
 6    1  0.1072514E-005  0.1459821E+04  0.7818608E-02  0.8911620E-01
          2   -1    0    0  501    0  0.00000000000E+00  0.00000000000E+00  0.11416586669E+04  0.11416586669E+04  0.00000000000E+00 0. -1.
         -2   -1    0    0    0  501 -0.00000000000E+00 -0.00000000000E+00 -0.46666246417E+03  0.46666246417E+03  0.00000000000E+00 0.  1.
         23    2    1    2    0    0 -0.54697055216E+03  0.11981394341E+03  0.84992383093E+03  0.10216936163E+04  0.89191710332E+02 0.  0.
         13    1    3    3    0    0 -0.37820357365E+03  0.45258449455E+02  0.60766944634E+03  0.71718088819E+03  0.00000000000E+00 0. -1.
        -13    1    3    3    0    0 -0.16876697850E+03  0.74555493955E+02  0.24225438459E+03  0.30451272808E+03  0.00000000000E+00 0.  1.
         22    1    1    2    0    0  0.54697055216E+03 -0.11981394341E+03 -0.17492762823E+03  0.58662751476E+03  0.00000000000E+00 0.  1.
<mgrwt>
<rscale>  0 0.14598209E+04</rscale>
<asrwt>0</asrwt>
<pdfrwt beam="1">  1        2 0.17563979E+00 0.14598209E+04</pdfrwt>
<pdfrwt beam="2">  1       -2 0.71794226E-01 0.14598209E+04</pdfrwt>
<totfact> 0.35010758E+01</totfact>
</mgrwt>
</event>
<event>
 6    1  0.1072514E-005  0.3128436E+04  0.7818608E-02  0.8207977E-01
         -1   -1    0    0    0  501 -0.00000000000E+00  0.00000000000E+00  0.79279621839E+03  0.79279621839E+03  0.00000000000E+00 0.  1.
          1   -1    0    0  501    0  0.00000000000E+00 -0.00000000000E+00 -0.30862625648E+04  0.30862625648E+04  0.00000000000E+00 0. -1.
         23    2    1    2    0    0  0.70753327947E+02  0.15248842907E+04 -0.15627852494E+04  0.21866720074E+04  0.94649873618E+02 0.  0.
         13    1    3    3    0    0  0.70642471817E+01  0.95803485342E+03 -0.10171536664E+04  0.13973125151E+04  0.00000000000E+00 0.  1.
        -13    1    3    3    0    0  0.63689080765E+02  0.56684943729E+03 -0.54563158304E+03  0.78935949224E+03  0.00000000000E+00 0. -1.
         22    1    1    2    0    0 -0.70753327947E+02 -0.15248842907E+04 -0.73068109702E+03  0.16923867758E+04  0.00000000000E+00 0.  1.
<mgrwt>
<rscale>  0 0.31284356E+04</rscale>
<asrwt>0</asrwt>
<pdfrwt beam="1">  1        1 0.47480962E+00 0.31284356E+04</pdfrwt>
<pdfrwt beam="2">  1       -1 0.12196865E+00 0.31284356E+04</pdfrwt>
<totfact> 0.25841709E-01</totfact>
</mgrwt>
</event>
<event>
 6    1  0.1230709E-005  0.4607349E+04  0.7818608E-02  0.7892108E-01
         -2   -1    0    0    0  501 -0.00000000000E+00  0.00000000000E+00  0.20989620729E+04  0.20989620729E+04  0.00000000000E+00 0.  1.
          2   -1    0    0  501    0  0.00000000000E+00 -0.00000000000E+00 -0.25283531198E+04  0.25283531198E+04  0.00000000000E+00 0. -1.
         23    2    1    2    0    0 -0.63157300674E+03  0.73830732210E+03 -0.23116137623E+04  0.25091215011E+04  0.90279323564E+02 0.  0.
         11    1    3    3    0    0 -0.28748195160E+03  0.34550241037E+03 -0.11846818312E+04  0.12670788567E+04  0.00000000000E+00 0.  1.
        -11    1    3    3    0    0 -0.34409105515E+03  0.39280491173E+03 -0.11269319311E+04  0.12420426443E+04  0.00000000000E+00 0. -1.
         22    1    1    2    0    0  0.63157300674E+03 -0.73830732210E+03  0.18822227154E+04  0.21181936916E+04  0.00000000000E+00 0.  1.
<mgrwt>
<rscale>  0 0.46073495E+04</rscale>
<asrwt>0</asrwt>
<pdfrwt beam="1">  1        2 0.38897740E+00 0.46073495E+04</pdfrwt>
<pdfrwt beam="2">  1       -2 0.32291724E+00 0.46073495E+04</pdfrwt>
<totfact> 0.57826851E-02</totfact>
</mgrwt>
</event>
<event>
 6    1  0.1072514E-005  0.3070122E+04  0.7818608E-02  0.8223986E-01
          2   -1    0    0  501    0  0.00000000000E+00  0.00000000000E+00  0.19859345489E+04  0.19859345489E+04  0.00000000000E+00 0. -1.
         -2   -1    0    0    0  501 -0.00000000000E+00 -0.00000000000E+00 -0.11865506198E+04  0.11865506198E+04  0.00000000000E+00 0.  1.
         23    2    1    2    0    0  0.47185156372E+03 -0.85687638408E+03  0.16207219254E+04  0.18951922735E+04  0.90184024298E+02 0.  0.
         11    1    3    3    0    0  0.24860199237E+03 -0.35867052570E+03  0.71588340919E+03  0.83841311546E+03  0.00000000000E+00 0.  1.
        -11    1    3    3    0    0  0.22324957135E+03 -0.49820585838E+03  0.90483851625E+03  0.10567791581E+04  0.00000000000E+00 0. -1.
         22    1    1    2    0    0 -0.47185156372E+03  0.85687638408E+03 -0.82133799638E+03  0.12772928952E+04  0.00000000000E+00 0.  1.
<mgrwt>
<rscale>  0 0.30701217E+04</rscale>
<asrwt>0</asrwt>
<pdfrwt beam="1">  1        2 0.30552839E+00 0.30701217E+04</pdfrwt>
<pdfrwt beam="2">  1       -2 0.18254625E+00 0.30701217E+04</pdfrwt>
<totfact> 0.10083866E+00</totfact>
</mgrwt>
</event>
<event>
 6    1  0.1072514E-005  0.3631456E+04  0.7818608E-02  0.8083324E-01
         -2   -1    0    0    0  501 -0.00000000000E+00  0.00000000000E+00  0.12332685180E+04  0.12332685180E+04  0.00000000000E+00 0.  1.
          2   -1    0    0  501    0  0.00000000000E+00 -0.00000000000E+00 -0.26732773378E+04  0.26732773378E+04  0.00000000000E+00 0. -1.
         23    2    1    2    0    0 -0.14029100928E+04 -0.10520055812E+04 -0.12226002662E+04  0.21395883151E+04  0.90632643454E+02 0.  0.
         13    1    3    3    0    0 -0.88286683056E+03 -0.65082860771E+03 -0.81662623713E+03  0.13674465724E+04  0.00000000000E+00 0.  1.
        -13    1    3    3    0    0 -0.52004326222E+03 -0.40117697354E+03 -0.40597402902E+03  0.77214174277E+03  0.00000000000E+00 0. -1.
         22    1    1    2    0    0  0.14029100928E+04  0.10520055812E+04 -0.21740855367E+03  0.17669575407E+04  0.00000000000E+00 0. -1.
<mgrwt>
<rscale>  0 0.36314563E+04</rscale>
<asrwt>0</asrwt>
<pdfrwt beam="1">  1        2 0.41127343E+00 0.36314563E+04</pdfrwt>
<pdfrwt beam="2">  1       -2 0.18973362E+00 0.36314563E+04</pdfrwt>
<totfact> 0.34844078E-01</totfact>
</mgrwt>
</event>
<event>
 6    1  0.1690554E-005  0.3830330E+04  0.7818608E-02  0.8039677E-01
         -2   -1    0    0    0  501 -0.00000000000E+00  0.00000000000E+00  0.13528195488E+04  0.13528195488E+04  0.00000000000E+00 0.  1.
          2   -1    0    0  501    0  0.00000000000E+00 -0.00000000000E+00 -0.27112691069E+04  0.27112691069E+04  0.00000000000E+00 0. -1.
         23    2    1    2    0    0  0.41343724941E+03  0.11914093390E+04  0.84805241218E+03  0.15226249993E+04  0.93847868069E+02 0.  0.
         13    1    3    3    0    0  0.28624589784E+03  0.87278024922E+03  0.66313618158E+03  0.11328864342E+04  0.00000000000E+00 0.  1.
        -13    1    3    3    0    0  0.12719135157E+03  0.31862908981E+03  0.18491623061E+03  0.38973856511E+03  0.00000000000E+00 0. -1.
         22    1    1    2    0    0 -0.41343724941E+03 -0.11914093390E+04 -0.22065019702E+04  0.25414636564E+04  0.00000000000E+00 0. -1.
<mgrwt>
<rscale>  0 0.38303305E+04</rscale>
<asrwt>0</asrwt>
<pdfrwt beam="1">  1        2 0.41711833E+00 0.38303305E+04</pdfrwt>
<pdfrwt beam="2">  1       -2 0.20812608E+00 0.38303305E+04</pdfrwt>
<totfact> 0.24617676E-01</totfact>
</mgrwt>
</event>
<event>
 6    1  0.1072514E-005  0.3104050E+04  0.7818608E-02  0.8214627E-01
         -2   -1    0    0    0  501 -0.00000000000E+00  0.00000000000E+00  0.10884166452E+04  0.10884166452E+04  0.00000000000E+00 0. -1.
          2   -1    0    0  501    0  0.00000000000E+00 -0.00000000000E+00 -0.22131064196E+04  0.22131064196E+04  0.00000000000E+00 0.  1.
         23    2    1    2    0    0  0.99147368053E+02  0.10377813771E+04 -0.17839017641E+04  0.20680803890E+04  0.88490701504E+02 0.  0.
         13    1    3    3    0    0 -0.13718717970E+01  0.38938522042E+03 -0.62744076210E+03  0.73844745369E+03  0.00000000000E+00 0. -1.
        -13    1    3    3    0    0  0.10051923985E+03  0.64839615665E+03 -0.11564610020E+04  0.13296329353E+04  0.00000000000E+00 0.  1.
         22    1    1    2    0    0 -0.99147368053E+02 -0.10377813771E+04  0.65921198968E+03  0.12334426758E+04  0.00000000000E+00 0. -1.
<mgrwt>
<rscale>  0 0.31040502E+04</rscale>
<asrwt>0</asrwt>
<pdfrwt beam="1">  1        2 0.34047791E+00 0.31040502E+04</pdfrwt>
<pdfrwt beam="2">  1       -2 0.16744872E+00 0.31040502E+04</pdfrwt>
<totfact> 0.95776079E-01</totfact>
</mgrwt>
</event>
<event>
 6    1  0.1072514E-005  0.2744627E+04  0.7818608E-02  0.8320669E-01
          2   -1    0    0  501    0  0.00000000000E+00  0.00000000000E+00  0.17492317315E+04  0.17492317315E+04  0.00000000000E+00 0. -1.
         -2   -1    0    0    0  501 -0.00000000000E+00 -0.00000000000E+00 -0.10766121497E+04  0.10766121497E+04  0.00000000000E+00 0.  1.
         23    2    1    2    0    0  0.13257975038E+04 -0.11697888548E+02 -0.21683841647E+02  0.13292032745E+04  0.91843859006E+02 0.  0.
         13    1    3    3    0    0  0.48041102918E+03 -0.24551358512E+02 -0.47090861018E+02  0.48333743425E+03  0.00000000000E+00 0. -1.
        -13    1    3    3    0    0  0.84538647459E+03  0.12853469965E+02  0.25407019372E+02  0.84586584027E+03  0.00000000000E+00 0.  1.
         22    1    1    2    0    0 -0.13257975038E+04  0.11697888548E+02  0.69430342348E+03  0.14966406066E+04  0.00000000000E+00 0. -1.
<mgrwt>
<rscale>  0 0.27446268E+04</rscale>
<asrwt>0</asrwt>
<pdfrwt beam="1">  1        2 0.26911257E+00 0.27446268E+04</pdfrwt>
<pdfrwt beam="2">  1       -2 0.16563264E+00 0.27446268E+04</pdfrwt>
<totfact> 0.18440833E+00</totfact>
</mgrwt>
</event>
<event>
 6    1  0.1072514E-005  0.3739415E+04  0.7818608E-02  0.8059283E-01
         -1   -1    0    0    0  501 -0.00000000000E+00  0.00000000000E+00  0.11441007716E+04  0.11441007716E+04  0.00000000000E+00 0. -1.
          1   -1    0    0  501    0  0.00000000000E+00 -0.00000000000E+00 -0.30555049307E+04  0.30555049307E+04  0.00000000000E+00 0.  1.
         23    2    1    2    0    0  0.55345647606E+02 -0.64776649948E+03 -0.29235486051E+04  0.29966506083E+04  0.10056760293E+03 0.  0.
         11    1    3    3    0    0  0.45108120598E+02 -0.99312948240E+02 -0.51526559338E+03  0.52668437982E+03  0.00000000000E+00 0.  1.
        -11    1    3    3    0    0  0.10237527008E+02 -0.54845355125E+03 -0.24082830118E+04  0.24699662284E+04  0.00000000000E+00 0. -1.
         22    1    1    2    0    0 -0.55345647606E+02  0.64776649948E+03  0.10121444461E+04  0.12029550940E+04  0.00000000000E+00 0. -1.
<mgrwt>
<rscale>  0 0.37394147E+04</rscale>
<asrwt>0</asrwt>
<pdfrwt beam="1">  1        1 0.47007767E+00 0.37394147E+04</pdfrwt>
<pdfrwt beam="2">  1       -1 0.17601551E+00 0.37394147E+04</pdfrwt>
<totfact> 0.96720897E-02</totfact>
</mgrwt>
</event>
<event>
 6    1  0.1072514E-005  0.3154117E+04  0.7818608E-02  0.8201041E-01
         -1   -1    0    0    0  501 -0.00000000000E+00  0.00000000000E+00  0.18119765427E+04  0.18119765427E+04  0.00000000000E+00 0.  1.
          1   -1    0    0  501    0  0.00000000000E+00 -0.00000000000E+00 -0.13725968091E+04  0.13725968091E+04  0.00000000000E+00 0. -1.
         23    2    1    2    0    0 -0.11509791140E+04 -0.51925031988E+03  0.11716314745E+04  0.17249273579E+04  0.90995947592E+02 0.  0.
         13    1    3    3    0    0 -0.34053682183E+02 -0.25157224298E+02  0.22343611830E+02  0.47872499352E+02  0.00000000000E+00 0. -1.
        -13    1    3    3    0    0 -0.11169254318E+04 -0.49409309559E+03  0.11492878627E+04  0.16770548586E+04  0.00000000000E+00 0.  1.
         22    1    1    2    0    0  0.11509791140E+04  0.51925031988E+03 -0.73225174094E+03  0.14596459939E+04  0.00000000000E+00 0.  1.
<mgrwt>
<rscale>  0 0.31541168E+04</rscale>
<asrwt>0</asrwt>
<pdfrwt beam="1">  1        1 0.21116874E+00 0.31541168E+04</pdfrwt>
<pdfrwt beam="2">  1       -1 0.27876562E+00 0.31541168E+04</pdfrwt>
<totfact> 0.30582021E-01</totfact>
</mgrwt>
</event>
<event>
 6    1  0.1072514E-005  0.1388101E+04  0.7818608E-02  0.8962477E-01
         -2   -1    0    0    0  501 -0.00000000000E+00  0.00000000000E+00  0.38691560730E+03  0.38691560730E+03  0.00000000000E+00 0.  1.
          2   -1    0    0  501    0  0.00000000000E+00 -0.00000000000E+00 -0.12449904207E+04  0.12449904207E+04  0.00000000000E+00 0. -1.
         23    2    1    2    0    0  0.45891714789E+03  0.99892362093E+02 -0.10268440770E+04  0.11328404041E+04  0.91297262390E+02 0.  0.
         13    1    3    3    0    0  0.34655504618E+03  0.11456923530E+03 -0.79489906410E+03  0.87469482211E+03  0.00000000000E+00 0. -1.
        -13    1    3    3    0    0  0.11236210171E+03 -0.14676873212E+02 -0.23194501291E+03  0.25814558203E+03  0.00000000000E+00 0.  1.
         22    1    1    2    0    0 -0.45891714789E+03 -0.99892362093E+02  0.16876926358E+03  0.49906562390E+03  0.00000000000E+00 0.  1.
<mgrwt>
<rscale>  0 0.13881012E+04</rscale>
<asrwt>0</asrwt>
<pdfrwt beam="1">  1        2 0.19153699E+00 0.13881012E+04</pdfrwt>
<pdfrwt beam="2">  1       -2 0.59525478E-01 0.13881012E+04</pdfrwt>
<totfact> 0.45689724E+01</totfact>
</mgrwt>
</event>
<event>
 6    1  0.1072514E-005  0.3922321E+04  0.7818608E-02  0.8020403E-01
         -2   -1    0    0    0  501 -0.00000000000E+00  0.00000000000E+00  0.21441816400E+04  0.21441816400E+04  0.00000000000E+00 0.  1.
          2   -1    0    0  501    0  0.00000000000E+00 -0.00000000000E+00 -0.17937617551E+04  0.17937617551E+04  0.00000000000E+00 0. -1.
         23    2    1    2    0    0 -0.13458288284E+04 -0.12604883900E+04 -0.49211516254E+03  0.19106418580E+04  0.91042626370E+02 0.  0.
         13    1    3    3    0    0 -0.73020057618E+03 -0.63407283393E+03 -0.22963964786E+03  0.99396962129E+03  0.00000000000E+00 0. -1.
        -13    1    3    3    0    0 -0.61562825219E+03 -0.62641555605E+03 -0.26247551468E+03  0.91667223671E+03  0.00000000000E+00 0.  1.
         22    1    1    2    0    0  0.13458288284E+04  0.12604883900E+04  0.84253504744E+03  0.20273015372E+04  0.00000000000E+00 0.  1.
<mgrwt>
<rscale>  0 0.39223213E+04</rscale>
<asrwt>0</asrwt>
<pdfrwt beam="1">  1        2 0.27596335E+00 0.39223213E+04</pdfrwt>
<pdfrwt beam="2">  1       -2 0.32987410E+00 0.39223213E+04</pdfrwt>
<totfact> 0.14356930E-01</totfact>
</mgrwt>
</event>
<event>
 6    1  0.1072514E-005  0.2897550E+04  0.7818608E-02  0.8273607E-01
          2   -1    0    0  501    0  0.00000000000E+00  0.00000000000E+00  0.29476685754E+04  0.29476685754E+04  0.00000000000E+00 0. -1.
         -2   -1    0    0    0  501 -0.00000000000E+00 -0.00000000000E+00 -0.71207099433E+03  0.71207099433E+03  0.00000000000E+00 0.  1.
         23    2    1    2    0    0 -0.84446907366E+03 -0.57532210556E+03 -0.17568979554E+03  0.10408790629E+04  0.91862820872E+02 0.  0.
         13    1    3    3    0    0 -0.21988335451E+03 -0.14482477532E+03 -0.50100535769E+01  0.26334009526E+03  0.00000000000E+00 0.  1.
        -13    1    3    3    0    0 -0.62458571915E+03 -0.43049733024E+03 -0.17067974196E+03  0.77753896766E+03  0.00000000000E+00 0. -1.
         22    1    1    2    0    0  0.84446907366E+03  0.57532210556E+03  0.24112873766E+04  0.26188605068E+04  0.00000000000E+00 0. -1.
<mgrwt>
<rscale>  0 0.28975502E+04</rscale>
<asrwt>0</asrwt>
<pdfrwt beam="1">  1        2 0.45348747E+00 0.28975502E+04</pdfrwt>
<pdfrwt beam="2">  1       -2 0.10954939E+00 0.28975502E+04</pdfrwt>
<totfact> 0.10747702E+00</totfact>
</mgrwt>
</event>
<event>
 6    1  0.1072514E-005  0.2654852E+04  0.7818608E-02  0.8349804E-01
          2   -1    0    0  501    0  0.00000000000E+00  0.00000000000E+00  0.11149795459E+04  0.11149795459E+04  0.00000000000E+00 0. -1.
         -2   -1    0    0    0  501 -0.00000000000E+00 -0.00000000000E+00 -0.15803515890E+04  0.15803515890E+04  0.00000000000E+00 0.  1.
         23    2    1    2    0    0 -0.52199956748E+03  0.12174892203E+04 -0.29018558740E+03  0.13591223771E+04  0.90787724202E+02 0.  0.
         13    1    3    3    0    0 -0.31216394527E+03  0.83576422866E+03 -0.19896258290E+03  0.91407564459E+03  0.00000000000E+00 0.  1.
        -13    1    3    3    0    0 -0.20983562221E+03  0.38172499164E+03 -0.91223004507E+02  0.44504673254E+03  0.00000000000E+00 0. -1.
         22    1    1    2    0    0  0.52199956748E+03 -0.12174892203E+04 -0.17518645571E+03  0.13362087577E+04  0.00000000000E+00 0. -1.
<mgrwt>
<rscale>  0 0.26548519E+04</rscale>
<asrwt>0</asrwt>
<pdfrwt beam="1">  1        2 0.17153532E+00 0.26548519E+04</pdfrwt>
<pdfrwt beam="2">  1       -2 0.24313101E+00 0.26548519E+04</pdfrwt>
<totfact> 0.13304095E+00</totfact>
</mgrwt>
</event>
<event>
 6    1  0.1072514E-005  0.3511759E+04  0.7818608E-02  0.8111009E-01
         -2   -1    0    0    0  501 -0.00000000000E+00  0.00000000000E+00  0.68984825882E+03  0.68984825882E+03  0.00000000000E+00 0.  1.
          2   -1    0    0  501    0  0.00000000000E+00 -0.00000000000E+00 -0.44692630680E+04  0.44692630680E+04  0.00000000000E+00 0. -1.
         23    2    1    2    0    0 -0.12262789370E+04 -0.30033539882E+03 -0.36812635561E+04  0.38927799912E+04  0.89851585429E+02 0.  0.
         11    1    3    3    0    0 -0.58015330769E+03 -0.17157263588E+03 -0.16561557052E+04  0.17631978759E+04  0.00000000000E+00 0. -1.
        -11    1    3    3    0    0 -0.64612562931E+03 -0.12876276294E+03 -0.20251078509E+04  0.21295821153E+04  0.00000000000E+00 0.  1.
         22    1    1    2    0    0  0.12262789370E+04  0.30033539882E+03 -0.98151253104E+02  0.12663313356E+04  0.00000000000E+00 0.  1.
<mgrwt>
<rscale>  0 0.35117593E+04</rscale>
<asrwt>0</asrwt>
<pdfrwt beam="1">  1        2 0.68757895E+00 0.35117593E+04</pdfrwt>
<pdfrwt beam="2">  1       -2 0.10613050E+00 0.35117593E+04</pdfrwt>
<totfact> 0.77176680E-02</totfact>
</mgrwt>
</event>
<event>
 6    1  0.1072514E-005  0.1416685E+04  0.7818608E-02  0.8941829E-01
         -2   -1    0    0    0  501 -0.00000000000E+00  0.00000000000E+00  0.25705844781E+03  0.25705844781E+03  0.00000000000E+00 0.  1.
          2   -1    0    0  501    0  0.00000000000E+00 -0.00000000000E+00 -0.19518866747E+04  0.19518866747E+04  0.00000000000E+00 0. -1.
         23    2    1    2    0    0  0.24896125429E+03 -0.52110250750E+03 -0.14829463628E+04  0.15937837991E+04  0.86529498243E+02 0.  0.
         11    1    3    3    0    0  0.14101566101E+03 -0.32645046065E+03 -0.10176213511E+04  0.10779649967E+04  0.00000000000E+00 0.  1.
        -11    1    3    3    0    0  0.10794559328E+03 -0.19465204686E+03 -0.46532501167E+03  0.51581880243E+03  0.00000000000E+00 0. -1.
         22    1    1    2    0    0 -0.24896125429E+03  0.52110250750E+03 -0.21188186417E+03  0.61516132342E+03  0.00000000000E+00 0.  1.
<mgrwt>
<rscale>  0 0.14166848E+04</rscale>
<asrwt>0</asrwt>
<pdfrwt beam="1">  1        2 0.30029027E+00 0.14166848E+04</pdfrwt>
<pdfrwt beam="2">  1       -2 0.39547453E-01 0.14166848E+04</pdfrwt>
<totfact> 0.41792535E+01</totfact>
</mgrwt>
</event>
<event>
 6    1  0.1072514E-005  0.1638921E+04  0.7818608E-02  0.8796988E-01
          2   -1    0    0  501    0  0.00000000000E+00  0.00000000000E+00  0.72666789698E+03  0.72666789698E+03  0.00000000000E+00 0. -1.
         -2   -1    0    0    0  501 -0.00000000000E+00 -0.00000000000E+00 -0.92410222620E+03  0.92410222620E+03  0.00000000000E+00 0.  1.
         23    2    1    2    0    0 -0.16774147646E+03 -0.28360395812E+03  0.65378486115E+03  0.73800371384E+03  0.92986176390E+02 0.  0.
         13    1    3    3    0    0 -0.48179518662E+02 -0.79217489097E+02  0.28538141473E+03  0.30006537366E+03  0.00000000000E+00 0. -1.
        -13    1    3    3    0    0 -0.11956195779E+03 -0.20438646902E+03  0.36840344641E+03  0.43793834018E+03  0.00000000000E+00 0.  1.
         22    1    1    2    0    0  0.16774147646E+03  0.28360395812E+03 -0.85121919036E+03  0.91276640934E+03  0.00000000000E+00 0.  1.
<mgrwt>
<rscale>  0 0.16389209E+04</rscale>
<asrwt>0</asrwt>
<pdfrwt beam="1">  1        2 0.11179506E+00 0.16389209E+04</pdfrwt>
<pdfrwt beam="2">  1       -2 0.14216957E+00 0.16389209E+04</pdfrwt>
<totfact> 0.12880990E+01</totfact>
</mgrwt>
</event>
<event>
 6    1  0.1072514E-005  0.2813170E+04  0.7818608E-02  0.8299191E-01
          2   -1    0    0  501    0  0.00000000000E+00  0.00000000000E+00  0.17405610853E+04  0.17405610853E+04  0.00000000000E+00 0. -1.
         -2   -1    0    0    0  501 -0.00000000000E+00 -0.00000000000E+00 -0.11366918895E+04  0.11366918895E+04  0.00000000000E+00 0.  1.
         23    2    1    2    0    0  0.10136503305E+04 -0.12978939206E+03 -0.68409598410E+03  0.12331159417E+04  0.90858854515E+02 0.  0.
         13    1    3    3    0    0  0.53031964228E+03 -0.23169657665E+02 -0.36556592659E+03  0.64452633981E+03  0.00000000000E+00 0. -1.
        -13    1    3    3    0    0  0.48333068822E+03 -0.10661973440E+03 -0.31853005751E+03  0.58858960191E+03  0.00000000000E+00 0.  1.
         22    1    1    2    0    0 -0.10136503305E+04  0.12978939206E+03  0.12879651800E+04  0.16441370331E+04  0.00000000000E+00 0. -1.
<mgrwt>
<rscale>  0 0.28131702E+04</rscale>
<asrwt>0</asrwt>
<pdfrwt beam="1">  1        2 0.26777863E+00 0.28131702E+04</pdfrwt>
<pdfrwt beam="2">  1       -2 0.17487567E+00 0.28131702E+04</pdfrwt>
<totfact> 0.15935006E+00</totfact>
</mgrwt>
</event>
<event>
 6    1  0.1072514E-005  0.1630755E+04  0.7818608E-02  0.8801874E-01
         -2   -1    0    0    0  501 -0.00000000000E+00  0.00000000000E+00  0.23987943205E+03  0.23987943205E+03  0.00000000000E+00 0.  1.
          2   -1    0    0  501    0  0.00000000000E+00 -0.00000000000E+00 -0.27715596470E+04  0.27715596470E+04  0.00000000000E+00 0. -1.
         23    2    1    2    0    0 -0.47609212777E+03 -0.31252915493E+03 -0.19920369682E+03  0.61044243298E+03  0.92842147499E+02 0.  0.
         13    1    3    3    0    0 -0.10645106336E+03 -0.48764096380E+02 -0.68685634153E+01  0.11728999595E+03  0.00000000000E+00 0. -1.
        -13    1    3    3    0    0 -0.36964106441E+03 -0.26376505855E+03 -0.19233513340E+03  0.49315243703E+03  0.00000000000E+00 0.  1.
         22    1    1    2    0    0  0.47609212777E+03  0.31252915493E+03 -0.23324765181E+04  0.24009966461E+04  0.00000000000E+00 0. -1.
<mgrwt>
<rscale>  0 0.16307546E+04</rscale>
<asrwt>0</asrwt>
<pdfrwt beam="1">  1        2 0.42639375E+00 0.16307546E+04</pdfrwt>
<pdfrwt beam="2">  1       -2 0.36904531E-01 0.16307546E+04</pdfrwt>
<totfact> 0.15981679E+01</totfact>
</mgrwt>
</event>
<event>
 6    1  0.1083589E-005  0.3715253E+04  0.7818608E-02  0.8064590E-01
          2   -1    0    0  501    0  0.00000000000E+00  0.00000000000E+00  0.20089668673E+04  0.20089668673E+04  0.00000000000E+00 0. -1.
         -2   -1    0    0    0  501 -0.00000000000E+00 -0.00000000000E+00 -0.17176869150E+04  0.17176869150E+04  0.00000000000E+00 0.  1.
         23    2    1    2    0    0  0.17250513333E+02  0.48035261233E+03 -0.16530049409E+04  0.17238357780E+04  0.90267616328E+02 0.  0.
         13    1    3    3    0    0  0.40883478790E+02  0.44118210237E+03 -0.14817287504E+04  0.15465552677E+04  0.00000000000E+00 0.  1.
        -13    1    3    3    0    0 -0.23632965457E+02  0.39170509961E+02 -0.17127619051E+03  0.17728051033E+03  0.00000000000E+00 0. -1.
         22    1    1    2    0    0 -0.17250513333E+02 -0.48035261233E+03  0.19442848932E+04  0.20028180043E+04  0.00000000000E+00 0. -1.
<mgrwt>
<rscale>  0 0.37152529E+04</rscale>
<asrwt>0</asrwt>
<pdfrwt beam="1">  1        2 0.30907183E+00 0.37152529E+04</pdfrwt>
<pdfrwt beam="2">  1       -2 0.26425953E+00 0.37152529E+04</pdfrwt>
<totfact> 0.28022406E-01</totfact>
</mgrwt>
</event>
<event>
 6    1  0.1072514E-005  0.1513841E+04  0.7818608E-02  0.8875301E-01
          1   -1    0    0  501    0  0.00000000000E+00  0.00000000000E+00  0.10713849887E+04  0.10713849887E+04  0.00000000000E+00 0. -1.
         -1   -1    0    0    0  501 -0.00000000000E+00 -0.00000000000E+00 -0.53475482930E+03  0.53475482930E+03  0.00000000000E+00 0.  1.
         23    2    1    2    0    0 -0.19183141334E+02 -0.57603365219E+03  0.78523754181E+03  0.97845487159E+03  0.92699392195E+02 0.  0.
         13    1    3    3    0    0  0.11064808717E+02 -0.25634394035E+03  0.41954412737E+03  0.49178442489E+03  0.00000000000E+00 0.  1.
        -13    1    3    3    0    0 -0.30247950050E+02 -0.31968971184E+03  0.36569341444E+03  0.48667044671E+03  0.00000000000E+00 0. -1.
         22    1    1    2    0    0  0.19183141334E+02  0.57603365219E+03 -0.24860738240E+03  0.62768494641E+03  0.00000000000E+00 0.  1.
<mgrwt>
<rscale>  0 0.15138405E+04</rscale>
<asrwt>0</asrwt>
<pdfrwt beam="1">  1        1 0.16482846E+00 0.15138405E+04</pdfrwt>
<pdfrwt beam="2">  1       -1 0.82269973E-01 0.15138405E+04</pdfrwt>
<totfact> 0.18923890E+01</totfact>
</mgrwt>
</event>
<event>
 6    1  0.1072514E-005  0.2573462E+04  0.7818608E-02  0.8377272E-01
          1   -1    0    0  501    0  0.00000000000E+00  0.00000000000E+00  0.84959423160E+03  0.84959423160E+03  0.00000000000E+00 0. -1.
         -1   -1    0    0    0  501 -0.00000000000E+00 -0.00000000000E+00 -0.19487852344E+04  0.19487852344E+04  0.00000000000E+00 0.  1.
         23    2    1    2    0    0  0.14851850392E+03 -0.89359629528E+03  0.44091076375E+03  0.10116266749E+04  0.91728637423E+02 0.  0.
         13    1    3    3    0    0  0.48046810436E+02 -0.51243009980E+03  0.21964991230E+03  0.55958840869E+03  0.00000000000E+00 0. -1.
        -13    1    3    3    0    0  0.10047169348E+03 -0.38116619549E+03  0.22126085145E+03  0.45203826626E+03  0.00000000000E+00 0.  1.
         22    1    1    2    0    0 -0.14851850392E+03  0.89359629528E+03 -0.15401017665E+04  0.17867527910E+04  0.00000000000E+00 0.  1.
<mgrwt>
<rscale>  0 0.25734620E+04</rscale>
<asrwt>0</asrwt>
<pdfrwt beam="1">  1        1 0.13070681E+00 0.25734620E+04</pdfrwt>
<pdfrwt beam="2">  1       -1 0.29981311E+00 0.25734620E+04</pdfrwt>
<totfact> 0.58600016E-01</totfact>
</mgrwt>
</event>
<event>
 6    1  0.1072514E-005  0.1525595E+04  0.7818608E-02  0.8867609E-01
         -1   -1    0    0    0  501 -0.00000000000E+00  0.00000000000E+00  0.77879798554E+03  0.77879798554E+03  0.00000000000E+00 0.  1.
          1   -1    0    0  501    0  0.00000000000E+00 -0.00000000000E+00 -0.74712554189E+03  0.74712554189E+03  0.00000000000E+00 0. -1.
         23    2    1    2    0    0  0.38021527691E+03  0.41621915300E+02  0.67401714658E+03  0.77832553518E+03  0.72079707339E+02 0.  0.
         13    1    3    3    0    0  0.10878363051E+02  0.26079010913E+01  0.57562093481E+02  0.58639018892E+02  0.00000000000E+00 0. -1.
        -13    1    3    3    0    0  0.36933691386E+03  0.39014014209E+02  0.61645505310E+03  0.71968651629E+03  0.00000000000E+00 0.  1.
         22    1    1    2    0    0 -0.38021527691E+03 -0.41621915300E+02 -0.64234470293E+03  0.74759799224E+03  0.00000000000E+00 0. -1.
<mgrwt>
<rscale>  0 0.15255948E+04</rscale>
<asrwt>0</asrwt>
<pdfrwt beam="1">  1        1 0.11494239E+00 0.15255948E+04</pdfrwt>
<pdfrwt beam="2">  1       -1 0.11981507E+00 0.15255948E+04</pdfrwt>
<totfact> 0.14785824E+01</totfact>
</mgrwt>
</event>
<event>
 6    1  0.1072514E-005  0.1922105E+04  0.7818608E-02  0.8643931E-01
         -1   -1    0    0    0  501 -0.00000000000E+00  0.00000000000E+00  0.89132909521E+03  0.89132909521E+03  0.00000000000E+00 0. -1.
          1   -1    0    0  501    0  0.00000000000E+00 -0.00000000000E+00 -0.10362304901E+04  0.10362304901E+04  0.00000000000E+00 0.  1.
         23    2    1    2    0    0  0.24354192553E+03  0.23511101150E+03 -0.97063008653E+03  0.10351371913E+04  0.12164038252E+03 0.  0.
         11    1    3    3    0    0  0.19317836554E+03  0.22065278093E+03 -0.69127528779E+03  0.75091081638E+03  0.00000000000E+00 0.  1.
        -11    1    3    3    0    0  0.50363559988E+02  0.14458230566E+02 -0.27935479874E+03  0.28422637489E+03  0.00000000000E+00 0. -1.
         22    1    1    2    0    0 -0.24354192553E+03 -0.23511101150E+03  0.82572869163E+03  0.89242239405E+03  0.00000000000E+00 0. -1.
<mgrwt>
<rscale>  0 0.19221055E+04</rscale>
<asrwt>0</asrwt>
<pdfrwt beam="1">  1        1 0.15942008E+00 0.19221055E+04</pdfrwt>
<pdfrwt beam="2">  1       -1 0.13712755E+00 0.19221055E+04</pdfrwt>
<totfact> 0.58599731E+00</totfact>
</mgrwt>
</event>
<event>
 6    1  0.1072514E-005  0.1499447E+04  0.7818608E-02  0.8884820E-01
         -1   -1    0    0    0  501 -0.00000000000E+00  0.00000000000E+00  0.34221836980E+03  0.34221836980E+03  0.00000000000E+00 0.  1.
          1   -1    0    0  501    0  0.00000000000E+00 -0.00000000000E+00 -0.16424766099E+04  0.16424766099E+04  0.00000000000E+00 0. -1.
         23    2    1    2    0    0  0.37691679632E+03  0.68040027388E+02 -0.15013087415E+04  0.15521247302E+04  0.92019151768E+02 0.  0.
         13    1    3    3    0    0  0.73759354475E+02  0.39917962119E+02 -0.44408088464E+03  0.45193109892E+03  0.00000000000E+00 0. -1.
        -13    1    3    3    0    0  0.30315744185E+03  0.28122065269E+02 -0.10572278568E+04  0.11001936313E+04  0.00000000000E+00 0.  1.
         22    1    1    2    0    0 -0.37691679632E+03 -0.68040027388E+02  0.20105050133E+03  0.43257024951E+03  0.00000000000E+00 0.  1.
<mgrwt>
<rscale>  0 0.14994475E+04</rscale>
<asrwt>0</asrwt>
<pdfrwt beam="1">  1        1 0.25268871E+00 0.14994475E+04</pdfrwt>
<pdfrwt beam="2">  1       -1 0.52648980E-01 0.14994475E+04</pdfrwt>
<totfact> 0.18352726E+01</totfact>
</mgrwt>
</event>
<event>
 6    1  0.1072514E-005  0.2854298E+04  0.7818608E-02  0.8286607E-01
         -2   -1    0    0    0  501 -0.00000000000E+00  0.00000000000E+00  0.69825774829E+03  0.69825774829E+03  0.00000000000E+00 0.  1.
          2   -1    0    0  501    0  0.00000000000E+00 -0.00000000000E+00 -0.29169082678E+04  0.29169082678E+04  0.00000000000E+00 0. -1.
         23    2    1    2    0    0 -0.78790874763E+03 -0.11882307389E+04 -0.11239365748E+04  0.18176424129E+04  0.88870881022E+02 0.  0.
         11    1    3    3    0    0 -0.38181859585E+03 -0.49986808403E+03 -0.47771948886E+03  0.78985406982E+03  0.00000000000E+00 0. -1.
        -11    1    3    3    0    0 -0.40609015178E+03 -0.68836265483E+03 -0.64621708594E+03  0.10277883430E+04  0.00000000000E+00 0.  1.
         22    1    1    2    0    0  0.78790874763E+03  0.11882307389E+04 -0.10947139447E+04  0.17975236032E+04  0.00000000000E+00 0. -1.
<mgrwt>
<rscale>  0 0.28542977E+04</rscale>
<asrwt>0</asrwt>
<pdfrwt beam="1">  1        2 0.44875511E+00 0.28542977E+04</pdfrwt>
<pdfrwt beam="2">  1       -2 0.10742427E+00 0.28542977E+04</pdfrwt>
<totfact> 0.11816773E+00</totfact>
</mgrwt>
</event>
<event>
 6    1  0.1072514E-005  0.2775691E+04  0.7818608E-02  0.8310855E-01
         -2   -1    0    0    0  501 -0.00000000000E+00  0.00000000000E+00  0.60512139144E+03  0.60512139144E+03  0.00000000000E+00 0.  1.
          2   -1    0    0  501    0  0.00000000000E+00 -0.00000000000E+00 -0.31830226077E+04  0.31830226077E+04  0.00000000000E+00 0. -1.
         23    2    1    2    0    0 -0.68322019081E+03  0.41458272250E+03  0.25571657862E+03  0.84398733375E+03  0.90856964703E+02 0.  0.
         11    1    3    3    0    0 -0.30205675367E+03  0.13271745024E+03  0.11679834948E+03  0.34999151201E+03  0.00000000000E+00 0.  1.
        -11    1    3    3    0    0 -0.38116343713E+03  0.28186527226E+03  0.13891822914E+03  0.49399582174E+03  0.00000000000E+00 0. -1.
         22    1    1    2    0    0  0.68322019081E+03 -0.41458272250E+03 -0.28336177949E+04  0.29441566654E+04  0.00000000000E+00 0. -1.
<mgrwt>
<rscale>  0 0.27756910E+04</rscale>
<asrwt>0</asrwt>
<pdfrwt beam="1">  1        2 0.48969578E+00 0.27756910E+04</pdfrwt>
<pdfrwt beam="2">  1       -2 0.93095599E-01 0.27756910E+04</pdfrwt>
<totfact> 0.11328844E+00</totfact>
</mgrwt>
</event>
<event>
 6    1  0.1072514E-005  0.5256229E+03  0.7818608E-02  0.1007299E+00
         -3   -1    0    0    0  501 -0.00000000000E+00  0.00000000000E+00  0.88183833310E+03  0.88183833310E+03  0.00000000000E+00 0.  1.
          3   -1    0    0  501    0  0.00000000000E+00 -0.00000000000E+00 -0.78324865595E+02  0.78324865595E+02  0.00000000000E+00 0. -1.
         23    2    1    2    0    0  0.91305638428E+02 -0.12030077980E+03  0.38436904182E+02  0.18032273746E+03  0.90718778726E+02 0.  0.
         11    1    3    3    0    0  0.21697523228E+02 -0.63704811673E+02  0.57604236738E+02  0.88585177286E+02  0.00000000000E+00 0. -1.
        -11    1    3    3    0    0  0.69608115200E+02 -0.56595968126E+02 -0.19167332555E+02  0.91737560176E+02  0.00000000000E+00 0.  1.
         22    1    1    2    0    0 -0.91305638428E+02  0.12030077980E+03  0.76507656332E+03  0.77984046123E+03  0.00000000000E+00 0.  1.
<mgrwt>
<rscale>  0 0.52562294E+03</rscale>
<asrwt>0</asrwt>
<pdfrwt beam="1">  1        3 0.12049980E-01 0.52562294E+03</pdfrwt>
<pdfrwt beam="2">  1       -3 0.13566743E+00 0.52562294E+03</pdfrwt>
<totfact> 0.61329424E+01</totfact>
</mgrwt>
</event>
<event>
 6    1  0.1072514E-005  0.1891358E+04  0.7818608E-02  0.8659170E-01
          1   -1    0    0  501    0  0.00000000000E+00  0.00000000000E+00  0.17450991452E+04  0.17450991452E+04  0.00000000000E+00 0. -1.
         -1   -1    0    0    0  501 -0.00000000000E+00 -0.00000000000E+00 -0.51246883558E+03  0.51246883558E+03  0.00000000000E+00 0.  1.
         23    2    1    2    0    0 -0.17832638483E+03 -0.92214049589E+03  0.72333510621E+03  0.11891462486E+04  0.93336653816E+02 0.  0.
         11    1    3    3    0    0 -0.61245138718E+02 -0.40589739995E+03  0.26202943974E+03  0.48699393589E+03  0.00000000000E+00 0.  1.
        -11    1    3    3    0    0 -0.11708124612E+03 -0.51624309594E+03  0.46130566647E+03  0.70215231269E+03  0.00000000000E+00 0. -1.
         22    1    1    2    0    0  0.17832638483E+03  0.92214049589E+03  0.50929520345E+03  0.10684217322E+04  0.00000000000E+00 0.  1.
<mgrwt>
<rscale>  0 0.18913582E+04</rscale>
<asrwt>0</asrwt>
<pdfrwt beam="1">  1        1 0.26847679E+00 0.18913582E+04</pdfrwt>
<pdfrwt beam="2">  1       -1 0.78841360E-01 0.18913582E+04</pdfrwt>
<totfact> 0.66888912E+00</totfact>
</mgrwt>
</event>
<event>
 6    1  0.1072514E-005  0.8464401E+03  0.7818608E-02  0.9495127E-01
         -1   -1    0    0    0  501 -0.00000000000E+00  0.00000000000E+00  0.13358144718E+04  0.13358144718E+04  0.00000000000E+00 0.  1.
          1   -1    0    0  501    0  0.00000000000E+00 -0.00000000000E+00 -0.13408689009E+03  0.13408689009E+03  0.00000000000E+00 0. -1.
         23    2    1    2    0    0  0.17089408710E+03  0.32787375116E+03  0.94478869350E+03  0.10196530104E+04  0.10178703544E+03 0.  0.
         11    1    3    3    0    0  0.11794091589E+03  0.25747580767E+03  0.59526805529E+03  0.65920247939E+03  0.00000000000E+00 0. -1.
        -11    1    3    3    0    0  0.52953171214E+02  0.70397943491E+02  0.34952063821E+03  0.36045053104E+03  0.00000000000E+00 0.  1.
         22    1    1    2    0    0 -0.17089408710E+03 -0.32787375116E+03  0.25693888819E+03  0.45024835144E+03  0.00000000000E+00 0. -1.
<mgrwt>
<rscale>  0 0.84644009E+03</rscale>
<asrwt>0</asrwt>
<pdfrwt beam="1">  1        1 0.20628753E-01 0.84644009E+03</pdfrwt>
<pdfrwt beam="2">  1       -1 0.20550991E+00 0.84644009E+03</pdfrwt>
<totfact> 0.35298338E+01</totfact>
</mgrwt>
</event>
<event>
 6    1  0.1150033E-005  0.3023548E+04  0.7818608E-02  0.8237038E-01
          1   -1    0    0  501    0  0.00000000000E+00  0.00000000000E+00  0.17199516242E+04  0.17199516242E+04  0.00000000000E+00 0. -1.
         -1   -1    0    0    0  501 -0.00000000000E+00 -0.00000000000E+00 -0.13287933561E+04  0.13287933561E+04  0.00000000000E+00 0.  1.
         23    2    1    2    0    0 -0.47998622597E+03  0.28430074725E+03 -0.12194823180E+04  0.13442283949E+04  0.92731664735E+02 0.  0.
         11    1    3    3    0    0 -0.24914636579E+03  0.19587939098E+03 -0.63786872842E+03  0.71226340780E+03  0.00000000000E+00 0. -1.
        -11    1    3    3    0    0 -0.23083986018E+03  0.88421356275E+02 -0.58161358961E+03  0.63196498709E+03  0.00000000000E+00 0.  1.
         22    1    1    2    0    0  0.47998622597E+03 -0.28430074725E+03  0.16106405861E+04  0.17045165854E+04  0.00000000000E+00 0. -1.
<mgrwt>
<rscale>  0 0.30235478E+04</rscale>
<asrwt>0</asrwt>
<pdfrwt beam="1">  1        1 0.26460794E+00 0.30235478E+04</pdfrwt>
<pdfrwt beam="2">  1       -1 0.20442975E+00 0.30235478E+04</pdfrwt>
<totfact> 0.55046946E-01</totfact>
</mgrwt>
</event>
<event>
 6    1  0.1072514E-005  0.3375600E+04  0.7818608E-02  0.8143921E-01
          2   -1    0    0  501    0  0.00000000000E+00  0.00000000000E+00  0.21592397316E+04  0.21592397316E+04  0.00000000000E+00 0. -1.
         -2   -1    0    0    0  501 -0.00000000000E+00 -0.00000000000E+00 -0.13192923896E+04  0.13192923896E+04  0.00000000000E+00 0.  1.
         23    2    1    2    0    0 -0.10343666923E+04 -0.12782449630E+04  0.34528228676E+02  0.16475420645E+04  0.96840157664E+02 0.  0.
         11    1    3    3    0    0 -0.50454316115E+03 -0.57784807840E+03 -0.22754239704E+02  0.76745681221E+03  0.00000000000E+00 0. -1.
        -11    1    3    3    0    0 -0.52982353113E+03 -0.70039688464E+03  0.57282468380E+02  0.88008525231E+03  0.00000000000E+00 0.  1.
         22    1    1    2    0    0  0.10343666923E+04  0.12782449630E+04  0.80541911328E+03  0.18309900567E+04  0.00000000000E+00 0. -1.
<mgrwt>
<rscale>  0 0.33755998E+04</rscale>
<asrwt>0</asrwt>
<pdfrwt beam="1">  1        2 0.33219073E+00 0.33755998E+04</pdfrwt>
<pdfrwt beam="2">  1       -2 0.20296806E+00 0.33755998E+04</pdfrwt>
<totfact> 0.57468610E-01</totfact>
</mgrwt>
</event>
<event>
 6    1  0.1072514E-005  0.2824936E+04  0.7818608E-02  0.8295568E-01
         -1   -1    0    0    0  501 -0.00000000000E+00  0.00000000000E+00  0.16838352195E+04  0.16838352195E+04  0.00000000000E+00 0.  1.
          1   -1    0    0  501    0  0.00000000000E+00 -0.00000000000E+00 -0.11848345368E+04  0.11848345368E+04  0.00000000000E+00 0. -1.
         23    2    1    2    0    0 -0.82283743421E+03 -0.73745520797E+03 -0.64148585968E+03  0.12807115766E+04  0.88410448113E+02 0.  0.
         13    1    3    3    0    0 -0.46585637266E+03 -0.44914731684E+03 -0.33275278929E+03  0.72765368889E+03  0.00000000000E+00 0. -1.
        -13    1    3    3    0    0 -0.35698106155E+03 -0.28830789112E+03 -0.30873307039E+03  0.55305788770E+03  0.00000000000E+00 0.  1.
         22    1    1    2    0    0  0.82283743421E+03  0.73745520797E+03  0.11404865424E+04  0.15879581796E+04  0.00000000000E+00 0.  1.
<mgrwt>
<rscale>  0 0.28249362E+04</rscale>
<asrwt>0</asrwt>
<pdfrwt beam="1">  1        1 0.18228224E+00 0.28249362E+04</pdfrwt>
<pdfrwt beam="2">  1       -1 0.25905157E+00 0.28249362E+04</pdfrwt>
<totfact> 0.57636045E-01</totfact>
</mgrwt>
</event>
<event>
 6    1  0.1072514E-005  0.2134640E+04  0.7818608E-02  0.8546136E-01
         -2   -1    0    0    0  501 -0.00000000000E+00  0.00000000000E+00  0.96531273257E+03  0.96531273257E+03  0.00000000000E+00 0. -1.
          2   -1    0    0  501    0  0.00000000000E+00 -0.00000000000E+00 -0.11801067330E+04  0.11801067330E+04  0.00000000000E+00 0.  1.
         23    2    1    2    0    0 -0.10576547577E+04 -0.10286933077E+03 -0.18645289080E+03  0.10823959925E+04  0.87182098625E+02 0.  0.
         13    1    3    3    0    0 -0.30421405611E+03 -0.41139328913E+02 -0.15688400946E+02  0.30738373776E+03  0.00000000000E+00 0. -1.
        -13    1    3    3    0    0 -0.75344070163E+03 -0.61730001861E+02 -0.17076448986E+03  0.77501225474E+03  0.00000000000E+00 0.  1.
         22    1    1    2    0    0  0.10576547577E+04  0.10286933077E+03 -0.28341109617E+02  0.10630234731E+04  0.00000000000E+00 0.  1.
<mgrwt>
<rscale>  0 0.21346401E+04</rscale>
<asrwt>0</asrwt>
<pdfrwt beam="1">  1        2 0.18155488E+00 0.21346401E+04</pdfrwt>
<pdfrwt beam="2">  1       -2 0.14850965E+00 0.21346401E+04</pdfrwt>
<totfact> 0.55045550E+00</totfact>
</mgrwt>
</event>
<event>
 6    1  0.1072514E-005  0.1707498E+04  0.7818608E-02  0.8757100E-01
         -2   -1    0    0    0  501 -0.00000000000E+00  0.00000000000E+00  0.19898010728E+03  0.19898010728E+03  0.00000000000E+00 0. -1.
          2   -1    0    0  501    0  0.00000000000E+00 -0.00000000000E+00 -0.36631152156E+04  0.36631152156E+04  0.00000000000E+00 0.  1.
         23    2    1    2    0    0 -0.69889883873E+03  0.12239172714E+03 -0.28010547993E+04  0.28909543352E+04  0.90937661587E+02 0.  0.
         13    1    3    3    0    0 -0.35262288382E+03  0.65041801709E+02 -0.15985239338E+04  0.16382466545E+04  0.00000000000E+00 0.  1.
        -13    1    3    3    0    0 -0.34627595491E+03  0.57349925435E+02 -0.12025308654E+04  0.12527076807E+04  0.00000000000E+00 0. -1.
         22    1    1    2    0    0  0.69889883873E+03 -0.12239172714E+03 -0.66308030909E+03  0.97114098768E+03  0.00000000000E+00 0.  1.
<mgrwt>
<rscale>  0 0.17074977E+04</rscale>
<asrwt>0</asrwt>
<pdfrwt beam="1">  1        2 0.56355615E+00 0.17074977E+04</pdfrwt>
<pdfrwt beam="2">  1       -2 0.30612326E-01 0.17074977E+04</pdfrwt>
<totfact> 0.59042657E+00</totfact>
</mgrwt>
</event>
<event>
 6    1  0.1072514E-005  0.7187315E+03  0.7818608E-02  0.9685724E-01
         -1   -1    0    0    0  501 -0.00000000000E+00  0.00000000000E+00  0.15869378019E+03  0.15869378019E+03  0.00000000000E+00 0.  1.
          1   -1    0    0  501    0  0.00000000000E+00 -0.00000000000E+00 -0.81379199771E+03  0.81379199771E+03  0.00000000000E+00 0. -1.
         23    2    1    2    0    0 -0.57974350861E+02 -0.14063129179E+03  0.99258836230E+02  0.20294516810E+03  0.90533082890E+02 0.  0.
         13    1    3    3    0    0  0.23249466250E+02 -0.22934146445E+02  0.28725793021E+02  0.43493493063E+02  0.00000000000E+00 0.  1.
        -13    1    3    3    0    0 -0.81223817111E+02 -0.11769714534E+03  0.70533043209E+02  0.15945167504E+03  0.00000000000E+00 0. -1.
         22    1    1    2    0    0  0.57974350861E+02  0.14063129179E+03 -0.75435705375E+03  0.76954060980E+03  0.00000000000E+00 0. -1.
<mgrwt>
<rscale>  0 0.71873146E+03</rscale>
<asrwt>0</asrwt>
<pdfrwt beam="1">  1        1 0.12519877E+00 0.71873146E+03</pdfrwt>
<pdfrwt beam="2">  1       -1 0.24414428E-01 0.71873146E+03</pdfrwt>
<totfact> 0.31721137E+02</totfact>
</mgrwt>
</event>
<event>
 6    1  0.1072514E-005  0.3433255E+04  0.7818608E-02  0.8129792E-01
         -2   -1    0    0    0  501 -0.00000000000E+00  0.00000000000E+00  0.25489290697E+04  0.25489290697E+04  0.00000000000E+00 0.  1.
          2   -1    0    0  501    0  0.00000000000E+00 -0.00000000000E+00 -0.11560974208E+04  0.11560974208E+04  0.00000000000E+00 0. -1.
         23    2    1    2    0    0 -0.39077521205E+03  0.13413705446E+04 -0.37726608669E+03  0.14499818795E+04  0.90208348908E+02 0.  0.
         13    1    3    3    0    0 -0.30394216252E+03  0.10257952148E+04 -0.32775253475E+03  0.11189541478E+04  0.00000000000E+00 0. -1.
        -13    1    3    3    0    0 -0.86833049530E+02  0.31557532989E+03 -0.49513551937E+02  0.33102773169E+03  0.00000000000E+00 0.  1.
         22    1    1    2    0    0  0.39077521205E+03 -0.13413705446E+04  0.17700977356E+04  0.22550446111E+04  0.00000000000E+00 0.  1.
<mgrwt>
<rscale>  0 0.34332552E+04</rscale>
<asrwt>0</asrwt>
<pdfrwt beam="1">  1        2 0.17786114E+00 0.34332552E+04</pdfrwt>
<pdfrwt beam="2">  1       -2 0.39214293E+00 0.34332552E+04</pdfrwt>
<totfact> 0.13880243E-01</totfact>
</mgrwt>
</event>
<event>
 6    1  0.1072514E-005  0.1727494E+04  0.7818608E-02  0.8745837E-01
         -1   -1    0    0    0  501 -0.00000000000E+00  0.00000000000E+00  0.50757000980E+03  0.50757000980E+03  0.00000000000E+00 0.  1.
          1   -1    0    0  501    0  0.00000000000E+00 -0.00000000000E+00 -0.14698648227E+04  0.14698648227E+04  0.00000000000E+00 0. -1.
         23    2    1    2    0    0  0.56864687186E+03 -0.45546498638E+03  0.43638816168E+02  0.73537602359E+03  0.89810528896E+02 0.  0.
         11    1    3    3    0    0  0.24441350232E+03 -0.15953869431E+03 -0.16290274597E+02  0.29232845935E+03  0.00000000000E+00 0. -1.
        -11    1    3    3    0    0  0.32423336955E+03 -0.29592629207E+03  0.59929090765E+02  0.44304756425E+03  0.00000000000E+00 0.  1.
         22    1    1    2    0    0 -0.56864687186E+03  0.45546498638E+03 -0.10059336291E+04  0.12420588089E+04  0.00000000000E+00 0. -1.
<mgrwt>
<rscale>  0 0.17274945E+04</rscale>
<asrwt>0</asrwt>
<pdfrwt beam="1">  1        1 0.22613305E+00 0.17274945E+04</pdfrwt>
<pdfrwt beam="2">  1       -1 0.78087694E-01 0.17274945E+04</pdfrwt>
<totfact> 0.10703197E+01</totfact>
</mgrwt>
</event>
<event>
 6    1  0.1072514E-005  0.2684385E+04  0.7818608E-02  0.8340089E-01
         -1   -1    0    0    0  501 -0.00000000000E+00  0.00000000000E+00  0.79671425906E+03  0.79671425906E+03  0.00000000000E+00 0. -1.
          1   -1    0    0  501    0  0.00000000000E+00 -0.00000000000E+00 -0.22611376288E+04  0.22611376288E+04  0.00000000000E+00 0.  1.
         23    2    1    2    0    0 -0.96387955888E+03 -0.92826887982E+03 -0.64142363029E+03  0.14868409113E+04  0.92329328147E+02 0.  0.
         13    1    3    3    0    0 -0.31595342692E+03 -0.29532880492E+03 -0.25515889946E+03  0.50214712483E+03  0.00000000000E+00 0.  1.
        -13    1    3    3    0    0 -0.64792613196E+03 -0.63294007489E+03 -0.38626473082E+03  0.98469378649E+03  0.00000000000E+00 0. -1.
         22    1    1    2    0    0  0.96387955888E+03  0.92826887982E+03 -0.82299973947E+03  0.15710109765E+04  0.00000000000E+00 0. -1.
<mgrwt>
<rscale>  0 0.26843849E+04</rscale>
<asrwt>0</asrwt>
<pdfrwt beam="1">  1        1 0.34786732E+00 0.26843849E+04</pdfrwt>
<pdfrwt beam="2">  1       -1 0.12257143E+00 0.26843849E+04</pdfrwt>
<totfact> 0.10162320E+00</totfact>
</mgrwt>
</event>
<event>
 6    1  0.1072514E-005  0.3942266E+04  0.7818608E-02  0.8016296E-01
         -1   -1    0    0    0  501 -0.00000000000E+00  0.00000000000E+00  0.22732176939E+04  0.22732176939E+04  0.00000000000E+00 0.  1.
          1   -1    0    0  501    0  0.00000000000E+00 -0.00000000000E+00 -0.17091920064E+04  0.17091920064E+04  0.00000000000E+00 0. -1.
         23    2    1    2    0    0 -0.21733896161E+03  0.98819767675E+03 -0.14254506020E+04  0.17504180384E+04  0.91011085214E+02 0.  0.
         13    1    3    3    0    0 -0.11721715873E+03  0.33186020758E+03 -0.49869810253E+03  0.61038582646E+03  0.00000000000E+00 0.  1.
        -13    1    3    3    0    0 -0.10012180288E+03  0.65633746917E+03 -0.92675249949E+03  0.11400322119E+04  0.00000000000E+00 0. -1.
         22    1    1    2    0    0  0.21733896161E+03 -0.98819767675E+03  0.19894762895E+04  0.22319916619E+04  0.00000000000E+00 0.  1.
<mgrwt>
<rscale>  0 0.39422661E+04</rscale>
<asrwt>0</asrwt>
<pdfrwt beam="1">  1        1 0.26295262E+00 0.39422661E+04</pdfrwt>
<pdfrwt beam="2">  1       -1 0.34972580E+00 0.39422661E+04</pdfrwt>
<totfact> 0.57614367E-02</totfact>
</mgrwt>
</event>
<event>
 6    1  0.1072514E-005  0.1505458E+04  0.7818608E-02  0.8880832E-01
          2   -1    0    0  501    0  0.00000000000E+00  0.00000000000E+00  0.31357328007E+03  0.31357328007E+03  0.00000000000E+00 0. -1.
         -2   -1    0    0    0  501 -0.00000000000E+00 -0.00000000000E+00 -0.18069166362E+04  0.18069166362E+04  0.00000000000E+00 0.  1.
         23    2    1    2    0    0 -0.16424770634E+02 -0.41561148062E+03  0.12959679650E+03  0.44509819643E+03  0.91183325754E+02 0.  0.
         13    1    3    3    0    0  0.21096008759E+02 -0.17395156395E+03  0.17569228592E+02  0.17610470175E+03  0.00000000000E+00 0. -1.
        -13    1    3    3    0    0 -0.37520779393E+02 -0.24165991667E+03  0.11202756791E+03  0.26899349468E+03  0.00000000000E+00 0.  1.
         22    1    1    2    0    0  0.16424770634E+02  0.41561148062E+03 -0.16229401527E+04  0.16753917199E+04  0.00000000000E+00 0.  1.
<mgrwt>
<rscale>  0 0.15054578E+04</rscale>
<asrwt>0</asrwt>
<pdfrwt beam="1">  1        2 0.48242044E-01 0.15054578E+04</pdfrwt>
<pdfrwt beam="2">  1       -2 0.27798717E+00 0.15054578E+04</pdfrwt>
<totfact> 0.43816867E+00</totfact>
</mgrwt>
</event>
<event>
 6    1  0.1517943E-005  0.2221242E+04  0.7818608E-02  0.8509638E-01
         -1   -1    0    0    0  501 -0.00000000000E+00  0.00000000000E+00  0.11880558569E+04  0.11880558569E+04  0.00000000000E+00 0.  1.
          1   -1    0    0  501    0  0.00000000000E+00 -0.00000000000E+00 -0.10382331468E+04  0.10382331468E+04  0.00000000000E+00 0. -1.
         23    2    1    2    0    0  0.27323817869E+03  0.63959452958E+03  0.94043345599E+03  0.11732906104E+04  0.91953829796E+02 0.  0.
         11    1    3    3    0    0  0.17223023803E+03  0.43362825905E+03  0.69745010735E+03  0.83912655433E+03  0.00000000000E+00 0.  1.
        -11    1    3    3    0    0  0.10100794066E+03  0.20596627054E+03  0.24298334864E+03  0.33416405610E+03  0.00000000000E+00 0. -1.
         22    1    1    2    0    0 -0.27323817869E+03 -0.63959452958E+03 -0.79061074597E+03  0.10529983933E+04  0.00000000000E+00 0. -1.
<mgrwt>
<rscale>  0 0.22212420E+04</rscale>
<asrwt>0</asrwt>
<pdfrwt beam="1">  1        1 0.15972818E+00 0.22212420E+04</pdfrwt>
<pdfrwt beam="2">  1       -1 0.18277782E+00 0.22212420E+04</pdfrwt>
<totfact> 0.25563364E+00</totfact>
</mgrwt>
</event>
<event>
 6    1  0.1072514E-005  0.2247323E+04  0.7818608E-02  0.8498985E-01
         -2   -1    0    0    0  501 -0.00000000000E+00  0.00000000000E+00  0.37923589724E+03  0.37923589724E+03  0.00000000000E+00 0. -1.
          2   -1    0    0  501    0  0.00000000000E+00 -0.00000000000E+00 -0.33293661622E+04  0.33293661622E+04  0.00000000000E+00 0.  1.
         23    2    1    2    0    0 -0.19478778734E+03 -0.99514669781E+03 -0.22694714615E+04  0.24873094495E+04  0.89153524587E+02 0.  0.
         11    1    3    3    0    0 -0.55504980911E+02 -0.46934130928E+03 -0.99050816311E+03  0.10974827965E+04  0.00000000000E+00 0.  1.
        -11    1    3    3    0    0 -0.13928280643E+03 -0.52580538853E+03 -0.12789632984E+04  0.13898266530E+04  0.00000000000E+00 0. -1.
         22    1    1    2    0    0  0.19478778734E+03  0.99514669781E+03 -0.68065880345E+03  0.12212926099E+04  0.00000000000E+00 0. -1.
<mgrwt>
<rscale>  0 0.22473230E+04</rscale>
<asrwt>0</asrwt>
<pdfrwt beam="1">  1        2 0.51221015E+00 0.22473230E+04</pdfrwt>
<pdfrwt beam="2">  1       -2 0.58343987E-01 0.22473230E+04</pdfrwt>
<totfact> 0.26691349E+00</totfact>
</mgrwt>
</event>
<event>
 6    1  0.1072514E-005  0.2290055E+04  0.7818608E-02  0.8481852E-01
          2   -1    0    0  501    0  0.00000000000E+00  0.00000000000E+00  0.31765789859E+04  0.31765789859E+04  0.00000000000E+00 0.  1.
         -2   -1    0    0    0  501 -0.00000000000E+00 -0.00000000000E+00 -0.41273601174E+03  0.41273601174E+03  0.00000000000E+00 0. -1.
         23    2    1    2    0    0  0.72222127294E+02 -0.89982297263E+03  0.28506757753E+03  0.95128071341E+03  0.93669921631E+02 0.  0.
         11    1    3    3    0    0  0.23954704878E+02 -0.64305748967E+03  0.23622370890E+03  0.68549135921E+03  0.00000000000E+00 0. -1.
        -11    1    3    3    0    0  0.48267422416E+02 -0.25676548296E+03  0.48843868622E+02  0.26578935421E+03  0.00000000000E+00 0.  1.
         22    1    1    2    0    0 -0.72222127294E+02  0.89982297263E+03  0.24787753966E+04  0.26380342842E+04  0.00000000000E+00 0.  1.
<mgrwt>
<rscale>  0 0.22900555E+04</rscale>
<asrwt>0</asrwt>
<pdfrwt beam="1">  1        2 0.48870444E+00 0.22900555E+04</pdfrwt>
<pdfrwt beam="2">  1       -2 0.63497850E-01 0.22900555E+04</pdfrwt>
<totfact> 0.28014809E+00</totfact>
</mgrwt>
</event>
<event>
 6    1  0.1072514E-005  0.1076560E+04  0.7818608E-02  0.9228344E-01
         -1   -1    0    0    0  501 -0.00000000000E+00  0.00000000000E+00  0.14772563208E+03  0.14772563208E+03  0.00000000000E+00 0.  1.
          1   -1    0    0  501    0  0.00000000000E+00 -0.00000000000E+00 -0.19613751237E+04  0.19613751237E+04  0.00000000000E+00 0. -1.
         23    2    1    2    0    0  0.48824511924E+03  0.21454902827E+03 -0.84306619071E+03  0.10016502937E+04  0.90156125247E+02 0.  0.
         11    1    3    3    0    0  0.41489514660E+03  0.17038225076E+03 -0.64242163385E+03  0.78350089322E+03  0.00000000000E+00 0. -1.
        -11    1    3    3    0    0  0.73349972642E+02  0.44166777515E+02 -0.20064455686E+03  0.21814940046E+03  0.00000000000E+00 0.  1.
         22    1    1    2    0    0 -0.48824511924E+03 -0.21454902827E+03 -0.97058330088E+03  0.11074504621E+04  0.00000000000E+00 0.  1.
<mgrwt>
<rscale>  0 0.10765600E+04</rscale>
<asrwt>0</asrwt>
<pdfrwt beam="1">  1        1 0.30175002E+00 0.10765600E+04</pdfrwt>
<pdfrwt beam="2">  1       -1 0.22727020E-01 0.10765600E+04</pdfrwt>
<totfact> 0.52227576E+01</totfact>
</mgrwt>
</event>
<event>
 6    1  0.1072514E-005  0.1213846E+04  0.7818608E-02  0.9100823E-01
          4   -1    0    0  501    0  0.00000000000E+00  0.00000000000E+00  0.17688007595E+04  0.17688007595E+04  0.00000000000E+00 0. -1.
         -4   -1    0    0    0  501 -0.00000000000E+00 -0.00000000000E+00 -0.20825141143E+03  0.20825141143E+03  0.00000000000E+00 0.  1.
         23    2    1    2    0    0  0.37685380490E+03 -0.22138681439E+03  0.10701318677E+03  0.45922534152E+03  0.91679770373E+02 0.  0.
         13    1    3    3    0    0  0.24960537566E+03 -0.18891183957E+03  0.96063172596E+02  0.32744260538E+03  0.00000000000E+00 0.  1.
        -13    1    3    3    0    0  0.12724842924E+03 -0.32474974817E+02  0.10950014176E+02  0.13178273614E+03  0.00000000000E+00 0. -1.
         22    1    1    2    0    0 -0.37685380490E+03  0.22138681439E+03  0.14535361613E+04  0.15178268294E+04  0.00000000000E+00 0. -1.
<mgrwt>
<rscale>  0 0.12138455E+04</rscale>
<asrwt>0</asrwt>
<pdfrwt beam="1">  1        4 0.27212318E+00 0.12138455E+04</pdfrwt>
<pdfrwt beam="2">  1       -4 0.32038680E-01 0.12138455E+04</pdfrwt>
<totfact> 0.86526476E-01</totfact>
</mgrwt>
</event>
<event>
 6    1  0.1072514E-005  0.4138784E+04  0.7818608E-02  0.7977120E-01
          2   -1    0    0  501    0  0.00000000000E+00  0.00000000000E+00  0.13952609416E+04  0.13952609416E+04  0.00000000000E+00 0. -1.
         -2   -1    0    0    0  501 -0.00000000000E+00 -0.00000000000E+00 -0.30692348327E+04  0.30692348327E+04  0.00000000000E+00 0.  1.
         23    2    1    2    0    0  0.38382452891E+03 -0.12877861369E+04 -0.25335699799E+04  0.28693093152E+04  0.90800330229E+02 0.  0.
         11    1    3    3    0    0  0.19101412014E+03 -0.48602125267E+03 -0.98126895489E+03  0.11115717763E+04  0.00000000000E+00 0. -1.
        -11    1    3    3    0    0  0.19281040877E+03 -0.80176488427E+03 -0.15523010250E+04  0.17577375389E+04  0.00000000000E+00 0.  1.
         22    1    1    2    0    0 -0.38382452891E+03  0.12877861369E+04  0.85959608881E+03  0.15951864591E+04  0.00000000000E+00 0. -1.
<mgrwt>
<rscale>  0 0.41387841E+04</rscale>
<asrwt>0</asrwt>
<pdfrwt beam="1">  1        2 0.21465553E+00 0.41387841E+04</pdfrwt>
<pdfrwt beam="2">  1       -2 0.47218997E+00 0.41387841E+04</pdfrwt>
<totfact> 0.28212052E-02</totfact>
</mgrwt>
</event>
<event>
 6    1  0.1072514E-005  0.1815788E+04  0.7818608E-02  0.8697949E-01
         -2   -1    0    0    0  501 -0.00000000000E+00  0.00000000000E+00  0.38392185237E+03  0.38392185237E+03  0.00000000000E+00 0.  1.
          2   -1    0    0  501    0  0.00000000000E+00 -0.00000000000E+00 -0.21469765795E+04  0.21469765795E+04  0.00000000000E+00 0. -1.
         23    2    1    2    0    0 -0.58067320617E+03 -0.69396443485E+03 -0.85652824001E+03  0.12500556308E+04  0.10114566201E+03 0.  0.
         13    1    3    3    0    0 -0.26898231092E+03 -0.24809298065E+03 -0.32319551483E+03  0.48821813919E+03  0.00000000000E+00 0.  1.
        -13    1    3    3    0    0 -0.31169089525E+03 -0.44587145421E+03 -0.53333272518E+03  0.76183749160E+03  0.00000000000E+00 0. -1.
         22    1    1    2    0    0  0.58067320617E+03  0.69396443485E+03 -0.90652648713E+03  0.12808428011E+04  0.00000000000E+00 0. -1.
<mgrwt>
<rscale>  0 0.18157877E+04</rscale>
<asrwt>0</asrwt>
<pdfrwt beam="1">  1        2 0.33030410E+00 0.18157877E+04</pdfrwt>
<pdfrwt beam="2">  1       -2 0.59064899E-01 0.18157877E+04</pdfrwt>
<totfact> 0.13963787E+01</totfact>
</mgrwt>
</event>
<event>
 6    1  0.1072514E-005  0.3842763E+04  0.7818608E-02  0.8037040E-01
          1   -1    0    0  501    0  0.00000000000E+00  0.00000000000E+00  0.52980607372E+04  0.52980607372E+04  0.00000000000E+00 0. -1.
         -1   -1    0    0    0  501 -0.00000000000E+00 -0.00000000000E+00 -0.69680338751E+03  0.69680338751E+03  0.00000000000E+00 0.  1.
         23    2    1    2    0    0  0.47369685115E+03 -0.13056847392E+04  0.23349439464E+03  0.14115733226E+04  0.93905633534E+02 0.  0.
         13    1    3    3    0    0  0.27991227975E+03 -0.88547163254E+03  0.13436096881E+03  0.93833030769E+03  0.00000000000E+00 0.  1.
        -13    1    3    3    0    0  0.19378457140E+03 -0.42021310662E+03  0.99133425832E+02  0.47324301495E+03  0.00000000000E+00 0. -1.
         22    1    1    2    0    0 -0.47369685115E+03  0.13056847392E+04  0.43677629550E+04  0.45832908020E+04  0.00000000000E+00 0. -1.
<mgrwt>
<rscale>  0 0.38427629E+04</rscale>
<asrwt>0</asrwt>
<pdfrwt beam="1">  1        1 0.81508624E+00 0.38427629E+04</pdfrwt>
<pdfrwt beam="2">  1       -1 0.10720052E+00 0.38427629E+04</pdfrwt>
<totfact> 0.20957985E-03</totfact>
</mgrwt>
</event>
<event>
 6    1  0.1072514E-005  0.1740336E+04  0.7818608E-02  0.8738688E-01
         -2   -1    0    0    0  501 -0.00000000000E+00  0.00000000000E+00  0.29322057842E+03  0.29322057842E+03  0.00000000000E+00 0.  1.
          2   -1    0    0  501    0  0.00000000000E+00 -0.00000000000E+00 -0.25823311459E+04  0.25823311459E+04  0.00000000000E+00 0. -1.
         23    2    1    2    0    0 -0.69476358752E+03 -0.28030455178E+03 -0.18712370078E+04  0.20177140962E+04  0.91515847275E+02 0.  0.
         13    1    3    3    0    0 -0.52923176002E+03 -0.24573528184E+03 -0.15113695546E+04  0.16200956808E+04  0.00000000000E+00 0.  1.
        -13    1    3    3    0    0 -0.16553182750E+03 -0.34569269939E+02 -0.35986745326E+03  0.39761841539E+03  0.00000000000E+00 0. -1.
         22    1    1    2    0    0  0.69476358752E+03  0.28030455178E+03 -0.41787355960E+03  0.85783762806E+03  0.00000000000E+00 0.  1.
<mgrwt>
<rscale>  0 0.17403363E+04</rscale>
<asrwt>0</asrwt>
<pdfrwt beam="1">  1        2 0.39728173E+00 0.17403363E+04</pdfrwt>
<pdfrwt beam="2">  1       -2 0.45110857E-01 0.17403363E+04</pdfrwt>
<totfact> 0.13802423E+01</totfact>
</mgrwt>
</event>
<event>
 6    1  0.1072514E-005  0.3317731E+04  0.7818608E-02  0.8158398E-01
          2   -1    0    0  501    0  0.00000000000E+00  0.00000000000E+00  0.12043339215E+04  0.12043339215E+04  0.00000000000E+00 0. -1.
         -2   -1    0    0    0  501 -0.00000000000E+00 -0.00000000000E+00 -0.22849433273E+04  0.22849433273E+04  0.00000000000E+00 0.  1.
         23    2    1    2    0    0  0.32397546408E+03  0.14248286859E+04  0.28255749231E+03  0.14909477269E+04  0.89384015971E+02 0.  0.
         11    1    3    3    0    0  0.22572096851E+03  0.81361096557E+03  0.14334014659E+03  0.85642230036E+03  0.00000000000E+00 0.  1.
        -11    1    3    3    0    0  0.98254495565E+02  0.61121772037E+03  0.13921734572E+03  0.63452542655E+03  0.00000000000E+00 0. -1.
         22    1    1    2    0    0 -0.32397546408E+03 -0.14248286859E+04 -0.13631668981E+04  0.19983295218E+04  0.00000000000E+00 0.  1.
<mgrwt>
<rscale>  0 0.33177310E+04</rscale>
<asrwt>0</asrwt>
<pdfrwt beam="1">  1        2 0.18528214E+00 0.33177310E+04</pdfrwt>
<pdfrwt beam="2">  1       -2 0.35152974E+00 0.33177310E+04</pdfrwt>
<totfact> 0.23882953E-01</totfact>
</mgrwt>
</event>
<event>
 6    1  0.1072514E-005  0.1605344E+04  0.7818608E-02  0.8817272E-01
         -1   -1    0    0    0  501 -0.00000000000E+00  0.00000000000E+00  0.15219180795E+04  0.15219180795E+04  0.00000000000E+00 0.  1.
          1   -1    0    0  501    0  0.00000000000E+00 -0.00000000000E+00 -0.42333571383E+03  0.42333571383E+03  0.00000000000E+00 0. -1.
         23    2    1    2    0    0 -0.43210168925E+03  0.54521061306E+03  0.10280142162E+04  0.12460068083E+04  0.10841243013E+03 0.  0.
         13    1    3    3    0    0 -0.18703381108E+03  0.20717104530E+03  0.50257790432E+03  0.57487915113E+03  0.00000000000E+00 0.  1.
        -13    1    3    3    0    0 -0.24506787818E+03  0.33803956776E+03  0.52543631191E+03  0.67112765712E+03  0.00000000000E+00 0. -1.
         22    1    1    2    0    0  0.43210168925E+03 -0.54521061306E+03  0.70568149469E+02  0.69924698510E+03  0.00000000000E+00 0. -1.
<mgrwt>
<rscale>  0 0.16053439E+04</rscale>
<asrwt>0</asrwt>
<pdfrwt beam="1">  1        1 0.65128572E-01 0.16053439E+04</pdfrwt>
<pdfrwt beam="2">  1       -1 0.23414124E+00 0.16053439E+04</pdfrwt>
<totfact> 0.47266037E+00</totfact>
</mgrwt>
</event>
<event>
 6    1  0.1072514E-005  0.3246441E+04  0.7818608E-02  0.8176659E-01
         -2   -1    0    0    0  501 -0.00000000000E+00  0.00000000000E+00  0.31444751600E+04  0.31444751600E+04  0.00000000000E+00 0.  1.
          2   -1    0    0  501    0  0.00000000000E+00 -0.00000000000E+00 -0.83792829567E+03  0.83792829567E+03  0.00000000000E+00 0. -1.
         23    2    1    2    0    0 -0.11271811557E+04  0.66321758656E+03  0.23309565511E+04  0.26743550017E+04  0.91767681466E+02 0.  0.
         11    1    3    3    0    0 -0.45436516237E+03  0.26892453956E+03  0.85032325201E+03  0.10009084582E+04  0.00000000000E+00 0. -1.
        -11    1    3    3    0    0 -0.67281599337E+03  0.39429304699E+03  0.14806332991E+04  0.16734465436E+04  0.00000000000E+00 0.  1.
         22    1    1    2    0    0  0.11271811557E+04 -0.66321758656E+03 -0.24409686764E+02  0.13080484539E+04  0.00000000000E+00 0. -1.
<mgrwt>
<rscale>  0 0.32464410E+04</rscale>
<asrwt>0</asrwt>
<pdfrwt beam="1">  1        2 0.12891205E+00 0.32464410E+04</pdfrwt>
<pdfrwt beam="2">  1       -2 0.48376540E+00 0.32464410E+04</pdfrwt>
<totfact> 0.56590929E-02</totfact>
</mgrwt>
</event>
<event>
 6    1  0.1072514E-005  0.1470416E+04  0.7818608E-02  0.8904368E-01
         -1   -1    0    0    0  501 -0.00000000000E+00  0.00000000000E+00  0.62449615666E+03  0.62449615666E+03  0.00000000000E+00 0.  1.
          1   -1    0    0  501    0  0.00000000000E+00 -0.00000000000E+00 -0.86554673205E+03  0.86554673205E+03  0.00000000000E+00 0. -1.
         23    2    1    2    0    0 -0.25346560066E+03  0.37847568581E+02 -0.81624875559E+03  0.86033645261E+03  0.90771865199E+02 0.  0.
         11    1    3    3    0    0 -0.15079012346E+03 -0.16091497338E+02 -0.38572821035E+03  0.41446694667E+03  0.00000000000E+00 0. -1.
        -11    1    3    3    0    0 -0.10267547720E+03  0.53939065919E+02 -0.43052054525E+03  0.44586950594E+03  0.00000000000E+00 0.  1.
         22    1    1    2    0    0  0.25346560066E+03 -0.37847568581E+02  0.57519818020E+03  0.62970643610E+03  0.00000000000E+00 0.  1.
<mgrwt>
<rscale>  0 0.14704157E+04</rscale>
<asrwt>0</asrwt>
<pdfrwt beam="1">  1        1 0.13316104E+00 0.14704157E+04</pdfrwt>
<pdfrwt beam="2">  1       -1 0.96076332E-01 0.14704157E+04</pdfrwt>
<totfact> 0.19678439E+01</totfact>
</mgrwt>
</event>
<event>
 6    1  0.1072514E-005  0.2517173E+04  0.7818608E-02  0.8396893E-01
         -2   -1    0    0    0  501 -0.00000000000E+00  0.00000000000E+00  0.90236950287E+03  0.90236950287E+03  0.00000000000E+00 0.  1.
          2   -1    0    0  501    0  0.00000000000E+00 -0.00000000000E+00 -0.17554233913E+04  0.17554233913E+04  0.00000000000E+00 0. -1.
         23    2    1    2    0    0  0.24097968774E+03  0.90011677399E+03  0.46392612973E+03  0.10444988153E+04  0.86422824313E+02 0.  0.
         11    1    3    3    0    0  0.16225293960E+03  0.43952525735E+03  0.22832399000E+03  0.52119124385E+03  0.00000000000E+00 0.  1.
        -11    1    3    3    0    0  0.78726748135E+02  0.46059151664E+03  0.23560213973E+03  0.52330757143E+03  0.00000000000E+00 0. -1.
         22    1    1    2    0    0 -0.24097968774E+03 -0.90011677399E+03 -0.13169800181E+04  0.16132940788E+04  0.00000000000E+00 0. -1.
<mgrwt>
<rscale>  0 0.25171734E+04</rscale>
<asrwt>0</asrwt>
<pdfrwt beam="1">  1        2 0.27006514E+00 0.25171734E+04</pdfrwt>
<pdfrwt beam="2">  1       -2 0.13882608E+00 0.25171734E+04</pdfrwt>
<totfact> 0.29871008E+00</totfact>
</mgrwt>
</event>
<event>
 6    1  0.1072514E-005  0.2428124E+04  0.7818608E-02  0.8429049E-01
         -2   -1    0    0    0  501 -0.00000000000E+00  0.00000000000E+00  0.51616826678E+03  0.51616826678E+03  0.00000000000E+00 0.  1.
          2   -1    0    0  501    0  0.00000000000E+00 -0.00000000000E+00 -0.28555543528E+04  0.28555543528E+04  0.00000000000E+00 0. -1.
         23    2    1    2    0    0 -0.41264971448E+03 -0.10120302043E+04 -0.19000577817E+04  0.21938031485E+04  0.89820706305E+02 0.  0.
         11    1    3    3    0    0 -0.32202243977E+03 -0.69681191090E+03 -0.13734336390E+04  0.15733929107E+04  0.00000000000E+00 0.  1.
        -11    1    3    3    0    0 -0.90627274706E+02 -0.31521829344E+03 -0.52662414275E+03  0.62041023780E+03  0.00000000000E+00 0. -1.
         22    1    1    2    0    0  0.41264971448E+03  0.10120302043E+04 -0.43932830433E+03  0.11779194711E+04  0.00000000000E+00 0.  1.
<mgrwt>
<rscale>  0 0.24281240E+04</rscale>
<asrwt>0</asrwt>
<pdfrwt beam="1">  1        2 0.43931606E+00 0.24281240E+04</pdfrwt>
<pdfrwt beam="2">  1       -2 0.79410502E-01 0.24281240E+04</pdfrwt>
<totfact> 0.26979118E+00</totfact>
</mgrwt>
</event>
<event>
 6    1  0.1072514E-005  0.4767090E+04  0.7818608E-02  0.7865476E-01
          1   -1    0    0  501    0  0.00000000000E+00  0.00000000000E+00  0.30412466374E+04  0.30412466374E+04  0.00000000000E+00 0.  1.
         -1   -1    0    0    0  501 -0.00000000000E+00 -0.00000000000E+00 -0.18680781188E+04  0.18680781188E+04  0.00000000000E+00 0. -1.
         23    2    1    2    0    0  0.12086040847E+04  0.80999046278E+02 -0.15260256485E+04  0.19507889984E+04  0.97666561416E+02 0.  0.
         11    1    3    3    0    0  0.73075241074E+03  0.42948139337E+01 -0.94563578682E+03  0.11950918678E+04  0.00000000000E+00 0. -1.
        -11    1    3    3    0    0  0.47785167400E+03  0.76704232345E+02 -0.58038986166E+03  0.75569713055E+03  0.00000000000E+00 0.  1.
         22    1    1    2    0    0 -0.12086040847E+04 -0.80999046278E+02  0.26991941670E+04  0.29585357578E+04  0.00000000000E+00 0.  1.
<mgrwt>
<rscale>  0 0.47670898E+04</rscale>
<asrwt>0</asrwt>
<pdfrwt beam="1">  1        1 0.46788410E+00 0.47670898E+04</pdfrwt>
<pdfrwt beam="2">  1       -1 0.28739663E+00 0.47670898E+04</pdfrwt>
<totfact> 0.16340588E-02</totfact>
</mgrwt>
</event>
<event>
 6    1  0.1072514E-005  0.5410375E+03  0.7818608E-02  0.1003590E+00
         -4   -1    0    0    0  501 -0.00000000000E+00  0.00000000000E+00  0.12494604078E+03  0.12494604078E+03  0.00000000000E+00 0.  1.
          4   -1    0    0  501    0  0.00000000000E+00 -0.00000000000E+00 -0.58569587886E+03  0.58569587886E+03  0.00000000000E+00 0. -1.
         23    2    1    2    0    0  0.68490342458E+02 -0.95274815994E+02 -0.54580348644E+03  0.56572007632E+03  0.91485197549E+02 0.  0.
         13    1    3    3    0    0  0.69407296677E+02 -0.31529634345E+02 -0.19892830982E+03  0.21303512181E+03  0.00000000000E+00 0.  1.
        -13    1    3    3    0    0 -0.91695421854E+00 -0.63745181649E+02 -0.34687517661E+03  0.35268495451E+03  0.00000000000E+00 0. -1.
         22    1    1    2    0    0 -0.68490342458E+02  0.95274815994E+02  0.85053648361E+02  0.14492184332E+03  0.00000000000E+00 0.  1.
<mgrwt>
<rscale>  0 0.54103745E+03</rscale>
<asrwt>0</asrwt>
<pdfrwt beam="1">  1        4 0.90107057E-01 0.54103745E+03</pdfrwt>
<pdfrwt beam="2">  1       -4 0.19222468E-01 0.54103745E+03</pdfrwt>
<totfact> 0.51444289E+01</totfact>
</mgrwt>
</event>
<event>
 6    1  0.1072514E-005  0.2972841E+04  0.7818608E-02  0.8251529E-01
         -1   -1    0    0    0  501 -0.00000000000E+00  0.00000000000E+00  0.10216675839E+04  0.10216675839E+04  0.00000000000E+00 0.  1.
          1   -1    0    0  501    0  0.00000000000E+00 -0.00000000000E+00 -0.21625873097E+04  0.21625873097E+04  0.00000000000E+00 0. -1.
         23    2    1    2    0    0  0.82550862269E+03 -0.12199129626E+04 -0.77302636172E+03  0.16660330225E+04  0.91892075137E+02 0.  0.
         13    1    3    3    0    0  0.20098159441E+03 -0.29267584890E+03 -0.23141367863E+03  0.42379835356E+03  0.00000000000E+00 0.  1.
        -13    1    3    3    0    0  0.62452702828E+03 -0.92723711375E+03 -0.54161268309E+03  0.12422346689E+04  0.00000000000E+00 0. -1.
         22    1    1    2    0    0 -0.82550862269E+03  0.12199129626E+04 -0.36789336406E+03  0.15182218711E+04  0.00000000000E+00 0.  1.
<mgrwt>
<rscale>  0 0.29728406E+04</rscale>
<asrwt>0</asrwt>
<pdfrwt beam="1">  1        1 0.33270574E+00 0.29728406E+04</pdfrwt>
<pdfrwt beam="2">  1       -1 0.15717963E+00 0.29728406E+04</pdfrwt>
<totfact> 0.60507563E-01</totfact>
</mgrwt>
</event>
<event>
 6    1  0.1072514E-005  0.4427109E+04  0.7818608E-02  0.7923524E-01
          2   -1    0    0  501    0  0.00000000000E+00  0.00000000000E+00  0.30865376921E+04  0.30865376921E+04  0.00000000000E+00 0. -1.
         -2   -1    0    0    0  501 -0.00000000000E+00 -0.00000000000E+00 -0.15874821510E+04  0.15874821510E+04  0.00000000000E+00 0.  1.
         23    2    1    2    0    0 -0.18517551161E+04  0.49023542800E+03  0.19190814698E+04  0.27129615660E+04  0.89213148820E+02 0.  0.
         11    1    3    3    0    0 -0.38200026571E+03  0.13398610295E+03  0.38035653821E+03  0.55547058873E+03  0.00000000000E+00 0.  1.
        -11    1    3    3    0    0 -0.14697548504E+04  0.35624932506E+03  0.15387249316E+04  0.21574909773E+04  0.00000000000E+00 0. -1.
         22    1    1    2    0    0  0.18517551161E+04 -0.49023542800E+03 -0.42002592871E+03  0.19610582770E+04  0.00000000000E+00 0.  1.
<mgrwt>
<rscale>  0 0.44271090E+04</rscale>
<asrwt>0</asrwt>
<pdfrwt beam="1">  1        2 0.47485195E+00 0.44271090E+04</pdfrwt>
<pdfrwt beam="2">  1       -2 0.24422802E+00 0.44271090E+04</pdfrwt>
<totfact> 0.81539433E-02</totfact>
</mgrwt>
</event>
<event>
 6    1  0.1072514E-005  0.3768735E+04  0.7818608E-02  0.8052898E-01
         -1   -1    0    0    0  501 -0.00000000000E+00  0.00000000000E+00  0.13985767359E+04  0.13985767359E+04  0.00000000000E+00 0.  1.
          1   -1    0    0  501    0  0.00000000000E+00 -0.00000000000E+00 -0.25388962868E+04  0.25388962868E+04  0.00000000000E+00 0. -1.
         23    2    1    2    0    0 -0.13375054289E+04 -0.38828605135E+03 -0.18949214263E+04  0.23534557184E+04  0.91322379176E+02 0.  0.
         11    1    3    3    0    0 -0.56229442608E+03 -0.11975980095E+03 -0.80891385320E+03  0.99240065167E+03  0.00000000000E+00 0. -1.
        -11    1    3    3    0    0 -0.77521100280E+03 -0.26852625040E+03 -0.10860075730E+04  0.13610550668E+04  0.00000000000E+00 0.  1.
         22    1    1    2    0    0  0.13375054289E+04  0.38828605135E+03  0.75460187533E+03  0.15840173043E+04  0.00000000000E+00 0.  1.
<mgrwt>
<rscale>  0 0.37687352E+04</rscale>
<asrwt>0</asrwt>
<pdfrwt beam="1">  1        1 0.39059943E+00 0.37687352E+04</pdfrwt>
<pdfrwt beam="2">  1       -1 0.21516565E+00 0.37687352E+04</pdfrwt>
<totfact> 0.12043471E-01</totfact>
</mgrwt>
</event>
<event>
 6    1  0.1072514E-005  0.2819902E+04  0.7818608E-02  0.8297116E-01
         -3   -1    0    0    0  501 -0.00000000000E+00  0.00000000000E+00  0.16466036083E+04  0.16466036083E+04  0.00000000000E+00 0.  1.
          3   -1    0    0  501    0  0.00000000000E+00 -0.00000000000E+00 -0.12073101752E+04  0.12073101752E+04  0.00000000000E+00 0. -1.
         23    2    1    2    0    0 -0.73885376213E+03  0.61092166597E+02  0.14318955879E+04  0.16150045163E+04  0.90980648834E+02 0.  0.
         11    1    3    3    0    0 -0.44366299636E+03  0.34280453471E+02  0.95355854640E+03  0.10522765346E+04  0.00000000000E+00 0. -1.
        -11    1    3    3    0    0 -0.29519076576E+03  0.26811713126E+02  0.47833704145E+03  0.56272798169E+03  0.00000000000E+00 0.  1.
         22    1    1    2    0    0  0.73885376213E+03 -0.61092166597E+02 -0.99260215475E+03  0.12389092672E+04  0.00000000000E+00 0. -1.
<mgrwt>
<rscale>  0 0.28199016E+04</rscale>
<asrwt>0</asrwt>
<pdfrwt beam="1">  1        3 0.18574003E+00 0.28199016E+04</pdfrwt>
<pdfrwt beam="2">  1       -3 0.25332363E+00 0.28199016E+04</pdfrwt>
<totfact> 0.28716381E-02</totfact>
</mgrwt>
</event>
<event>
 6    1  0.1072514E-005  0.3624054E+04  0.7818608E-02  0.8085004E-01
          1   -1    0    0  501    0  0.00000000000E+00  0.00000000000E+00  0.23596515305E+04  0.23596515305E+04  0.00000000000E+00 0. -1.
         -1   -1    0    0    0  501 -0.00000000000E+00 -0.00000000000E+00 -0.13914941150E+04  0.13914941150E+04  0.00000000000E+00 0.  1.
         23    2    1    2    0    0 -0.14289210436E+04 -0.85137669983E+03  0.12254984332E+04  0.20680288839E+04  0.90771257036E+02 0.  0.
         13    1    3    3    0    0 -0.12376368302E+04 -0.73063640005E+03  0.10955753061E+04  0.18071689805E+04  0.00000000000E+00 0. -1.
        -13    1    3    3    0    0 -0.19128421336E+03 -0.12074029977E+03  0.12992312708E+03  0.26085990344E+03  0.00000000000E+00 0.  1.
         22    1    1    2    0    0  0.14289210436E+04  0.85137669983E+03 -0.25734101758E+03  0.16831167616E+04  0.00000000000E+00 0. -1.
<mgrwt>
<rscale>  0 0.36240537E+04</rscale>
<asrwt>0</asrwt>
<pdfrwt beam="1">  1        1 0.36302331E+00 0.36240537E+04</pdfrwt>
<pdfrwt beam="2">  1       -1 0.21407602E+00 0.36240537E+04</pdfrwt>
<totfact> 0.16496874E-01</totfact>
</mgrwt>
</event>
<event>
 6    1  0.1072514E-005  0.1573966E+04  0.7818608E-02  0.8836703E-01
          2   -1    0    0  501    0  0.00000000000E+00  0.00000000000E+00  0.18436095161E+04  0.18436095161E+04  0.00000000000E+00 0. -1.
         -2   -1    0    0    0  501 -0.00000000000E+00 -0.00000000000E+00 -0.33593991075E+03  0.33593991075E+03  0.00000000000E+00 0.  1.
         23    2    1    2    0    0  0.75427804015E+02 -0.21985356851E+03  0.17936514070E+04  0.18110246162E+04  0.92735351722E+02 0.  0.
         11    1    3    3    0    0  0.55310584851E+02 -0.43591813333E+02  0.63069611232E+03  0.63461570504E+03  0.00000000000E+00 0. -1.
        -11    1    3    3    0    0  0.20117219164E+02 -0.17626175518E+03  0.11629552946E+04  0.11764089111E+04  0.00000000000E+00 0.  1.
         22    1    1    2    0    0 -0.75427804015E+02  0.21985356851E+03 -0.28598180164E+03  0.36852481066E+03  0.00000000000E+00 0.  1.
<mgrwt>
<rscale>  0 0.15739657E+04</rscale>
<asrwt>0</asrwt>
<pdfrwt beam="1">  1        2 0.28363223E+00 0.15739657E+04</pdfrwt>
<pdfrwt beam="2">  1       -2 0.51683064E-01 0.15739657E+04</pdfrwt>
<totfact> 0.27726493E+01</totfact>
</mgrwt>
</event>
<event>
 6    1  0.1072514E-005  0.4811758E+04  0.7818608E-02  0.7858220E-01
          1   -1    0    0  501    0  0.00000000000E+00  0.00000000000E+00  0.21987270828E+04  0.21987270828E+04  0.00000000000E+00 0. -1.
         -1   -1    0    0    0  501 -0.00000000000E+00 -0.00000000000E+00 -0.26325476405E+04  0.26325476405E+04  0.00000000000E+00 0.  1.
         23    2    1    2    0    0  0.18089521491E+04 -0.15324342454E+04 -0.62287868776E+03  0.24529548182E+04  0.91361296093E+02 0.  0.
         13    1    3    3    0    0  0.14744659652E+04 -0.12901100237E+04 -0.49906315810E+03  0.20217561157E+04  0.00000000000E+00 0.  1.
        -13    1    3    3    0    0  0.33448618395E+03 -0.24232422173E+03 -0.12381552966E+03  0.43119870254E+03  0.00000000000E+00 0. -1.
         22    1    1    2    0    0 -0.18089521491E+04  0.15324342454E+04  0.18905813010E+03  0.23783199051E+04  0.00000000000E+00 0.  1.
<mgrwt>
<rscale>  0 0.48117580E+04</rscale>
<asrwt>0</asrwt>
<pdfrwt beam="1">  1        1 0.33826571E+00 0.48117580E+04</pdfrwt>
<pdfrwt beam="2">  1       -1 0.40500733E+00 0.48117580E+04</pdfrwt>
<totfact> 0.10577877E-02</totfact>
</mgrwt>
</event>
<event>
 6    1  0.1072514E-005  0.1449008E+04  0.7818608E-02  0.8919089E-01
          2   -1    0    0  501    0  0.00000000000E+00  0.00000000000E+00  0.17739246669E+04  0.17739246669E+04  0.00000000000E+00 0. -1.
         -2   -1    0    0    0  501 -0.00000000000E+00 -0.00000000000E+00 -0.29590089857E+03  0.29590089857E+03  0.00000000000E+00 0.  1.
         23    2    1    2    0    0 -0.37837417053E+03 -0.59574237744E+03  0.52999915094E+03  0.88795134696E+03  0.97378135949E+02 0.  0.
         11    1    3    3    0    0 -0.17526845894E+03 -0.27403389881E+03  0.18418292336E+03  0.37381407097E+03  0.00000000000E+00 0.  1.
        -11    1    3    3    0    0 -0.20310571160E+03 -0.32170847863E+03  0.34581622758E+03  0.51413727599E+03  0.00000000000E+00 0. -1.
         22    1    1    2    0    0  0.37837417053E+03  0.59574237744E+03  0.94802461738E+03  0.11818742185E+04  0.00000000000E+00 0.  1.
<mgrwt>
<rscale>  0 0.14490078E+04</rscale>
<asrwt>0</asrwt>
<pdfrwt beam="1">  1        2 0.27291148E+00 0.14490078E+04</pdfrwt>
<pdfrwt beam="2">  1       -2 0.45523216E-01 0.14490078E+04</pdfrwt>
<totfact> 0.39590772E+01</totfact>
</mgrwt>
</event>
<event>
 6    1  0.1072514E-005  0.4398738E+04  0.7818608E-02  0.7928609E-01
         -2   -1    0    0    0  501 -0.00000000000E+00  0.00000000000E+00  0.11144023136E+04  0.11144023136E+04  0.00000000000E+00 0.  1.
          2   -1    0    0  501    0  0.00000000000E+00 -0.00000000000E+00 -0.43406434962E+04  0.43406434962E+04  0.00000000000E+00 0. -1.
         23    2    1    2    0    0 -0.32174138251E+03 -0.44928508214E+03 -0.42526246844E+04  0.42893538714E+04  0.91462152706E+02 0.  0.
         11    1    3    3    0    0 -0.15705745065E+02 -0.31303282997E+02 -0.48770761839E+03  0.48896348227E+03  0.00000000000E+00 0. -1.
        -11    1    3    3    0    0 -0.30603563744E+03 -0.41798179915E+03 -0.37649170660E+04  0.38003903891E+04  0.00000000000E+00 0.  1.
         22    1    1    2    0    0  0.32174138251E+03  0.44928508214E+03  0.10263835019E+04  0.11656919384E+04  0.00000000000E+00 0.  1.
<mgrwt>
<rscale>  0 0.43987376E+04</rscale>
<asrwt>0</asrwt>
<pdfrwt beam="1">  1        2 0.66779130E+00 0.43987376E+04</pdfrwt>
<pdfrwt beam="2">  1       -2 0.17144651E+00 0.43987376E+04</pdfrwt>
<totfact> 0.27515644E-02</totfact>
</mgrwt>
</event>
<event>
 6    1  0.1072514E-005  0.1449098E+04  0.7818608E-02  0.8919026E-01
          2   -1    0    0  501    0  0.00000000000E+00  0.00000000000E+00  0.12098753848E+04  0.12098753848E+04  0.00000000000E+00 0. -1.
         -2   -1    0    0    0  501 -0.00000000000E+00 -0.00000000000E+00 -0.43390549136E+03  0.43390549136E+03  0.00000000000E+00 0.  1.
         23    2    1    2    0    0  0.95081739432E+02 -0.52803550389E+03  0.93669538135E+03  0.10836963173E+04  0.95589958405E+02 0.  0.
         13    1    3    3    0    0  0.27668609745E+02 -0.29403631881E+03  0.59302260486E+03  0.66249431592E+03  0.00000000000E+00 0. -1.
        -13    1    3    3    0    0  0.67413129687E+02 -0.23399918507E+03  0.34367277649E+03  0.42120200138E+03  0.00000000000E+00 0.  1.
         22    1    1    2    0    0 -0.95081739432E+02  0.52803550389E+03 -0.16072548796E+03  0.56008455881E+03  0.00000000000E+00 0. -1.
<mgrwt>
<rscale>  0 0.14490984E+04</rscale>
<asrwt>0</asrwt>
<pdfrwt beam="1">  1        2 0.18613467E+00 0.14490984E+04</pdfrwt>
<pdfrwt beam="2">  1       -2 0.66754691E-01 0.14490984E+04</pdfrwt>
<totfact> 0.37353763E+01</totfact>
</mgrwt>
</event>
<event>
 6    1  0.1072514E-005  0.1556046E+04  0.7818608E-02  0.8848015E-01
         -1   -1    0    0    0  501 -0.00000000000E+00  0.00000000000E+00  0.34854565317E+03  0.34854565317E+03  0.00000000000E+00 0.  1.
          1   -1    0    0  501    0  0.00000000000E+00 -0.00000000000E+00 -0.17367013198E+04  0.17367013198E+04  0.00000000000E+00 0. -1.
         23    2    1    2    0    0 -0.37706086225E+03  0.17608582730E+03  0.18145740154E+03  0.46140390906E+03  0.82375155926E+02 0.  0.
         11    1    3    3    0    0 -0.24854122822E+03  0.77280960838E+02  0.90775151413E+02  0.27565416222E+03  0.00000000000E+00 0.  1.
        -11    1    3    3    0    0 -0.12851963403E+03  0.98804866459E+02  0.90682250124E+02  0.18574974685E+03  0.00000000000E+00 0. -1.
         22    1    1    2    0    0  0.37706086225E+03 -0.17608582730E+03 -0.15696130682E+04  0.16238430639E+04  0.00000000000E+00 0. -1.
<mgrwt>
<rscale>  0 0.15560459E+04</rscale>
<asrwt>0</asrwt>
<pdfrwt beam="1">  1        1 0.26718482E+00 0.15560459E+04</pdfrwt>
<pdfrwt beam="2">  1       -1 0.53622408E-01 0.15560459E+04</pdfrwt>
<totfact> 0.15205618E+01</totfact>
</mgrwt>
</event>
<event>
 6    1  0.1072514E-005  0.1963601E+04  0.7818608E-02  0.8623830E-01
          2   -1    0    0  501    0  0.00000000000E+00  0.00000000000E+00  0.25177903426E+04  0.25177903426E+04  0.00000000000E+00 0. -1.
         -2   -1    0    0    0  501 -0.00000000000E+00 -0.00000000000E+00 -0.38284845705E+03  0.38284845705E+03  0.00000000000E+00 0.  1.
         23    2    1    2    0    0  0.83565084097E+03 -0.28983609954E+02  0.31745358340E+03  0.90003486432E+03  0.10066579218E+03 0.  0.
         13    1    3    3    0    0  0.19104301264E+03  0.25836037963E+02  0.10241451182E+03  0.21829719596E+03  0.00000000000E+00 0. -1.
        -13    1    3    3    0    0  0.64460782833E+03 -0.54819647917E+02  0.21503907159E+03  0.68173766835E+03  0.00000000000E+00 0.  1.
         22    1    1    2    0    0 -0.83565084097E+03  0.28983609954E+02  0.18174883022E+04  0.20006039354E+04  0.00000000000E+00 0.  1.
<mgrwt>
<rscale>  0 0.19636009E+04</rscale>
<asrwt>0</asrwt>
<pdfrwt beam="1">  1        2 0.38735235E+00 0.19636009E+04</pdfrwt>
<pdfrwt beam="2">  1       -2 0.58899764E-01 0.19636009E+04</pdfrwt>
<totfact> 0.85366030E+00</totfact>
</mgrwt>
</event>
<event>
 6    1  0.1072514E-005  0.1365803E+04  0.7818608E-02  0.8978951E-01
          2   -1    0    0  501    0  0.00000000000E+00  0.00000000000E+00  0.16469153948E+04  0.16469153948E+04  0.00000000000E+00 0. -1.
         -2   -1    0    0    0  501 -0.00000000000E+00 -0.00000000000E+00 -0.28316833355E+03  0.28316833355E+03  0.00000000000E+00 0.  1.
         23    2    1    2    0    0  0.66989628696E+02  0.47469076759E+03  0.13659702323E+04  0.14506842314E+04  0.93761017680E+02 0.  0.
         13    1    3    3    0    0  0.42416965321E+02  0.43174736878E+03  0.12796726857E+04  0.13512095218E+04  0.00000000000E+00 0.  1.
        -13    1    3    3    0    0  0.24572663375E+02  0.42943398812E+02  0.86297546604E+02  0.99474709533E+02  0.00000000000E+00 0. -1.
         22    1    1    2    0    0 -0.66989628696E+02 -0.47469076759E+03 -0.22231710780E+01  0.47939949695E+03  0.00000000000E+00 0.  1.
<mgrwt>
<rscale>  0 0.13658027E+04</rscale>
<asrwt>0</asrwt>
<pdfrwt beam="1">  1        2 0.25337159E+00 0.13658027E+04</pdfrwt>
<pdfrwt beam="2">  1       -2 0.43564360E-01 0.13658027E+04</pdfrwt>
<totfact> 0.51168876E+01</totfact>
</mgrwt>
</event>
<event>
 6    1  0.1072514E-005  0.3698405E+04  0.7818608E-02  0.8068315E-01
         -2   -1    0    0    0  501 -0.00000000000E+00  0.00000000000E+00  0.22389129030E+04  0.22389129030E+04  0.00000000000E+00 0.  1.
          2   -1    0    0  501    0  0.00000000000E+00 -0.00000000000E+00 -0.15273256549E+04  0.15273256549E+04  0.00000000000E+00 0. -1.
         23    2    1    2    0    0  0.37215863427E+03  0.95316456962E+03  0.19231636634E+04  0.21803816426E+04  0.92091723064E+02 0.  0.
         13    1    3    3    0    0  0.91118111640E+02  0.28819416165E+03  0.49151605944E+03  0.57701509665E+03  0.00000000000E+00 0.  1.
        -13    1    3    3    0    0  0.28104052263E+03  0.66497040798E+03  0.14316476040E+04  0.16033665460E+04  0.00000000000E+00 0. -1.
         22    1    1    2    0    0 -0.37215863427E+03 -0.95316456962E+03 -0.12115764153E+04  0.15858569153E+04  0.00000000000E+00 0. -1.
<mgrwt>
<rscale>  0 0.36984046E+04</rscale>
<asrwt>0</asrwt>
<pdfrwt beam="1">  1        2 0.23497318E+00 0.36984046E+04</pdfrwt>
<pdfrwt beam="2">  1       -2 0.34444814E+00 0.36984046E+04</pdfrwt>
<totfact> 0.16695974E-01</totfact>
</mgrwt>
</event>
<event>
 6    1  0.1072514E-005  0.1599156E+04  0.7818608E-02  0.8821067E-01
          2   -1    0    0  501    0  0.00000000000E+00  0.00000000000E+00  0.13869286447E+04  0.13869286447E+04  0.00000000000E+00 0. -1.
         -2   -1    0    0    0  501 -0.00000000000E+00 -0.00000000000E+00 -0.46096471311E+03  0.46096471311E+03  0.00000000000E+00 0.  1.
         23    2    1    2    0    0  0.47211336285E+03 -0.54373212130E+03  0.69326604181E+02  0.72880303179E+03  0.88385711438E+02 0.  0.
         11    1    3    3    0    0  0.22150428054E+03 -0.31636039529E+03  0.18652222168E+02  0.38664706309E+03  0.00000000000E+00 0. -1.
        -11    1    3    3    0    0  0.25060908231E+03 -0.22737172602E+03  0.50674382013E+02  0.34215596870E+03  0.00000000000E+00 0.  1.
         22    1    1    2    0    0 -0.47211336285E+03  0.54373212130E+03  0.85663732745E+03  0.11190903261E+04  0.00000000000E+00 0. -1.
<mgrwt>
<rscale>  0 0.15991562E+04</rscale>
<asrwt>0</asrwt>
<pdfrwt beam="1">  1        2 0.21337364E+00 0.15991562E+04</pdfrwt>
<pdfrwt beam="2">  1       -2 0.70917649E-01 0.15991562E+04</pdfrwt>
<totfact> 0.25507637E+01</totfact>
</mgrwt>
</event>
<event>
 6    1  0.1072514E-005  0.1605090E+04  0.7818608E-02  0.8817427E-01
          1   -1    0    0  501    0  0.00000000000E+00  0.00000000000E+00  0.88477091011E+03  0.88477091011E+03  0.00000000000E+00 0. -1.
         -1   -1    0    0    0  501 -0.00000000000E+00 -0.00000000000E+00 -0.72796064970E+03  0.72796064970E+03  0.00000000000E+00 0.  1.
         23    2    1    2    0    0 -0.94101988074E+02 -0.78544022053E+03  0.19257798041E+03  0.82086613313E+03  0.10470628341E+03 0.  0.
         13    1    3    3    0    0 -0.44762286977E+02 -0.12157026357E+03  0.67953575311E+01  0.12972728396E+03  0.00000000000E+00 0. -1.
        -13    1    3    3    0    0 -0.49339701097E+02 -0.66386995696E+03  0.18578262288E+03  0.69113884917E+03  0.00000000000E+00 0.  1.
         22    1    1    2    0    0  0.94101988074E+02  0.78544022053E+03 -0.35767719999E+02  0.79186542669E+03  0.00000000000E+00 0. -1.
<mgrwt>
<rscale>  0 0.16050899E+04</rscale>
<asrwt>0</asrwt>
<pdfrwt beam="1">  1        1 0.13611860E+00 0.16050899E+04</pdfrwt>
<pdfrwt beam="2">  1       -1 0.11199395E+00 0.16050899E+04</pdfrwt>
<totfact> 0.13141532E+01</totfact>
</mgrwt>
</event>
<event>
 6    1  0.1072514E-005  0.3713072E+04  0.7818608E-02  0.8065071E-01
          2   -1    0    0  501    0  0.00000000000E+00  0.00000000000E+00  0.72021854537E+03  0.72021854537E+03  0.00000000000E+00 0. -1.
         -2   -1    0    0    0  501 -0.00000000000E+00 -0.00000000000E+00 -0.47856654524E+04  0.47856654524E+04  0.00000000000E+00 0.  1.
         23    2    1    2    0    0 -0.48702911106E+02  0.17738383043E+04 -0.28375652666E+04  0.33479758379E+04  0.91056390100E+02 0.  0.
         13    1    3    3    0    0  0.15554822912E+02  0.89632361006E+03 -0.14724704724E+04  0.17238930531E+04  0.00000000000E+00 0.  1.
        -13    1    3    3    0    0 -0.64257734019E+02  0.87751469420E+03 -0.13650947942E+04  0.16240827849E+04  0.00000000000E+00 0. -1.
         22    1    1    2    0    0  0.48702911106E+02 -0.17738383043E+04 -0.12278816404E+04  0.21579081598E+04  0.00000000000E+00 0. -1.
<mgrwt>
<rscale>  0 0.37130715E+04</rscale>
<asrwt>0</asrwt>
<pdfrwt beam="1">  1        2 0.11080285E+00 0.37130715E+04</pdfrwt>
<pdfrwt beam="2">  1       -2 0.73625624E+00 0.37130715E+04</pdfrwt>
<totfact> 0.52460181E-03</totfact>
</mgrwt>
</event>
<event>
 6    1  0.1072514E-005  0.2842770E+04  0.7818608E-02  0.8290112E-01
         -2   -1    0    0    0  501 -0.00000000000E+00  0.00000000000E+00  0.11384037824E+04  0.11384037824E+04  0.00000000000E+00 0.  1.
          2   -1    0    0  501    0  0.00000000000E+00 -0.00000000000E+00 -0.17747084112E+04  0.17747084112E+04  0.00000000000E+00 0. -1.
         23    2    1    2    0    0  0.53845289955E+03 -0.10837581042E+04 -0.10794483705E+04  0.16243765616E+04  0.94484261990E+02 0.  0.
         11    1    3    3    0    0  0.14190689142E+03 -0.25705995865E+03 -0.31486400853E+03  0.43053075621E+03  0.00000000000E+00 0.  1.
        -11    1    3    3    0    0  0.39654600813E+03 -0.82669814554E+03 -0.76458436195E+03  0.11938458054E+04  0.00000000000E+00 0. -1.
         22    1    1    2    0    0 -0.53845289955E+03  0.10837581042E+04  0.44314374172E+03  0.12887356320E+04  0.00000000000E+00 0.  1.
<mgrwt>
<rscale>  0 0.28427696E+04</rscale>
<asrwt>0</asrwt>
<pdfrwt beam="1">  1        2 0.27303206E+00 0.28427696E+04</pdfrwt>
<pdfrwt beam="2">  1       -2 0.17513904E+00 0.28427696E+04</pdfrwt>
<totfact> 0.15152136E+00</totfact>
</mgrwt>
</event>
<event>
 6    1  0.1072514E-005  0.1754671E+04  0.7818608E-02  0.8730783E-01
         -2   -1    0    0    0  501 -0.00000000000E+00  0.00000000000E+00  0.19396808884E+04  0.19396808884E+04  0.00000000000E+00 0. -1.
          2   -1    0    0  501    0  0.00000000000E+00 -0.00000000000E+00 -0.39682704832E+03  0.39682704832E+03  0.00000000000E+00 0.  1.
         23    2    1    2    0    0  0.59679964043E+02 -0.41905234761E+03 -0.24616440950E+03  0.49809751859E+03  0.91310751676E+02 0.  0.
         11    1    3    3    0    0 -0.68676116087E+00 -0.22097305663E+03 -0.89383653744E+02  0.23836736554E+03  0.00000000000E+00 0.  1.
        -11    1    3    3    0    0  0.60366725203E+02 -0.19807929099E+03 -0.15678075576E+03  0.25973015305E+03  0.00000000000E+00 0. -1.
         22    1    1    2    0    0 -0.59679964043E+02  0.41905234761E+03  0.17890182496E+04  0.18384104182E+04  0.00000000000E+00 0. -1.
<mgrwt>
<rscale>  0 0.17546713E+04</rscale>
<asrwt>0</asrwt>
<pdfrwt beam="1">  1        2 0.61050317E-01 0.17546713E+04</pdfrwt>
<pdfrwt beam="2">  1       -2 0.29841244E+00 0.17546713E+04</pdfrwt>
<totfact> 0.24755995E+00</totfact>
</mgrwt>
</event>
<event>
 6    1  0.1072514E-005  0.5101893E+04  0.7818608E-02  0.7812979E-01
          2   -1    0    0  501    0  0.00000000000E+00  0.00000000000E+00  0.33107498727E+04  0.33107498727E+04  0.00000000000E+00 0. -1.
         -2   -1    0    0    0  501 -0.00000000000E+00 -0.00000000000E+00 -0.19655152212E+04  0.19655152212E+04  0.00000000000E+00 0.  1.
         23    2    1    2    0    0 -0.13358463820E+04  0.19689220194E+04 -0.27628605352E+03  0.23969476624E+04  0.88795484840E+02 0.  0.
         13    1    3    3    0    0 -0.11946580320E+04  0.17087101714E+04 -0.24098343883E+03  0.20988023445E+04  0.00000000000E+00 0. -1.
        -13    1    3    3    0    0 -0.14118835003E+03  0.26021184795E+03 -0.35302614685E+02  0.29814531793E+03  0.00000000000E+00 0.  1.
         22    1    1    2    0    0  0.13358463820E+04 -0.19689220194E+04  0.16215207050E+04  0.28793174316E+04  0.00000000000E+00 0. -1.
<mgrwt>
<rscale>  0 0.51018935E+04</rscale>
<asrwt>0</asrwt>
<pdfrwt beam="1">  1        2 0.50934613E+00 0.51018935E+04</pdfrwt>
<pdfrwt beam="2">  1       -2 0.30238696E+00 0.51018935E+04</pdfrwt>
<totfact> 0.24282998E-02</totfact>
</mgrwt>
</event>
<event>
 6    1  0.1072514E-005  0.3012696E+04  0.7818608E-02  0.8240115E-01
          2   -1    0    0  501    0  0.00000000000E+00  0.00000000000E+00  0.29661389731E+04  0.29661389731E+04  0.00000000000E+00 0. -1.
         -2   -1    0    0    0  501 -0.00000000000E+00 -0.00000000000E+00 -0.76499580241E+03  0.76499580241E+03  0.00000000000E+00 0.  1.
         23    2    1    2    0    0  0.97827632491E+03 -0.94727990415E+03  0.30791665662E+03  0.13990390617E+04  0.90187826766E+02 0.  0.
         11    1    3    3    0    0  0.54388578048E+03 -0.51889838849E+03  0.21552249432E+03  0.78199566837E+03  0.00000000000E+00 0. -1.
        -11    1    3    3    0    0  0.43439054443E+03 -0.42838151566E+03  0.92394162303E+02  0.61704339335E+03  0.00000000000E+00 0.  1.
         22    1    1    2    0    0 -0.97827632491E+03  0.94727990415E+03  0.18932265141E+04  0.23320957138E+04  0.00000000000E+00 0.  1.
<mgrwt>
<rscale>  0 0.30126957E+04</rscale>
<asrwt>0</asrwt>
<pdfrwt beam="1">  1        2 0.45632907E+00 0.30126957E+04</pdfrwt>
<pdfrwt beam="2">  1       -2 0.11769166E+00 0.30126957E+04</pdfrwt>
<totfact> 0.87050560E-01</totfact>
</mgrwt>
</event>
<event>
 6    1  0.1072514E-005  0.8013227E+03  0.7818608E-02  0.9558105E-01
          2   -1    0    0  501    0  0.00000000000E+00  0.00000000000E+00  0.61997080387E+03  0.61997080387E+03  0.00000000000E+00 0. -1.
         -2   -1    0    0    0  501 -0.00000000000E+00 -0.00000000000E+00 -0.25893075038E+03  0.25893075038E+03  0.00000000000E+00 0.  1.
         23    2    1    2    0    0 -0.32245968823E+02  0.77907353107E+02  0.60620835251E+03  0.61963942239E+03  0.96721708806E+02 0.  0.
         13    1    3    3    0    0 -0.35944973936E+02  0.47469384532E+02  0.56575120841E+03  0.56887592095E+03  0.00000000000E+00 0. -1.
        -13    1    3    3    0    0  0.36990051123E+01  0.30437968576E+02  0.40457144100E+02  0.50763501442E+02  0.00000000000E+00 0.  1.
         22    1    1    2    0    0  0.32245968823E+02 -0.77907353107E+02 -0.24516829901E+03  0.25926213186E+03  0.00000000000E+00 0.  1.
<mgrwt>
<rscale>  0 0.80132267E+03</rscale>
<asrwt>0</asrwt>
<pdfrwt beam="1">  1        2 0.95380123E-01 0.80132267E+03</pdfrwt>
<pdfrwt beam="2">  1       -2 0.39835500E-01 0.80132267E+03</pdfrwt>
<totfact> 0.28581414E+02</totfact>
</mgrwt>
</event>
<event>
 6    1  0.1072514E-005  0.6080768E+03  0.7818608E-02  0.9888790E-01
         -1   -1    0    0    0  501 -0.00000000000E+00  0.00000000000E+00  0.22186521434E+03  0.22186521434E+03  0.00000000000E+00 0.  1.
          1   -1    0    0  501    0  0.00000000000E+00 -0.00000000000E+00 -0.41664643604E+03  0.41664643604E+03  0.00000000000E+00 0. -1.
         23    2    1    2    0    0 -0.34629702314E+01 -0.23741887976E+03 -0.28608513013E+03  0.38411801775E+03  0.96551712863E+02 0.  0.
         11    1    3    3    0    0 -0.41996128064E+02 -0.59786885868E+02 -0.10151252221E+03  0.12507173406E+03  0.00000000000E+00 0.  1.
        -11    1    3    3    0    0  0.38533157833E+02 -0.17763199389E+03 -0.18457260792E+03  0.25904628370E+03  0.00000000000E+00 0. -1.
         22    1    1    2    0    0  0.34629702314E+01  0.23741887976E+03  0.91303908424E+02  0.25439363263E+03  0.00000000000E+00 0.  1.
<mgrwt>
<rscale>  0 0.60807681E+03</rscale>
<asrwt>0</asrwt>
<pdfrwt beam="1">  1        1 0.64099451E-01 0.60807681E+03</pdfrwt>
<pdfrwt beam="2">  1       -1 0.34133110E-01 0.60807681E+03</pdfrwt>
<totfact> 0.46629816E+02</totfact>
</mgrwt>
</event>
<event>
 6    1  0.1072514E-005  0.1101963E+04  0.7818608E-02  0.9203281E-01
          1   -1    0    0  501    0  0.00000000000E+00  0.00000000000E+00  0.14875245431E+04  0.14875245431E+04  0.00000000000E+00 0. -1.
         -1   -1    0    0    0  501 -0.00000000000E+00 -0.00000000000E+00 -0.20408435288E+03  0.20408435288E+03  0.00000000000E+00 0.  1.
         23    2    1    2    0    0  0.24472567657E+03  0.48502310262E+03  0.74616141516E+03  0.92753655061E+03  0.91810284766E+02 0.  0.
         13    1    3    3    0    0  0.85000908019E+02  0.26222836055E+03  0.40437699427E+03  0.48939720160E+03  0.00000000000E+00 0. -1.
        -13    1    3    3    0    0  0.15972476855E+03  0.22279474207E+03  0.34178442089E+03  0.43813934901E+03  0.00000000000E+00 0.  1.
         22    1    1    2    0    0 -0.24472567657E+03 -0.48502310262E+03  0.53727877510E+03  0.76407234541E+03  0.00000000000E+00 0.  1.
<mgrwt>
<rscale>  0 0.11019628E+04</rscale>
<asrwt>0</asrwt>
<pdfrwt beam="1">  1        1 0.22884992E+00 0.11019628E+04</pdfrwt>
<pdfrwt beam="2">  1       -1 0.31397594E-01 0.11019628E+04</pdfrwt>
<totfact> 0.62594686E+01</totfact>
</mgrwt>
</event>
<event>
 6    1  0.1072514E-005  0.3581719E+04  0.7818608E-02  0.8094692E-01
         -1   -1    0    0    0  501 -0.00000000000E+00  0.00000000000E+00  0.14785923195E+04  0.14785923195E+04  0.00000000000E+00 0.  1.
          1   -1    0    0  501    0  0.00000000000E+00 -0.00000000000E+00 -0.21690754752E+04  0.21690754752E+04  0.00000000000E+00 0. -1.
         23    2    1    2    0    0 -0.37721902657E+03 -0.11317481649E+04 -0.17042318438E+04  0.20821536601E+04  0.88371851240E+02 0.  0.
         11    1    3    3    0    0 -0.63720844920E+02 -0.23426555978E+03 -0.40630843670E+03  0.47331516383E+03  0.00000000000E+00 0. -1.
        -11    1    3    3    0    0 -0.31349818165E+03 -0.89748260515E+03 -0.12979234071E+04  0.16088384963E+04  0.00000000000E+00 0.  1.
         22    1    1    2    0    0  0.37721902657E+03  0.11317481649E+04  0.10137486881E+04  0.15655141345E+04  0.00000000000E+00 0.  1.
<mgrwt>
<rscale>  0 0.35817193E+04</rscale>
<asrwt>0</asrwt>
<pdfrwt beam="1">  1        1 0.33370392E+00 0.35817193E+04</pdfrwt>
<pdfrwt beam="2">  1       -1 0.22747574E+00 0.35817193E+04</pdfrwt>
<totfact> 0.18181217E-01</totfact>
</mgrwt>
</event>
<event>
 6    1  0.1072514E-005  0.2105578E+04  0.7818608E-02  0.8558790E-01
          1   -1    0    0  501    0  0.00000000000E+00  0.00000000000E+00  0.11214781459E+04  0.11214781459E+04  0.00000000000E+00 0. -1.
         -1   -1    0    0    0  501 -0.00000000000E+00 -0.00000000000E+00 -0.98830732785E+03  0.98830732785E+03  0.00000000000E+00 0.  1.
         23    2    1    2    0    0  0.71021218520E+03 -0.19789888953E+03 -0.68358850801E+03  0.10094850079E+04  0.90561660488E+02 0.  0.
         13    1    3    3    0    0  0.18208845210E+03 -0.58625609696E+02 -0.23273150568E+03  0.30125922432E+03  0.00000000000E+00 0. -1.
        -13    1    3    3    0    0  0.52812373311E+03 -0.13927327984E+03 -0.45085700233E+03  0.70822578356E+03  0.00000000000E+00 0.  1.
         22    1    1    2    0    0 -0.71021218520E+03  0.19789888953E+03  0.81675932604E+03  0.11003004659E+04  0.00000000000E+00 0. -1.
<mgrwt>
<rscale>  0 0.21055784E+04</rscale>
<asrwt>0</asrwt>
<pdfrwt beam="1">  1        1 0.17253510E+00 0.21055784E+04</pdfrwt>
<pdfrwt beam="2">  1       -1 0.15204728E+00 0.21055784E+04</pdfrwt>
<totfact> 0.37770566E+00</totfact>
</mgrwt>
</event>
<event>
 6    1  0.1072514E-005  0.3640991E+04  0.7818608E-02  0.8081166E-01
          2   -1    0    0  501    0  0.00000000000E+00  0.00000000000E+00  0.15103084370E+04  0.15103084370E+04  0.00000000000E+00 0.  1.
         -2   -1    0    0    0  501 -0.00000000000E+00 -0.00000000000E+00 -0.21943887839E+04  0.21943887839E+04  0.00000000000E+00 0. -1.
         23    2    1    2    0    0 -0.32965784403E+03  0.55455338779E+03 -0.20731220709E+04  0.21731487675E+04  0.92394214768E+02 0.  0.
         13    1    3    3    0    0 -0.10027644664E+03  0.10690047321E+03 -0.39770021643E+03  0.42384966565E+03  0.00000000000E+00 0.  1.
        -13    1    3    3    0    0 -0.22938139739E+03  0.44765291459E+03 -0.16754218544E+04  0.17492991018E+04  0.00000000000E+00 0. -1.
         22    1    1    2    0    0  0.32965784403E+03 -0.55455338779E+03  0.13890417240E+04  0.15315484534E+04  0.00000000000E+00 0.  1.
<mgrwt>
<rscale>  0 0.36409910E+04</rscale>
<asrwt>0</asrwt>
<pdfrwt beam="1">  1        2 0.23235514E+00 0.36409910E+04</pdfrwt>
<pdfrwt beam="2">  1       -2 0.33759827E+00 0.36409910E+04</pdfrwt>
<totfact> 0.18931840E-01</totfact>
</mgrwt>
</event>
<event>
 6    1  0.1072514E-005  0.2776912E+04  0.7818608E-02  0.8310472E-01
          1   -1    0    0  501    0  0.00000000000E+00  0.00000000000E+00  0.18549500376E+04  0.18549500376E+04  0.00000000000E+00 0. -1.
         -1   -1    0    0    0  501 -0.00000000000E+00 -0.00000000000E+00 -0.10392788704E+04  0.10392788704E+04  0.00000000000E+00 0.  1.
         23    2    1    2    0    0 -0.88528036428E+03 -0.21010409349E+03 -0.68262131154E+03  0.11413040936E+04  0.93477941641E+02 0.  0.
         11    1    3    3    0    0 -0.58719890890E+03 -0.12818814122E+03 -0.39611865948E+03  0.71982272161E+03  0.00000000000E+00 0.  1.
        -11    1    3    3    0    0 -0.29808145538E+03 -0.81915952271E+02 -0.28650265206E+03  0.42148137197E+03  0.00000000000E+00 0. -1.
         22    1    1    2    0    0  0.88528036428E+03  0.21010409349E+03  0.14982924787E+04  0.17529248145E+04  0.00000000000E+00 0. -1.
<mgrwt>
<rscale>  0 0.27769122E+04</rscale>
<asrwt>0</asrwt>
<pdfrwt beam="1">  1        1 0.28537693E+00 0.27769122E+04</pdfrwt>
<pdfrwt beam="2">  1       -1 0.15988906E+00 0.27769122E+04</pdfrwt>
<totfact> 0.94948345E-01</totfact>
</mgrwt>
</event>
<event>
 6    1  0.1072514E-005  0.2955260E+04  0.7818608E-02  0.8256623E-01
          2   -1    0    0  501    0  0.00000000000E+00  0.00000000000E+00  0.18152864845E+04  0.18152864845E+04  0.00000000000E+00 0. -1.
         -2   -1    0    0    0  501 -0.00000000000E+00 -0.00000000000E+00 -0.12027797504E+04  0.12027797504E+04  0.00000000000E+00 0.  1.
         23    2    1    2    0    0  0.68626088323E+03  0.13617484890E+03  0.16340873701E+04  0.17798721528E+04  0.90585638197E+02 0.  0.
         13    1    3    3    0    0  0.65180341040E+01  0.12841437232E+02  0.40473770803E+02  0.42959439030E+02  0.00000000000E+00 0.  1.
        -13    1    3    3    0    0  0.67974284913E+03  0.12333341167E+03  0.15936135993E+04  0.17369127138E+04  0.00000000000E+00 0. -1.
         22    1    1    2    0    0 -0.68626088323E+03 -0.13617484890E+03 -0.10215806360E+04  0.12381940822E+04  0.00000000000E+00 0.  1.
<mgrwt>
<rscale>  0 0.29552596E+04</rscale>
<asrwt>0</asrwt>
<pdfrwt beam="1">  1        2 0.27927484E+00 0.29552596E+04</pdfrwt>
<pdfrwt beam="2">  1       -2 0.18504304E+00 0.29552596E+04</pdfrwt>
<totfact> 0.12174477E+00</totfact>
</mgrwt>
</event>
<event>
 6    1  0.1072514E-005  0.2531780E+04  0.7818608E-02  0.8391750E-01
         -2   -1    0    0    0  501 -0.00000000000E+00  0.00000000000E+00  0.62140647989E+03  0.62140647989E+03  0.00000000000E+00 0.  1.
          2   -1    0    0  501    0  0.00000000000E+00 -0.00000000000E+00 -0.25787919998E+04  0.25787919998E+04  0.00000000000E+00 0. -1.
         23    2    1    2    0    0  0.67914058028E+02  0.12279998298E+03 -0.25681210922E+04  0.25735485819E+04  0.90632246520E+02 0.  0.
         11    1    3    3    0    0  0.25101802483E+02  0.85348358249E+02 -0.21151437985E+04  0.21170138713E+04  0.00000000000E+00 0. -1.
        -11    1    3    3    0    0  0.42812255545E+02  0.37451624731E+02 -0.45297729372E+03  0.45653471067E+03  0.00000000000E+00 0.  1.
         22    1    1    2    0    0 -0.67914058028E+02 -0.12279998298E+03  0.61073557231E+03  0.62664989777E+03  0.00000000000E+00 0.  1.
<mgrwt>
<rscale>  0 0.25317804E+04</rscale>
<asrwt>0</asrwt>
<pdfrwt beam="1">  1        2 0.39673724E+00 0.25317804E+04</pdfrwt>
<pdfrwt beam="2">  1       -2 0.95600995E-01 0.25317804E+04</pdfrwt>
<totfact> 0.25578779E+00</totfact>
</mgrwt>
</event>
<event>
 6    1  0.1570943E-005  0.3730970E+04  0.7818608E-02  0.8061133E-01
          2   -1    0    0  501    0  0.00000000000E+00  0.00000000000E+00  0.21131969405E+04  0.21131969405E+04  0.00000000000E+00 0. -1.
         -2   -1    0    0    0  501 -0.00000000000E+00 -0.00000000000E+00 -0.16468104262E+04  0.16468104262E+04  0.00000000000E+00 0.  1.
         23    2    1    2    0    0 -0.86476241385E+03  0.12981051321E+04  0.12626196891E+04  0.20087568893E+04  0.89469517887E+02 0.  0.
         13    1    3    3    0    0 -0.56839190673E+03  0.85602255942E+03  0.77661306147E+03  0.12880108032E+04  0.00000000000E+00 0.  1.
        -13    1    3    3    0    0 -0.29637050711E+03  0.44208257266E+03  0.48600662760E+03  0.72074608608E+03  0.00000000000E+00 0. -1.
         22    1    1    2    0    0  0.86476241385E+03 -0.12981051321E+04 -0.79623317473E+03  0.17512504775E+04  0.00000000000E+00 0. -1.
<mgrwt>
<rscale>  0 0.37309703E+04</rscale>
<asrwt>0</asrwt>
<pdfrwt beam="1">  1        2 0.32510722E+00 0.37309703E+04</pdfrwt>
<pdfrwt beam="2">  1       -2 0.25335545E+00 0.37309703E+04</pdfrwt>
<totfact> 0.28547271E-01</totfact>
</mgrwt>
</event>
<event>
 6    1  0.1072514E-005  0.1299822E+04  0.7818608E-02  0.9029707E-01
         -2   -1    0    0    0  501 -0.00000000000E+00  0.00000000000E+00  0.29079118836E+03  0.29079118836E+03  0.00000000000E+00 0.  1.
          2   -1    0    0  501    0  0.00000000000E+00 -0.00000000000E+00 -0.14525339720E+04  0.14525339720E+04  0.00000000000E+00 0. -1.
         23    2    1    2    0    0  0.34485716246E+03  0.54454688419E+03 -0.51573213250E+03  0.83075322730E+03  0.93346240407E+02 0.  0.
         13    1    3    3    0    0  0.16331636960E+03  0.19739002496E+03 -0.24551062176E+03  0.35483872947E+03  0.00000000000E+00 0. -1.
        -13    1    3    3    0    0  0.18154079286E+03  0.34715685923E+03 -0.27022151074E+03  0.47591449783E+03  0.00000000000E+00 0.  1.
         22    1    1    2    0    0 -0.34485716246E+03 -0.54454688419E+03 -0.64601065110E+03  0.91257193301E+03  0.00000000000E+00 0. -1.
<mgrwt>
<rscale>  0 0.12998216E+04</rscale>
<asrwt>0</asrwt>
<pdfrwt beam="1">  1        2 0.22346676E+00 0.12998216E+04</pdfrwt>
<pdfrwt beam="2">  1       -2 0.44737106E-01 0.12998216E+04</pdfrwt>
<totfact> 0.62702141E+01</totfact>
</mgrwt>
</event>
<event>
 6    1  0.1157311E-005  0.2753322E+04  0.7818608E-02  0.8317908E-01
         -1   -1    0    0    0  501 -0.00000000000E+00  0.00000000000E+00  0.16405027495E+04  0.16405027495E+04  0.00000000000E+00 0.  1.
          1   -1    0    0  501    0  0.00000000000E+00 -0.00000000000E+00 -0.11552527249E+04  0.11552527249E+04  0.00000000000E+00 0. -1.
         23    2    1    2    0    0  0.12175359905E+03  0.53632952791E+03 -0.10369165727E+04  0.11772795088E+04  0.91201764394E+02 0.  0.
         13    1    3    3    0    0  0.92330322873E+02  0.28563472226E+03 -0.48503460969E+03  0.57041270645E+03  0.00000000000E+00 0. -1.
        -13    1    3    3    0    0  0.29423276181E+02  0.25069480564E+03 -0.55188196297E+03  0.60686680237E+03  0.00000000000E+00 0.  1.
         22    1    1    2    0    0 -0.12175359905E+03 -0.53632952791E+03  0.15221665973E+04  0.16184759656E+04  0.00000000000E+00 0.  1.
<mgrwt>
<rscale>  0 0.27533218E+04</rscale>
<asrwt>0</asrwt>
<pdfrwt beam="1">  1        1 0.17773119E+00 0.27533218E+04</pdfrwt>
<pdfrwt beam="2">  1       -1 0.25238504E+00 0.27533218E+04</pdfrwt>
<totfact> 0.67395916E-01</totfact>
</mgrwt>
</event>
<event>
 6    1  0.1072514E-005  0.2788191E+04  0.7818608E-02  0.8306944E-01
          1   -1    0    0  501    0  0.00000000000E+00  0.00000000000E+00  0.19901070190E+04  0.19901070190E+04  0.00000000000E+00 0. -1.
         -1   -1    0    0    0  501 -0.00000000000E+00 -0.00000000000E+00 -0.97658168345E+03  0.97658168345E+03  0.00000000000E+00 0.  1.
         23    2    1    2    0    0  0.12640963103E+04 -0.39480995063E+03  0.96587079983E+03  0.16415150030E+04  0.88604313472E+02 0.  0.
         11    1    3    3    0    0  0.51878915735E+03 -0.20762367268E+03  0.40118004399E+03  0.68789185701E+03  0.00000000000E+00 0. -1.
        -11    1    3    3    0    0  0.74530715296E+03 -0.18718627795E+03  0.56469075585E+03  0.95362314603E+03  0.00000000000E+00 0.  1.
         22    1    1    2    0    0 -0.12640963103E+04  0.39480995063E+03  0.47654535725E+02  0.13251736994E+04  0.00000000000E+00 0.  1.
<mgrwt>
<rscale>  0 0.27881909E+04</rscale>
<asrwt>0</asrwt>
<pdfrwt beam="1">  1        1 0.30617031E+00 0.27881909E+04</pdfrwt>
<pdfrwt beam="2">  1       -1 0.15024334E+00 0.27881909E+04</pdfrwt>
<totfact> 0.91098217E-01</totfact>
</mgrwt>
</event>
<event>
 6    1  0.1072514E-005  0.1782593E+04  0.7818608E-02  0.8715611E-01
          2   -1    0    0  501    0  0.00000000000E+00  0.00000000000E+00  0.70044117013E+03  0.70044117013E+03  0.00000000000E+00 0. -1.
         -2   -1    0    0    0  501 -0.00000000000E+00 -0.00000000000E+00 -0.11341561018E+04  0.11341561018E+04  0.00000000000E+00 0.  1.
         23    2    1    2    0    0 -0.27915099368E+03  0.82395136258E+03 -0.29595393122E+02  0.87536125996E+03  0.92522013529E+02 0.  0.
         11    1    3    3    0    0 -0.10141475350E+03  0.20014397014E+03 -0.32553225121E+02  0.22672069485E+03  0.00000000000E+00 0. -1.
        -11    1    3    3    0    0 -0.17773624018E+03  0.62380739244E+03  0.29578319986E+01  0.64864056511E+03  0.00000000000E+00 0.  1.
         22    1    1    2    0    0  0.27915099368E+03 -0.82395136258E+03 -0.40411953850E+03  0.95923601192E+03  0.00000000000E+00 0.  1.
<mgrwt>
<rscale>  0 0.17825932E+04</rscale>
<asrwt>0</asrwt>
<pdfrwt beam="1">  1        2 0.10776018E+00 0.17825932E+04</pdfrwt>
<pdfrwt beam="2">  1       -2 0.17448555E+00 0.17825932E+04</pdfrwt>
<totfact> 0.76626744E+00</totfact>
</mgrwt>
</event>
<event>
 6    1  0.1072514E-005  0.9570897E+03  0.7818608E-02  0.9356902E-01
         -1   -1    0    0    0  501 -0.00000000000E+00  0.00000000000E+00  0.20868309447E+03  0.20868309447E+03  0.00000000000E+00 0.  1.
          1   -1    0    0  501    0  0.00000000000E+00 -0.00000000000E+00 -0.10973825317E+04  0.10973825317E+04  0.00000000000E+00 0. -1.
         23    2    1    2    0    0  0.35951467167E+03  0.43730323044E+02 -0.86610663755E+03  0.94319708954E+03  0.91197049375E+02 0.  0.
         13    1    3    3    0    0  0.29850620970E+03  0.69222716863E+02 -0.68565123654E+03  0.75100956048E+03  0.00000000000E+00 0.  1.
        -13    1    3    3    0    0  0.61008461962E+02 -0.25492393818E+02 -0.18045540101E+03  0.19218752906E+03  0.00000000000E+00 0. -1.
         22    1    1    2    0    0 -0.35951467167E+03 -0.43730323044E+02 -0.22592799714E+02  0.36286853666E+03  0.00000000000E+00 0.  1.
<mgrwt>
<rscale>  0 0.95708972E+03</rscale>
<asrwt>0</asrwt>
<pdfrwt beam="1">  1        1 0.16882808E+00 0.95708972E+03</pdfrwt>
<pdfrwt beam="2">  1       -1 0.32105092E-01 0.95708972E+03</pdfrwt>
<totfact> 0.11571759E+02</totfact>
</mgrwt>
</event>
<event>
 6    1  0.1072514E-005  0.3926146E+03  0.7818608E-02  0.1046367E+00
         -1   -1    0    0    0  501 -0.00000000000E+00  0.00000000000E+00  0.79780712840E+02  0.79780712840E+02  0.00000000000E+00 0.  1.
          1   -1    0    0  501    0  0.00000000000E+00 -0.00000000000E+00 -0.48303096066E+03  0.48303096066E+03  0.00000000000E+00 0. -1.
         23    2    1    2    0    0 -0.28938558854E+02 -0.14265218397E+03 -0.47186987950E+02  0.17814541451E+03  0.91225495882E+02 0.  0.
         13    1    3    3    0    0 -0.49997427138E+02 -0.35248430950E+02 -0.70901506111E+01  0.61582991488E+02  0.00000000000E+00 0. -1.
        -13    1    3    3    0    0  0.21058868284E+02 -0.10740375302E+03 -0.40096837339E+02  0.11656242302E+03  0.00000000000E+00 0.  1.
         22    1    1    2    0    0  0.28938558854E+02  0.14265218397E+03 -0.35606325987E+03  0.38466625899E+03  0.00000000000E+00 0. -1.
<mgrwt>
<rscale>  0 0.39261459E+03</rscale>
<asrwt>0</asrwt>
<pdfrwt beam="1">  1        1 0.74312454E-01 0.39261459E+03</pdfrwt>
<pdfrwt beam="2">  1       -1 0.12273956E-01 0.39261459E+03</pdfrwt>
<totfact> 0.20993089E+03</totfact>
</mgrwt>
</event>
<event>
 6    1  0.1072514E-005  0.8965438E+03  0.7818608E-02  0.9429912E-01
         -3   -1    0    0    0  501 -0.00000000000E+00  0.00000000000E+00  0.28336368871E+03  0.28336368871E+03  0.00000000000E+00 0.  1.
          3   -1    0    0  501    0  0.00000000000E+00 -0.00000000000E+00 -0.70915111154E+03  0.70915111154E+03  0.00000000000E+00 0. -1.
         23    2    1    2    0    0 -0.27731179249E+03 -0.23822598513E+03 -0.49340627584E+03  0.62072754989E+03  0.90551023768E+02 0.  0.
         11    1    3    3    0    0 -0.35938887915E+02 -0.14323496843E+01 -0.71576577049E+02  0.80105316130E+02  0.00000000000E+00 0. -1.
        -11    1    3    3    0    0 -0.24137290458E+03 -0.23679363545E+03 -0.42182969879E+03  0.54062223376E+03  0.00000000000E+00 0.  1.
         22    1    1    2    0    0  0.27731179249E+03  0.23822598513E+03  0.67618853007E+02  0.37178725036E+03  0.00000000000E+00 0.  1.
<mgrwt>
<rscale>  0 0.89654375E+03</rscale>
<asrwt>0</asrwt>
<pdfrwt beam="1">  1        3 0.10910017E+00 0.89654375E+03</pdfrwt>
<pdfrwt beam="2">  1       -3 0.43594414E-01 0.89654375E+03</pdfrwt>
<totfact> 0.98028216E+00</totfact>
</mgrwt>
</event>
<event>
 6    1  0.1072514E-005  0.3114679E+04  0.7818608E-02  0.8211721E-01
         -2   -1    0    0    0  501 -0.00000000000E+00  0.00000000000E+00  0.10021123267E+04  0.10021123267E+04  0.00000000000E+00 0.  1.
          2   -1    0    0  501    0  0.00000000000E+00 -0.00000000000E+00 -0.24201944383E+04  0.24201944383E+04  0.00000000000E+00 0. -1.
         23    2    1    2    0    0  0.44534077800E+03  0.24631760199E+03  0.90598073066E+03  0.10431748089E+04  0.91716018019E+02 0.  0.
         11    1    3    3    0    0  0.25420291269E+03  0.89685748514E+02  0.49416296926E+03  0.56290291747E+03  0.00000000000E+00 0. -1.
        -11    1    3    3    0    0  0.19113786531E+03  0.15663185347E+03  0.41181776141E+03  0.48027189142E+03  0.00000000000E+00 0.  1.
         22    1    1    2    0    0 -0.44534077800E+03 -0.24631760199E+03 -0.23240628423E+04  0.23791319561E+04  0.00000000000E+00 0. -1.
<mgrwt>
<rscale>  0 0.31146792E+04</rscale>
<asrwt>0</asrwt>
<pdfrwt beam="1">  1        2 0.37233761E+00 0.31146792E+04</pdfrwt>
<pdfrwt beam="2">  1       -2 0.15417113E+00 0.31146792E+04</pdfrwt>
<totfact> 0.91400473E-01</totfact>
</mgrwt>
</event>
<event>
 6    1  0.1072514E-005  0.1269593E+04  0.7818608E-02  0.9054032E-01
          2   -1    0    0  501    0  0.00000000000E+00  0.00000000000E+00  0.10514947502E+04  0.10514947502E+04  0.00000000000E+00 0. -1.
         -2   -1    0    0    0  501 -0.00000000000E+00 -0.00000000000E+00 -0.38323209692E+03  0.38323209692E+03  0.00000000000E+00 0.  1.
         23    2    1    2    0    0  0.35945523930E+03 -0.13221181956E+03  0.90325663443E+03  0.98538265226E+03  0.91751781726E+02 0.  0.
         11    1    3    3    0    0  0.14726696092E+03 -0.13062284576E+02  0.39806817160E+03  0.42463684519E+03  0.00000000000E+00 0. -1.
        -11    1    3    3    0    0  0.21218827838E+03 -0.11914953498E+03  0.50518846283E+03  0.56074580707E+03  0.00000000000E+00 0.  1.
         22    1    1    2    0    0 -0.35945523930E+03  0.13221181956E+03 -0.23499398113E+03  0.44934419487E+03  0.00000000000E+00 0.  1.
<mgrwt>
<rscale>  0 0.12695929E+04</rscale>
<asrwt>0</asrwt>
<pdfrwt beam="1">  1        2 0.16176842E+00 0.12695929E+04</pdfrwt>
<pdfrwt beam="2">  1       -2 0.58958785E-01 0.12695929E+04</pdfrwt>
<totfact> 0.61661684E+01</totfact>
</mgrwt>
</event>
<event>
 6    1  0.1072514E-005  0.2613625E+04  0.7818608E-02  0.8363588E-01
          1   -1    0    0  501    0  0.00000000000E+00  0.00000000000E+00  0.13919598451E+04  0.13919598451E+04  0.00000000000E+00 0. -1.
         -1   -1    0    0    0  501 -0.00000000000E+00 -0.00000000000E+00 -0.12268734217E+04  0.12268734217E+04  0.00000000000E+00 0.  1.
         23    2    1    2    0    0 -0.90360593319E+03  0.80592032925E+03 -0.40576191998E+03  0.12802223858E+04  0.91188604976E+02 0.  0.
         11    1    3    3    0    0 -0.22175713674E+03  0.23744891673E+03 -0.79998213358E+02  0.33460115047E+03  0.00000000000E+00 0.  1.
        -11    1    3    3    0    0 -0.68184879645E+03  0.56847141252E+03 -0.32576370662E+03  0.94562123528E+03  0.00000000000E+00 0. -1.
         22    1    1    2    0    0  0.90360593319E+03 -0.80592032925E+03  0.57084834337E+03  0.13386108810E+04  0.00000000000E+00 0. -1.
<mgrwt>
<rscale>  0 0.26136247E+04</rscale>
<asrwt>0</asrwt>
<pdfrwt beam="1">  1        1 0.21414767E+00 0.26136247E+04</pdfrwt>
<pdfrwt beam="2">  1       -1 0.18874976E+00 0.26136247E+04</pdfrwt>
<totfact> 0.12347232E+00</totfact>
</mgrwt>
</event>
<event>
 6    1  0.1072514E-005  0.2238527E+04  0.7818608E-02  0.8502562E-01
          2   -1    0    0  501    0  0.00000000000E+00  0.00000000000E+00  0.14536612033E+04  0.14536612033E+04  0.00000000000E+00 0. -1.
         -2   -1    0    0    0  501 -0.00000000000E+00 -0.00000000000E+00 -0.86178968321E+03  0.86178968321E+03  0.00000000000E+00 0.  1.
         23    2    1    2    0    0  0.15056755333E+03 -0.67645111592E+03 -0.61019290202E+03  0.92792950820E+03  0.91984206086E+02 0.  0.
         13    1    3    3    0    0  0.13754782502E+03 -0.42632261868E+03 -0.37196133225E+03  0.58225905923E+03  0.00000000000E+00 0.  1.
        -13    1    3    3    0    0  0.13019728311E+02 -0.25012849724E+03 -0.23823156977E+03  0.34567044897E+03  0.00000000000E+00 0. -1.
         22    1    1    2    0    0 -0.15056755333E+03  0.67645111592E+03  0.12020644221E+04  0.13875213783E+04  0.00000000000E+00 0. -1.
<mgrwt>
<rscale>  0 0.22385265E+04</rscale>
<asrwt>0</asrwt>
<pdfrwt beam="1">  1        2 0.22364019E+00 0.22385265E+04</pdfrwt>
<pdfrwt beam="2">  1       -2 0.13258303E+00 0.22385265E+04</pdfrwt>
<totfact> 0.50771607E+00</totfact>
</mgrwt>
</event>
<event>
 6    1  0.1072514E-005  0.2703924E+04  0.7818608E-02  0.8333733E-01
          2   -1    0    0  501    0  0.00000000000E+00  0.00000000000E+00  0.11465955671E+04  0.11465955671E+04  0.00000000000E+00 0. -1.
         -2   -1    0    0    0  501 -0.00000000000E+00 -0.00000000000E+00 -0.15941117090E+04  0.15941117090E+04  0.00000000000E+00 0.  1.
         23    2    1    2    0    0  0.52708248064E+03  0.90068554075E+02 -0.14809608588E+04  0.15771196048E+04  0.90182573501E+02 0.  0.
         13    1    3    3    0    0  0.16075699379E+03  0.36703641492E+02 -0.58230378050E+03  0.60520051317E+03  0.00000000000E+00 0.  1.
        -13    1    3    3    0    0  0.36632548685E+03  0.53364912583E+02 -0.89865707831E+03  0.97191909160E+03  0.00000000000E+00 0. -1.
         22    1    1    2    0    0 -0.52708248064E+03 -0.90068554075E+02  0.10334447169E+04  0.11635876713E+04  0.00000000000E+00 0. -1.
<mgrwt>
<rscale>  0 0.27039241E+04</rscale>
<asrwt>0</asrwt>
<pdfrwt beam="1">  1        2 0.17639932E+00 0.27039241E+04</pdfrwt>
<pdfrwt beam="2">  1       -2 0.24524795E+00 0.27039241E+04</pdfrwt>
<totfact> 0.12298234E+00</totfact>
</mgrwt>
</event>
<event>
 6    1  0.1072514E-005  0.6270355E+03  0.7818608E-02  0.9850851E-01
          2   -1    0    0  501    0  0.00000000000E+00  0.00000000000E+00  0.13004081950E+04  0.13004081950E+04  0.00000000000E+00 0. -1.
         -2   -1    0    0    0  501 -0.00000000000E+00 -0.00000000000E+00 -0.75586548355E+02  0.75586548355E+02  0.00000000000E+00 0.  1.
         23    2    1    2    0    0 -0.20096755629E+03 -0.20112909691E+02  0.11326137976E+04  0.11539704761E+04  0.89673616307E+02 0.  0.
         11    1    3    3    0    0 -0.82179813524E+02  0.35865172538E+02  0.45715314270E+03  0.46586352963E+03  0.00000000000E+00 0.  1.
        -11    1    3    3    0    0 -0.11878774276E+03 -0.55978082229E+02  0.67546065486E+03  0.68810694648E+03  0.00000000000E+00 0. -1.
         22    1    1    2    0    0  0.20096755629E+03  0.20112909691E+02  0.92207849070E+02  0.22202426725E+03  0.00000000000E+00 0.  1.
<mgrwt>
<rscale>  0 0.62703546E+03</rscale>
<asrwt>0</asrwt>
<pdfrwt beam="1">  1        2 0.20006278E+00 0.62703546E+03</pdfrwt>
<pdfrwt beam="2">  1       -2 0.11628701E-01 0.62703546E+03</pdfrwt>
<totfact> 0.89751563E+02</totfact>
</mgrwt>
</event>
<event>
 6    1  0.1072514E-005  0.2942403E+04  0.7818608E-02  0.8260372E-01
          1   -1    0    0  501    0  0.00000000000E+00  0.00000000000E+00  0.81103581328E+03  0.81103581328E+03  0.00000000000E+00 0. -1.
         -1   -1    0    0    0  501 -0.00000000000E+00 -0.00000000000E+00 -0.26687269576E+04  0.26687269576E+04  0.00000000000E+00 0.  1.
         23    2    1    2    0    0 -0.39483917178E+03  0.12873192244E+04 -0.23198076715E+03  0.13688333577E+04  0.82467738267E+02 0.  0.
         13    1    3    3    0    0 -0.24314353811E+03  0.72773625199E+03 -0.95446158423E+02  0.77319389660E+03  0.00000000000E+00 0.  1.
        -13    1    3    3    0    0 -0.15169563368E+03  0.55958297237E+03 -0.13653460872E+03  0.59563946110E+03  0.00000000000E+00 0. -1.
         22    1    1    2    0    0  0.39483917178E+03 -0.12873192244E+04 -0.16257103772E+04  0.21109294132E+04  0.00000000000E+00 0.  1.
<mgrwt>
<rscale>  0 0.29424025E+04</rscale>
<asrwt>0</asrwt>
<pdfrwt beam="1">  1        1 0.12477474E+00 0.29424025E+04</pdfrwt>
<pdfrwt beam="2">  1       -1 0.41057337E+00 0.29424025E+04</pdfrwt>
<totfact> 0.11189500E-01</totfact>
</mgrwt>
</event>
<event>
 6    1  0.1072514E-005  0.2016733E+04  0.7818608E-02  0.8598837E-01
         -1   -1    0    0    0  501 -0.00000000000E+00  0.00000000000E+00  0.96790780375E+03  0.96790780375E+03  0.00000000000E+00 0.  1.
          1   -1    0    0  501    0  0.00000000000E+00 -0.00000000000E+00 -0.10505168155E+04  0.10505168155E+04  0.00000000000E+00 0. -1.
         23    2    1    2    0    0 -0.11362901767E+03 -0.89307099787E+03 -0.49067773956E+03  0.10299877485E+04  0.98095652867E+02 0.  0.
         13    1    3    3    0    0 -0.38573304622E+02 -0.62953419605E+03 -0.32115971088E+03  0.70777451474E+03  0.00000000000E+00 0.  1.
        -13    1    3    3    0    0 -0.75055713053E+02 -0.26353680183E+03 -0.16951802869E+03  0.32221323379E+03  0.00000000000E+00 0. -1.
         22    1    1    2    0    0  0.11362901767E+03  0.89307099787E+03  0.40806872777E+03  0.98843687076E+03  0.00000000000E+00 0.  1.
<mgrwt>
<rscale>  0 0.20167334E+04</rscale>
<asrwt>0</asrwt>
<pdfrwt beam="1">  1        1 0.16161797E+00 0.20167334E+04</pdfrwt>
<pdfrwt beam="2">  1       -1 0.14890889E+00 0.20167334E+04</pdfrwt>
<totfact> 0.45578375E+00</totfact>
</mgrwt>
</event>
<event>
 6    1  0.1072514E-005  0.2776016E+04  0.7818608E-02  0.8310753E-01
          1   -1    0    0  501    0  0.00000000000E+00  0.00000000000E+00  0.15023761938E+04  0.15023761938E+04  0.00000000000E+00 0. -1.
         -1   -1    0    0    0  501 -0.00000000000E+00 -0.00000000000E+00 -0.12823457586E+04  0.12823457586E+04  0.00000000000E+00 0.  1.
         23    2    1    2    0    0 -0.40904135814E+03  0.64400266358E+03  0.12715086028E+04  0.14856220332E+04  0.91018871712E+02 0.  0.
         11    1    3    3    0    0 -0.15454958415E+03  0.16915738864E+03  0.35610710505E+03  0.42345255503E+03  0.00000000000E+00 0.  1.
        -11    1    3    3    0    0 -0.25449177399E+03  0.47484527494E+03  0.91540149777E+03  0.10621694781E+04  0.00000000000E+00 0. -1.
         22    1    1    2    0    0  0.40904135814E+03 -0.64400266358E+03 -0.10514781676E+04  0.12990999193E+04  0.00000000000E+00 0.  1.
<mgrwt>
<rscale>  0 0.27760157E+04</rscale>
<asrwt>0</asrwt>
<pdfrwt beam="1">  1        1 0.23113480E+00 0.27760157E+04</pdfrwt>
<pdfrwt beam="2">  1       -1 0.19728396E+00 0.27760157E+04</pdfrwt>
<totfact> 0.88854962E-01</totfact>
</mgrwt>
</event>
<event>
 6    1  0.1072514E-005  0.3040665E+04  0.7818608E-02  0.8232213E-01
         -1   -1    0    0    0  501 -0.00000000000E+00  0.00000000000E+00  0.15664032664E+04  0.15664032664E+04  0.00000000000E+00 0.  1.
          1   -1    0    0  501    0  0.00000000000E+00 -0.00000000000E+00 -0.14756172146E+04  0.14756172146E+04  0.00000000000E+00 0. -1.
         23    2    1    2    0    0  0.87937465140E+03  0.10985537877E+04  0.61762233752E+03  0.15394637686E+04  0.91493939799E+02 0.  0.
         13    1    3    3    0    0  0.85235843462E+03  0.10686986319E+04  0.61546250681E+03  0.14991416758E+04  0.00000000000E+00 0.  1.
        -13    1    3    3    0    0  0.27016216779E+02  0.29855155869E+02  0.21598307105E+01  0.40322092824E+02  0.00000000000E+00 0. -1.
         22    1    1    2    0    0 -0.87937465140E+03 -0.10985537877E+04 -0.52683628567E+03  0.15025567124E+04  0.00000000000E+00 0.  1.
<mgrwt>
<rscale>  0 0.30406655E+04</rscale>
<asrwt>0</asrwt>
<pdfrwt beam="1">  1        1 0.22701803E+00 0.30406655E+04</pdfrwt>
<pdfrwt beam="2">  1       -1 0.24098512E+00 0.30406655E+04</pdfrwt>
<totfact> 0.46078142E-01</totfact>
</mgrwt>
</event>
<event>
 6    1  0.1072514E-005  0.2291258E+04  0.7818608E-02  0.8481376E-01
         -1   -1    0    0    0  501 -0.00000000000E+00  0.00000000000E+00  0.95588286917E+03  0.95588286917E+03  0.00000000000E+00 0.  1.
          1   -1    0    0  501    0  0.00000000000E+00 -0.00000000000E+00 -0.13730403736E+04  0.13730403736E+04  0.00000000000E+00 0. -1.
         23    2    1    2    0    0 -0.57524281312E+03  0.20486937757E+03  0.77424480436E+03  0.99014946902E+03  0.89806447497E+02 0.  0.
         13    1    3    3    0    0 -0.22490293870E+03  0.12708883600E+03  0.32176944811E+03  0.41263601614E+03  0.00000000000E+00 0.  1.
        -13    1    3    3    0    0 -0.35033987441E+03  0.77780541568E+02  0.45247535624E+03  0.57751345288E+03  0.00000000000E+00 0. -1.
         22    1    1    2    0    0  0.57524281312E+03 -0.20486937757E+03 -0.11914023087E+04  0.13387737737E+04  0.00000000000E+00 0. -1.
<mgrwt>
<rscale>  0 0.22912580E+04</rscale>
<asrwt>0</asrwt>
<pdfrwt beam="1">  1        1 0.21123698E+00 0.22912580E+04</pdfrwt>
<pdfrwt beam="2">  1       -1 0.14705890E+00 0.22912580E+04</pdfrwt>
<totfact> 0.26718208E+00</totfact>
</mgrwt>
</event>
<event>
 6    1  0.1072514E-005  0.2468918E+04  0.7818608E-02  0.8414143E-01
          1   -1    0    0  501    0  0.00000000000E+00  0.00000000000E+00  0.18544077374E+04  0.18544077374E+04  0.00000000000E+00 0. -1.
         -1   -1    0    0    0  501 -0.00000000000E+00 -0.00000000000E+00 -0.82176597883E+03  0.82176597883E+03  0.00000000000E+00 0.  1.
         23    2    1    2    0    0  0.11046234564E+04  0.48480228176E+03  0.24251491398E+03  0.12341173154E+04  0.94899061119E+02 0.  0.
         13    1    3    3    0    0  0.59549560481E+03  0.20968445940E+03  0.12952741717E+03  0.64448424315E+03  0.00000000000E+00 0.  1.
        -13    1    3    3    0    0  0.50912785157E+03  0.27511782236E+03  0.11298749680E+03  0.58963307222E+03  0.00000000000E+00 0. -1.
         22    1    1    2    0    0 -0.11046234564E+04 -0.48480228176E+03  0.79012684465E+03  0.14420564009E+04  0.00000000000E+00 0. -1.
<mgrwt>
<rscale>  0 0.24689181E+04</rscale>
<asrwt>0</asrwt>
<pdfrwt beam="1">  1        1 0.28529350E+00 0.24689181E+04</pdfrwt>
<pdfrwt beam="2">  1       -1 0.12642554E+00 0.24689181E+04</pdfrwt>
<totfact> 0.18129201E+00</totfact>
</mgrwt>
</event>
<event>
 6    1  0.1072514E-005  0.1588093E+04  0.7818608E-02  0.8827897E-01
          2   -1    0    0  501    0  0.00000000000E+00  0.00000000000E+00  0.22456356870E+04  0.22456356870E+04  0.00000000000E+00 0. -1.
         -2   -1    0    0    0  501 -0.00000000000E+00 -0.00000000000E+00 -0.28077116420E+03  0.28077116420E+03  0.00000000000E+00 0.  1.
         23    2    1    2    0    0  0.42204673739E+03 -0.58181833003E+03  0.15128070617E+04  0.16772943935E+04  0.89973655861E+02 0.  0.
         11    1    3    3    0    0  0.18095795903E+03 -0.20919728285E+03  0.66803953140E+03  0.72303948827E+03  0.00000000000E+00 0.  1.
        -11    1    3    3    0    0  0.24108877836E+03 -0.37262104717E+03  0.84476753030E+03  0.95425490520E+03  0.00000000000E+00 0. -1.
         22    1    1    2    0    0 -0.42204673739E+03  0.58181833003E+03  0.45205746107E+03  0.84911245770E+03  0.00000000000E+00 0.  1.
<mgrwt>
<rscale>  0 0.15880929E+04</rscale>
<asrwt>0</asrwt>
<pdfrwt beam="1">  1        2 0.34548240E+00 0.15880929E+04</pdfrwt>
<pdfrwt beam="2">  1       -2 0.43195565E-01 0.15880929E+04</pdfrwt>
<totfact> 0.23759856E+01</totfact>
</mgrwt>
</event>
<event>
 6    1  0.1072514E-005  0.4350584E+03  0.7818608E-02  0.1032274E+00
         -1   -1    0    0    0  501 -0.00000000000E+00  0.00000000000E+00  0.99985263285E+02  0.99985263285E+02  0.00000000000E+00 0.  1.
          1   -1    0    0  501    0  0.00000000000E+00 -0.00000000000E+00 -0.47325934823E+03  0.47325934823E+03  0.00000000000E+00 0. -1.
         23    2    1    2    0    0 -0.35033135314E+02 -0.20493713219E+03 -0.19309076514E+03  0.29812177085E+03  0.91465829420E+02 0.  0.
         11    1    3    3    0    0  0.17973032387E+02 -0.10934358501E+03 -0.13394473532E+03  0.17383970086E+03  0.00000000000E+00 0. -1.
        -11    1    3    3    0    0 -0.53006167702E+02 -0.95593547177E+02 -0.59146029820E+02  0.12428206998E+03  0.00000000000E+00 0.  1.
         22    1    1    2    0    0  0.35033135314E+02  0.20493713219E+03 -0.18018331981E+03  0.27512284067E+03  0.00000000000E+00 0. -1.
<mgrwt>
<rscale>  0 0.43505844E+03</rscale>
<asrwt>0</asrwt>
<pdfrwt beam="1">  1        1 0.72809132E-01 0.43505844E+03</pdfrwt>
<pdfrwt beam="2">  1       -1 0.15382348E-01 0.43505844E+03</pdfrwt>
<totfact> 0.15059004E+03</totfact>
</mgrwt>
</event>
<event>
 6    1  0.1072514E-005  0.3946034E+04  0.7818608E-02  0.8015522E-01
          2   -1    0    0  501    0  0.00000000000E+00  0.00000000000E+00  0.37793148251E+04  0.37793148251E+04  0.00000000000E+00 0.  1.
         -2   -1    0    0    0  501 -0.00000000000E+00 -0.00000000000E+00 -0.10300271656E+04  0.10300271656E+04  0.00000000000E+00 0. -1.
         23    2    1    2    0    0  0.44248281436E+03 -0.17819904518E+04  0.49888555705E+03  0.19049331638E+04  0.92749923275E+02 0.  0.
         11    1    3    3    0    0  0.29061314080E+03 -0.11349646867E+04  0.27281015342E+03  0.12029240281E+04  0.00000000000E+00 0. -1.
        -11    1    3    3    0    0  0.15186967355E+03 -0.64702576510E+03  0.22607540364E+03  0.70200913568E+03  0.00000000000E+00 0.  1.
         22    1    1    2    0    0 -0.44248281436E+03  0.17819904518E+04  0.22504021025E+04  0.29044088269E+04  0.00000000000E+00 0.  1.
<mgrwt>
<rscale>  0 0.39460344E+04</rscale>
<asrwt>0</asrwt>
<pdfrwt beam="1">  1        2 0.58143304E+00 0.39460344E+04</pdfrwt>
<pdfrwt beam="2">  1       -2 0.15846572E+00 0.39460344E+04</pdfrwt>
<totfact> 0.10403970E-01</totfact>
</mgrwt>
</event>
<event>
 6    1  0.1072514E-005  0.2808923E+04  0.7818608E-02  0.8300503E-01
         -1   -1    0    0    0  501 -0.00000000000E+00  0.00000000000E+00  0.18354066029E+04  0.18354066029E+04  0.00000000000E+00 0.  1.
          1   -1    0    0  501    0  0.00000000000E+00 -0.00000000000E+00 -0.10747003169E+04  0.10747003169E+04  0.00000000000E+00 0. -1.
         23    2    1    2    0    0 -0.57779744914E+03  0.76458472422E+03 -0.67964386768E+03  0.11800640713E+04  0.11043429119E+03 0.  0.
         11    1    3    3    0    0 -0.16531985785E+03  0.27799995686E+03 -0.27598101475E+03  0.42518249248E+03  0.00000000000E+00 0. -1.
        -11    1    3    3    0    0 -0.41247759129E+03  0.48658476736E+03 -0.40366285294E+03  0.75488157878E+03  0.00000000000E+00 0.  1.
         22    1    1    2    0    0  0.57779744914E+03 -0.76458472422E+03  0.14403501537E+04  0.17300428486E+04  0.00000000000E+00 0.  1.
<mgrwt>
<rscale>  0 0.28089230E+04</rscale>
<asrwt>0</asrwt>
<pdfrwt beam="1">  1        1 0.16533851E+00 0.28089230E+04</pdfrwt>
<pdfrwt beam="2">  1       -1 0.28237025E+00 0.28089230E+04</pdfrwt>
<totfact> 0.49242578E-01</totfact>
</mgrwt>
</event>
<event>
 6    1  0.1072514E-005  0.2080793E+04  0.7818608E-02  0.8569752E-01
          1   -1    0    0  501    0  0.00000000000E+00  0.00000000000E+00  0.13564039435E+04  0.13564039435E+04  0.00000000000E+00 0. -1.
         -1   -1    0    0    0  501 -0.00000000000E+00 -0.00000000000E+00 -0.79801103715E+03  0.79801103715E+03  0.00000000000E+00 0.  1.
         23    2    1    2    0    0  0.37692023360E+02 -0.55405785249E+03 -0.62619527161E+03  0.84611457787E+03  0.12405066771E+03 0.  0.
         13    1    3    3    0    0 -0.35804976760E+02 -0.21134222599E+03 -0.28832708733E+03  0.35927711051E+03  0.00000000000E+00 0. -1.
        -13    1    3    3    0    0  0.73497000119E+02 -0.34271562650E+03 -0.33786818428E+03  0.48683746736E+03  0.00000000000E+00 0.  1.
         22    1    1    2    0    0 -0.37692023360E+02  0.55405785249E+03  0.11845881779E+04  0.13083004027E+04  0.00000000000E+00 0. -1.
<mgrwt>
<rscale>  0 0.20807934E+04</rscale>
<asrwt>0</asrwt>
<pdfrwt beam="1">  1        1 0.20867753E+00 0.20807934E+04</pdfrwt>
<pdfrwt beam="2">  1       -1 0.12277093E+00 0.20807934E+04</pdfrwt>
<totfact> 0.44460622E+00</totfact>
</mgrwt>
</event>
<event>
 6    1  0.1787535E-005  0.3294255E+04  0.7818608E-02  0.8164359E-01
         -1   -1    0    0    0  501 -0.00000000000E+00  0.00000000000E+00  0.24440655275E+04  0.24440655275E+04  0.00000000000E+00 0.  1.
          1   -1    0    0  501    0  0.00000000000E+00 -0.00000000000E+00 -0.11100474436E+04  0.11100474436E+04  0.00000000000E+00 0. -1.
         23    2    1    2    0    0  0.10336378406E+04  0.80280767205E+03 -0.40919518012E+03  0.13742735670E+04  0.90993394075E+02 0.  0.
         11    1    3    3    0    0  0.36373828421E+03  0.31105184613E+03 -0.18910066619E+03  0.51460455918E+03  0.00000000000E+00 0. -1.
        -11    1    3    3    0    0  0.66989955637E+03  0.49175582592E+03 -0.22009451393E+03  0.85966900782E+03  0.00000000000E+00 0.  1.
         22    1    1    2    0    0 -0.10336378406E+04 -0.80280767205E+03  0.17432132640E+04  0.21798394041E+04  0.00000000000E+00 0.  1.
<mgrwt>
<rscale>  0 0.32942548E+04</rscale>
<asrwt>0</asrwt>
<pdfrwt beam="1">  1        1 0.17077653E+00 0.32942548E+04</pdfrwt>
<pdfrwt beam="2">  1       -1 0.37601008E+00 0.32942548E+04</pdfrwt>
<totfact> 0.10759235E-01</totfact>
</mgrwt>
</event>
<event>
 6    1  0.1072514E-005  0.9197073E+03  0.7818608E-02  0.9401276E-01
         -1   -1    0    0    0  501 -0.00000000000E+00  0.00000000000E+00  0.30488489679E+03  0.30488489679E+03  0.00000000000E+00 0.  1.
          1   -1    0    0  501    0  0.00000000000E+00 -0.00000000000E+00 -0.69359085792E+03  0.69359085792E+03  0.00000000000E+00 0. -1.
         23    2    1    2    0    0 -0.15308464659E+03  0.32624212887E+03 -0.49842492758E+03  0.62177018366E+03  0.91114857114E+02 0.  0.
         11    1    3    3    0    0 -0.64677937960E+02  0.19201876738E+03 -0.21147775002E+03  0.29287758780E+03  0.00000000000E+00 0.  1.
        -11    1    3    3    0    0 -0.88406708629E+02  0.13422336149E+03 -0.28694717756E+03  0.32889259585E+03  0.00000000000E+00 0. -1.
         22    1    1    2    0    0  0.15308464659E+03 -0.32624212887E+03  0.10971896644E+03  0.37670557106E+03  0.00000000000E+00 0.  1.
<mgrwt>
<rscale>  0 0.91970730E+03</rscale>
<asrwt>0</asrwt>
<pdfrwt beam="1">  1        1 0.10670628E+00 0.91970730E+03</pdfrwt>
<pdfrwt beam="2">  1       -1 0.46905369E-01 0.91970730E+03</pdfrwt>
<totfact> 0.12596892E+02</totfact>
</mgrwt>
</event>
<event>
 6    1  0.1072514E-005  0.4633449E+03  0.7818608E-02  0.1023816E+00
          2   -1    0    0  501    0  0.00000000000E+00  0.00000000000E+00  0.43407981072E+03  0.43407981072E+03  0.00000000000E+00 0. -1.
         -2   -1    0    0    0  501 -0.00000000000E+00 -0.00000000000E+00 -0.12364576073E+03  0.12364576073E+03  0.00000000000E+00 0.  1.
         23    2    1    2    0    0  0.19441995117E+03  0.31029655725E+02  0.35614448934E+02  0.21966082902E+03  0.90667159887E+02 0.  0.
         13    1    3    3    0    0  0.16135953874E+03 -0.77586689743E+01  0.45312159828E+02  0.16778048013E+03  0.00000000000E+00 0.  1.
        -13    1    3    3    0    0  0.33060412436E+02  0.38788324699E+02 -0.96977108939E+01  0.51880348881E+02  0.00000000000E+00 0. -1.
         22    1    1    2    0    0 -0.19441995117E+03 -0.31029655725E+02  0.27481960106E+03  0.33806474244E+03  0.00000000000E+00 0. -1.
<mgrwt>
<rscale>  0 0.46334492E+03</rscale>
<asrwt>0</asrwt>
<pdfrwt beam="1">  1        2 0.66781508E-01 0.46334492E+03</pdfrwt>
<pdfrwt beam="2">  1       -2 0.19022425E-01 0.46334492E+03</pdfrwt>
<totfact> 0.16815883E+03</totfact>
</mgrwt>
</event>
<event>
 6    1  0.1072514E-005  0.1883257E+04  0.7818608E-02  0.8663235E-01
         -2   -1    0    0    0  501 -0.00000000000E+00  0.00000000000E+00  0.17009597243E+04  0.17009597243E+04  0.00000000000E+00 0. -1.
          2   -1    0    0  501    0  0.00000000000E+00 -0.00000000000E+00 -0.52127309988E+03  0.52127309988E+03  0.00000000000E+00 0.  1.
         23    2    1    2    0    0 -0.63423346968E+03  0.31265631841E+02 -0.22593900724E+03  0.67982786757E+03  0.88813629180E+02 0.  0.
         13    1    3    3    0    0 -0.44671021044E+03  0.21379740398E+02 -0.20129042604E+03  0.49043342161E+03  0.00000000000E+00 0. -1.
        -13    1    3    3    0    0 -0.18752325924E+03  0.98858914434E+01 -0.24648581201E+02  0.18939444596E+03  0.00000000000E+00 0.  1.
         22    1    1    2    0    0  0.63423346968E+03 -0.31265631841E+02  0.14056256317E+04  0.15424049566E+04  0.00000000000E+00 0. -1.
<mgrwt>
<rscale>  0 0.18832573E+04</rscale>
<asrwt>0</asrwt>
<pdfrwt beam="1">  1        2 0.80195862E-01 0.18832573E+04</pdfrwt>
<pdfrwt beam="2">  1       -2 0.26168611E+00 0.18832573E+04</pdfrwt>
<totfact> 0.29972467E+00</totfact>
</mgrwt>
</event>
<event>
 6    1  0.1072514E-005  0.3326138E+04  0.7818608E-02  0.8156276E-01
         -1   -1    0    0    0  501 -0.00000000000E+00  0.00000000000E+00  0.12372806814E+04  0.12372806814E+04  0.00000000000E+00 0.  1.
          1   -1    0    0  501    0  0.00000000000E+00 -0.00000000000E+00 -0.22353851829E+04  0.22353851829E+04  0.00000000000E+00 0. -1.
         23    2    1    2    0    0 -0.39564900998E+03 -0.15146237120E+04 -0.10819617080E+04  0.19049748364E+04  0.87549194578E+02 0.  0.
         13    1    3    3    0    0 -0.13079792230E+03 -0.48139242637E+03 -0.29615432604E+03  0.58013287226E+03  0.00000000000E+00 0. -1.
        -13    1    3    3    0    0 -0.26485108769E+03 -0.10332312856E+04 -0.78580738200E+03  0.13248419641E+04  0.00000000000E+00 0.  1.
         22    1    1    2    0    0  0.39564900998E+03  0.15146237120E+04  0.83857206547E+02  0.15676910280E+04  0.00000000000E+00 0.  1.
<mgrwt>
<rscale>  0 0.33261382E+04</rscale>
<asrwt>0</asrwt>
<pdfrwt beam="1">  1        1 0.34390541E+00 0.33261382E+04</pdfrwt>
<pdfrwt beam="2">  1       -1 0.19035088E+00 0.33261382E+04</pdfrwt>
<totfact> 0.29969833E-01</totfact>
</mgrwt>
</event>
<event>
 6    1  0.1072514E-005  0.2193581E+04  0.7818608E-02  0.8521105E-01
         -3   -1    0    0    0  501 -0.00000000000E+00  0.00000000000E+00  0.31988215140E+03  0.31988215140E+03  0.00000000000E+00 0.  1.
          3   -1    0    0  501    0  0.00000000000E+00 -0.00000000000E+00 -0.37606023916E+04  0.37606023916E+04  0.00000000000E+00 0. -1.
         23    2    1    2    0    0 -0.10419834800E+04 -0.30544153597E+03 -0.19861033035E+04  0.22652890888E+04  0.88905675884E+02 0.  0.
         11    1    3    3    0    0 -0.77323742312E+03 -0.26326719939E+03 -0.14567926990E+04  0.16701648717E+04  0.00000000000E+00 0. -1.
        -11    1    3    3    0    0 -0.26874605686E+03 -0.42174336579E+02 -0.52931060452E+03  0.59512421712E+03  0.00000000000E+00 0.  1.
         22    1    1    2    0    0  0.10419834800E+04  0.30544153597E+03 -0.14546169367E+04  0.18151954542E+04  0.00000000000E+00 0.  1.
<mgrwt>
<rscale>  0 0.21935812E+04</rscale>
<asrwt>0</asrwt>
<pdfrwt beam="1">  1        3 0.57855421E+00 0.21935812E+04</pdfrwt>
<pdfrwt beam="2">  1       -3 0.49212639E-01 0.21935812E+04</pdfrwt>
<totfact> 0.14085897E-02</totfact>
</mgrwt>
</event>
<event>
 6    1  0.1072514E-005  0.3429261E+04  0.7818608E-02  0.8130762E-01
          2   -1    0    0  501    0  0.00000000000E+00  0.00000000000E+00  0.21752365102E+04  0.21752365102E+04  0.00000000000E+00 0. -1.
         -2   -1    0    0    0  501 -0.00000000000E+00 -0.00000000000E+00 -0.13515574328E+04  0.13515574328E+04  0.00000000000E+00 0.  1.
         23    2    1    2    0    0  0.12627215455E+04  0.11411358273E+04  0.20857882095E+03  0.17170964536E+04  0.90875896701E+02 0.  0.
         11    1    3    3    0    0  0.91267873830E+03  0.80439453815E+03  0.18739215476E+03  0.12309138361E+04  0.00000000000E+00 0. -1.
        -11    1    3    3    0    0  0.35004280721E+03  0.33674128916E+03  0.21186666196E+02  0.48618261747E+03  0.00000000000E+00 0.  1.
         22    1    1    2    0    0 -0.12627215455E+04 -0.11411358273E+04  0.61510025645E+03  0.18096974895E+04  0.00000000000E+00 0. -1.
<mgrwt>
<rscale>  0 0.34292606E+04</rscale>
<asrwt>0</asrwt>
<pdfrwt beam="1">  1        2 0.33465177E+00 0.34292606E+04</pdfrwt>
<pdfrwt beam="2">  1       -2 0.20793191E+00 0.34292606E+04</pdfrwt>
<totfact> 0.52037143E-01</totfact>
</mgrwt>
</event>
<event>
 6    1  0.1072514E-005  0.3934528E+04  0.7818608E-02  0.8017886E-01
          1   -1    0    0  501    0  0.00000000000E+00  0.00000000000E+00  0.35553219704E+04  0.35553219704E+04  0.00000000000E+00 0. -1.
         -1   -1    0    0    0  501 -0.00000000000E+00 -0.00000000000E+00 -0.10885448589E+04  0.10885448589E+04  0.00000000000E+00 0.  1.
         23    2    1    2    0    0 -0.99957130216E+03 -0.11959464652E+04 -0.18057150897E+03  0.15717526625E+04  0.91485662415E+02 0.  0.
         11    1    3    3    0    0 -0.83022416777E+03 -0.95971262450E+03 -0.11823291995E+03  0.12744800955E+04  0.00000000000E+00 0. -1.
        -11    1    3    3    0    0 -0.16934713439E+03 -0.23623384069E+03 -0.62338589021E+02  0.29727256701E+03  0.00000000000E+00 0.  1.
         22    1    1    2    0    0  0.99957130216E+03  0.11959464652E+04  0.26473486204E+04  0.30721141668E+04  0.00000000000E+00 0. -1.
<mgrwt>
<rscale>  0 0.39345279E+04</rscale>
<asrwt>0</asrwt>
<pdfrwt beam="1">  1        1 0.54697261E+00 0.39345279E+04</pdfrwt>
<pdfrwt beam="2">  1       -1 0.16746844E+00 0.39345279E+04</pdfrwt>
<totfact> 0.45577584E-02</totfact>
</mgrwt>
</event>
<event>
 6    1  0.1072514E-005  0.3663662E+04  0.7818608E-02  0.8076063E-01
          1   -1    0    0  501    0  0.00000000000E+00  0.00000000000E+00  0.40770592784E+04  0.40770592784E+04  0.00000000000E+00 0. -1.
         -1   -1    0    0    0  501 -0.00000000000E+00 -0.00000000000E+00 -0.82304522510E+03  0.82304522510E+03  0.00000000000E+00 0.  1.
         23    2    1    2    0    0 -0.41431259364E+03  0.17543749610E+04  0.20554390547E+04  0.27353716201E+04  0.89116571993E+02 0.  0.
         13    1    3    3    0    0 -0.29456597930E+03  0.12157199501E+04  0.14866093210E+04  0.19428719429E+04  0.00000000000E+00 0.  1.
        -13    1    3    3    0    0 -0.11974661434E+03  0.53865501090E+03  0.56882973375E+03  0.79249967723E+03  0.00000000000E+00 0. -1.
         22    1    1    2    0    0  0.41431259364E+03 -0.17543749610E+04  0.11985749985E+04  0.21647328833E+04  0.00000000000E+00 0.  1.
<mgrwt>
<rscale>  0 0.36636617E+04</rscale>
<asrwt>0</asrwt>
<pdfrwt beam="1">  1        1 0.62723988E+00 0.36636617E+04</pdfrwt>
<pdfrwt beam="2">  1       -1 0.12662234E+00 0.36636617E+04</pdfrwt>
<totfact> 0.35622796E-02</totfact>
</mgrwt>
</event>
<event>
 6    1  0.1072514E-005  0.1790089E+04  0.7818608E-02  0.8711588E-01
          2   -1    0    0  501    0  0.00000000000E+00  0.00000000000E+00  0.22347021694E+04  0.22347021694E+04  0.00000000000E+00 0. -1.
         -2   -1    0    0    0  501 -0.00000000000E+00 -0.00000000000E+00 -0.35848369469E+03  0.35848369469E+03  0.00000000000E+00 0.  1.
         23    2    1    2    0    0  0.21115008358E+03  0.66185827793E+03  0.12900193996E+03  0.71291823495E+03  0.94710988534E+02 0.  0.
         11    1    3    3    0    0  0.20323636086E+03  0.51185691730E+03  0.94163556500E+02  0.55872112680E+03  0.00000000000E+00 0.  1.
        -11    1    3    3    0    0  0.79137227158E+01  0.15000136063E+03  0.34838383457E+02  0.15419710814E+03  0.00000000000E+00 0. -1.
         22    1    1    2    0    0 -0.21115008358E+03 -0.66185827793E+03  0.17472165347E+04  0.18802676291E+04  0.00000000000E+00 0.  1.
<mgrwt>
<rscale>  0 0.17900886E+04</rscale>
<asrwt>0</asrwt>
<pdfrwt beam="1">  1        2 0.34380033E+00 0.17900886E+04</pdfrwt>
<pdfrwt beam="2">  1       -2 0.55151339E-01 0.17900886E+04</pdfrwt>
<totfact> 0.14423056E+01</totfact>
</mgrwt>
</event>
<event>
 6    1  0.1203286E-005  0.2642232E+04  0.7818608E-02  0.8353996E-01
          2   -1    0    0  501    0  0.00000000000E+00  0.00000000000E+00  0.16676485758E+04  0.16676485758E+04  0.00000000000E+00 0. -1.
         -2   -1    0    0    0  501 -0.00000000000E+00 -0.00000000000E+00 -0.10465917930E+04  0.10465917930E+04  0.00000000000E+00 0.  1.
         23    2    1    2    0    0  0.38695323730E+03 -0.12600912023E+04  0.24843432217E+03  0.13444191601E+04  0.90446778566E+02 0.  0.
         11    1    3    3    0    0  0.13368585409E+03 -0.39374298566E+03  0.37617066572E+02  0.41751705359E+03  0.00000000000E+00 0.  1.
        -11    1    3    3    0    0  0.25326738321E+03 -0.86634821660E+03  0.21081725560E+03  0.92690210651E+03  0.00000000000E+00 0. -1.
         22    1    1    2    0    0 -0.38695323730E+03  0.12600912023E+04  0.37262246063E+03  0.13698212088E+04  0.00000000000E+00 0. -1.
<mgrwt>
<rscale>  0 0.26422319E+04</rscale>
<asrwt>0</asrwt>
<pdfrwt beam="1">  1        2 0.25656132E+00 0.26422319E+04</pdfrwt>
<pdfrwt beam="2">  1       -2 0.16101412E+00 0.26422319E+04</pdfrwt>
<totfact> 0.22313491E+00</totfact>
</mgrwt>
</event>
<event>
 6    1  0.1072514E-005  0.1814432E+04  0.7818608E-02  0.8698662E-01
         -1   -1    0    0    0  501 -0.00000000000E+00  0.00000000000E+00  0.58898555535E+03  0.58898555535E+03  0.00000000000E+00 0.  1.
          1   -1    0    0  501    0  0.00000000000E+00 -0.00000000000E+00 -0.13973869479E+04  0.13973869479E+04  0.00000000000E+00 0. -1.
         23    2    1    2    0    0  0.72208245971E+02  0.83345218322E+03 -0.27491246131E+02  0.84196120076E+03  0.91029239596E+02 0.  0.
         11    1    3    3    0    0  0.62002054309E+02  0.37389377178E+03 -0.46835217344E+02  0.38188263235E+03  0.00000000000E+00 0. -1.
        -11    1    3    3    0    0  0.10206191662E+02  0.45955841145E+03  0.19343971213E+02  0.46007856840E+03  0.00000000000E+00 0.  1.
         22    1    1    2    0    0 -0.72208245971E+02 -0.83345218322E+03 -0.78091014644E+03  0.11444113025E+04  0.00000000000E+00 0.  1.
<mgrwt>
<rscale>  0 0.18144318E+04</rscale>
<asrwt>0</asrwt>
<pdfrwt beam="1">  1        1 0.21498260E+00 0.18144318E+04</pdfrwt>
<pdfrwt beam="2">  1       -1 0.90613164E-01 0.18144318E+04</pdfrwt>
<totfact> 0.86524643E+00</totfact>
</mgrwt>
</event>
<event>
 6    1  0.1072514E-005  0.4537668E+04  0.7818608E-02  0.7904075E-01
          1   -1    0    0  501    0  0.00000000000E+00  0.00000000000E+00  0.30284734847E+04  0.30284734847E+04  0.00000000000E+00 0. -1.
         -1   -1    0    0    0  501 -0.00000000000E+00 -0.00000000000E+00 -0.16997371270E+04  0.16997371270E+04  0.00000000000E+00 0.  1.
         23    2    1    2    0    0 -0.42527833283E+03 -0.11915773118E+04  0.26258749462E+04  0.29162264318E+04  0.91865214757E+02 0.  0.
         11    1    3    3    0    0 -0.31295984380E+03 -0.76115940052E+03  0.17505851736E+04  0.19343877447E+04  0.00000000000E+00 0.  1.
        -11    1    3    3    0    0 -0.11231848904E+03 -0.43041791129E+03  0.87528977263E+03  0.98183868706E+03  0.00000000000E+00 0. -1.
         22    1    1    2    0    0  0.42527833283E+03  0.11915773118E+04 -0.12971385885E+04  0.18119841799E+04  0.00000000000E+00 0.  1.
<mgrwt>
<rscale>  0 0.45376685E+04</rscale>
<asrwt>0</asrwt>
<pdfrwt beam="1">  1        1 0.46591900E+00 0.45376685E+04</pdfrwt>
<pdfrwt beam="2">  1       -1 0.26149802E+00 0.45376685E+04</pdfrwt>
<totfact> 0.25034849E-02</totfact>
</mgrwt>
</event>
<event>
 6    1  0.1072514E-005  0.7962251E+03  0.7818608E-02  0.9565497E-01
          1   -1    0    0  501    0  0.00000000000E+00  0.00000000000E+00  0.29996723616E+03  0.29996723616E+03  0.00000000000E+00 0. -1.
         -1   -1    0    0    0  501 -0.00000000000E+00 -0.00000000000E+00 -0.52836971498E+03  0.52836971498E+03  0.00000000000E+00 0.  1.
         23    2    1    2    0    0 -0.17721664432E+03  0.23495226142E+03 -0.38700391622E+03  0.49402763312E+03  0.87652535291E+02 0.  0.
         11    1    3    3    0    0 -0.15251015118E+03  0.17748290222E+03 -0.24470212115E+03  0.33858330569E+03  0.00000000000E+00 0.  1.
        -11    1    3    3    0    0 -0.24706493137E+02  0.57469359196E+02 -0.14230179507E+03  0.15544432743E+03  0.00000000000E+00 0. -1.
         22    1    1    2    0    0  0.17721664432E+03 -0.23495226142E+03  0.15860143741E+03  0.33430931802E+03  0.00000000000E+00 0. -1.
<mgrwt>
<rscale>  0 0.79622510E+03</rscale>
<asrwt>0</asrwt>
<pdfrwt beam="1">  1        1 0.46148806E-01 0.79622510E+03</pdfrwt>
<pdfrwt beam="2">  1       -1 0.81287648E-01 0.79622510E+03</pdfrwt>
<totfact> 0.13386817E+02</totfact>
</mgrwt>
</event>
<event>
 6    1  0.1072514E-005  0.1687767E+04  0.7818608E-02  0.8768372E-01
         -1   -1    0    0    0  501 -0.00000000000E+00  0.00000000000E+00  0.35783122446E+03  0.35783122446E+03  0.00000000000E+00 0.  1.
          1   -1    0    0  501    0  0.00000000000E+00 -0.00000000000E+00 -0.19901537066E+04  0.19901537066E+04  0.00000000000E+00 0. -1.
         23    2    1    2    0    0 -0.53135746177E+03 -0.65223825981E+03 -0.83949030140E+03  0.11919839075E+04  0.91247848057E+02 0.  0.
         11    1    3    3    0    0 -0.46184070659E+03 -0.51136801722E+03 -0.67746490020E+03  0.96630884209E+03  0.00000000000E+00 0.  1.
        -11    1    3    3    0    0 -0.69516755180E+02 -0.14087024259E+03 -0.16202540120E+03  0.22567506538E+03  0.00000000000E+00 0. -1.
         22    1    1    2    0    0  0.53135746177E+03  0.65223825981E+03 -0.79283218077E+03  0.11560010236E+04  0.00000000000E+00 0.  1.
<mgrwt>
<rscale>  0 0.16877667E+04</rscale>
<asrwt>0</asrwt>
<pdfrwt beam="1">  1        1 0.30617749E+00 0.16877667E+04</pdfrwt>
<pdfrwt beam="2">  1       -1 0.55050959E-01 0.16877667E+04</pdfrwt>
<totfact> 0.96167199E+00</totfact>
</mgrwt>
</event>
<event>
 6    1  0.1072514E-005  0.9865040E+03  0.7818608E-02  0.9323472E-01
          1   -1    0    0  501    0  0.00000000000E+00  0.00000000000E+00  0.25093992139E+04  0.25093992139E+04  0.00000000000E+00 0. -1.
         -1   -1    0    0    0  501 -0.00000000000E+00 -0.00000000000E+00 -0.96954487170E+02  0.96954487170E+02  0.00000000000E+00 0.  1.
         23    2    1    2    0    0  0.32934589328E+03  0.25253357203E+03  0.19002835439E+04  0.19471488774E+04  0.89829176120E+02 0.  0.
         13    1    3    3    0    0  0.28164560946E+03  0.17881134843E+03  0.15934099105E+04  0.16279597324E+04  0.00000000000E+00 0. -1.
        -13    1    3    3    0    0  0.47700283820E+02  0.73722223591E+02  0.30687363347E+03  0.31918914494E+03  0.00000000000E+00 0.  1.
         22    1    1    2    0    0 -0.32934589328E+03 -0.25253357203E+03  0.51216118277E+03  0.65920482368E+03  0.00000000000E+00 0.  1.
<mgrwt>
<rscale>  0 0.98650396E+03</rscale>
<asrwt>0</asrwt>
<pdfrwt beam="1">  1        1 0.38606137E+00 0.98650396E+03</pdfrwt>
<pdfrwt beam="2">  1       -1 0.14916077E-01 0.98650396E+03</pdfrwt>
<totfact> 0.45067512E+01</totfact>
</mgrwt>
</event>
<event>
 6    1  0.1085729E-005  0.2409895E+04  0.7818608E-02  0.8435808E-01
         -1   -1    0    0    0  501 -0.00000000000E+00  0.00000000000E+00  0.13389677076E+04  0.13389677076E+04  0.00000000000E+00 0. -1.
          1   -1    0    0  501    0  0.00000000000E+00 -0.00000000000E+00 -0.10843414066E+04  0.10843414066E+04  0.00000000000E+00 0.  1.
         23    2    1    2    0    0  0.36097932369E+03 -0.68128873251E+03  0.10563592441E+04  0.13109979521E+04  0.91435051787E+02 0.  0.
         11    1    3    3    0    0  0.15429010634E+03 -0.29935270099E+03  0.53862228872E+03  0.63524125056E+03  0.00000000000E+00 0.  1.
        -11    1    3    3    0    0  0.20668921735E+03 -0.38193603151E+03  0.51773695536E+03  0.67575670155E+03  0.00000000000E+00 0. -1.
         22    1    1    2    0    0 -0.36097932369E+03  0.68128873251E+03 -0.80173294306E+03  0.11123111620E+04  0.00000000000E+00 0.  1.
<mgrwt>
<rscale>  0 0.24098947E+04</rscale>
<asrwt>0</asrwt>
<pdfrwt beam="1">  1        1 0.16682175E+00 0.24098947E+04</pdfrwt>
<pdfrwt beam="2">  1       -1 0.20599503E+00 0.24098947E+04</pdfrwt>
<totfact> 0.15969225E+00</totfact>
</mgrwt>
</event>
<event>
 6    1  0.1072514E-005  0.2518397E+04  0.7818608E-02  0.8396461E-01
          2   -1    0    0  501    0  0.00000000000E+00  0.00000000000E+00  0.62363603230E+03  0.62363603230E+03  0.00000000000E+00 0. -1.
         -2   -1    0    0    0  501 -0.00000000000E+00 -0.00000000000E+00 -0.25424769707E+04  0.25424769707E+04  0.00000000000E+00 0.  1.
         23    2    1    2    0    0  0.90596918427E+01 -0.10272749333E+04 -0.18724921105E+04  0.21377531046E+04  0.91573828026E+02 0.  0.
         11    1    3    3    0    0 -0.98923343306E+01 -0.19145556395E+02 -0.24905092330E+02  0.32934392846E+02  0.00000000000E+00 0. -1.
        -11    1    3    3    0    0  0.18952026173E+02 -0.10081293769E+04 -0.18475870181E+04  0.21048187118E+04  0.00000000000E+00 0.  1.
         22    1    1    2    0    0 -0.90596918427E+01  0.10272749333E+04 -0.46348827901E+02  0.10283598983E+04  0.00000000000E+00 0. -1.
<mgrwt>
<rscale>  0 0.25183965E+04</rscale>
<asrwt>0</asrwt>
<pdfrwt beam="1">  1        2 0.95944005E-01 0.25183965E+04</pdfrwt>
<pdfrwt beam="2">  1       -2 0.39115030E+00 0.25183965E+04</pdfrwt>
<totfact> 0.35734431E-01</totfact>
</mgrwt>
</event>
<event>
 6    1  0.1072514E-005  0.1200678E+04  0.7818608E-02  0.9112264E-01
         -2   -1    0    0    0  501 -0.00000000000E+00  0.00000000000E+00  0.30485465346E+03  0.30485465346E+03  0.00000000000E+00 0.  1.
          2   -1    0    0  501    0  0.00000000000E+00 -0.00000000000E+00 -0.11822244785E+04  0.11822244785E+04  0.00000000000E+00 0. -1.
         23    2    1    2    0    0  0.18366141015E+03 -0.55603130180E+03 -0.30860364149E+03  0.67074752429E+03  0.10846064555E+03 0.  0.
         11    1    3    3    0    0  0.73827804178E+02 -0.13979105443E+03 -0.39079969187E+02  0.16284755927E+03  0.00000000000E+00 0.  1.
        -11    1    3    3    0    0  0.10983360598E+03 -0.41624024737E+03 -0.26952367230E+03  0.50789996501E+03  0.00000000000E+00 0. -1.
         22    1    1    2    0    0 -0.18366141015E+03  0.55603130180E+03 -0.56876618359E+03  0.81633160772E+03  0.00000000000E+00 0.  1.
<mgrwt>
<rscale>  0 0.12006775E+04</rscale>
<asrwt>0</asrwt>
<pdfrwt beam="1">  1        2 0.18188069E+00 0.12006775E+04</pdfrwt>
<pdfrwt beam="2">  1       -2 0.46900716E-01 0.12006775E+04</pdfrwt>
<totfact> 0.82508501E+01</totfact>
</mgrwt>
</event>
<event>
 6    1  0.1072514E-005  0.4099083E+04  0.7818608E-02  0.7984851E-01
          2   -1    0    0  501    0  0.00000000000E+00  0.00000000000E+00  0.31784404635E+04  0.31784404635E+04  0.00000000000E+00 0. -1.
         -2   -1    0    0    0  501 -0.00000000000E+00 -0.00000000000E+00 -0.13215980235E+04  0.13215980235E+04  0.00000000000E+00 0.  1.
         23    2    1    2    0    0  0.42184855913E+03 -0.72992130417E+03  0.29784348191E+04  0.30969309423E+04  0.95739085088E+02 0.  0.
         13    1    3    3    0    0  0.40384312565E+03 -0.66385935666E+03  0.26574999283E+04  0.27687730828E+04  0.00000000000E+00 0. -1.
        -13    1    3    3    0    0  0.18005433480E+02 -0.66061947512E+02  0.32093489088E+03  0.32815785946E+03  0.00000000000E+00 0.  1.
         22    1    1    2    0    0 -0.42184855913E+03  0.72992130417E+03 -0.11215923791E+04  0.14031075447E+04  0.00000000000E+00 0.  1.
<mgrwt>
<rscale>  0 0.40990831E+04</rscale>
<asrwt>0</asrwt>
<pdfrwt beam="1">  1        2 0.48899084E+00 0.40990831E+04</pdfrwt>
<pdfrwt beam="2">  1       -2 0.20332277E+00 0.40990831E+04</pdfrwt>
<totfact> 0.13247533E-01</totfact>
</mgrwt>
</event>
<event>
 6    1  0.1072514E-005  0.2054160E+04  0.7818608E-02  0.8581710E-01
         -2   -1    0    0    0  501 -0.00000000000E+00  0.00000000000E+00  0.13384844877E+04  0.13384844877E+04  0.00000000000E+00 0.  1.
          2   -1    0    0  501    0  0.00000000000E+00 -0.00000000000E+00 -0.78812488532E+03  0.78812488532E+03  0.00000000000E+00 0. -1.
         23    2    1    2    0    0  0.98098170890E+03 -0.39335409851E+02 -0.29485251552E+02  0.98639341000E+03  0.90720403344E+02 0.  0.
         11    1    3    3    0    0  0.45511840164E+03  0.74999161391E+01  0.23565772672E+02  0.45578981329E+03  0.00000000000E+00 0.  1.
        -11    1    3    3    0    0  0.52586330725E+03 -0.46835325990E+02 -0.53051024224E+02  0.53060359672E+03  0.00000000000E+00 0. -1.
         22    1    1    2    0    0 -0.98098170890E+03  0.39335409851E+02  0.57984485389E+03  0.11402159630E+04  0.00000000000E+00 0. -1.
<mgrwt>
<rscale>  0 0.20541596E+04</rscale>
<asrwt>0</asrwt>
<pdfrwt beam="1">  1        2 0.12124998E+00 0.20541596E+04</pdfrwt>
<pdfrwt beam="2">  1       -2 0.20592069E+00 0.20541596E+04</pdfrwt>
<totfact> 0.39526537E+00</totfact>
</mgrwt>
</event>
<event>
 6    1  0.1301276E-005  0.3252780E+04  0.7818608E-02  0.8175015E-01
          2   -1    0    0  501    0  0.00000000000E+00  0.00000000000E+00  0.24233524513E+04  0.24233524513E+04  0.00000000000E+00 0. -1.
         -2   -1    0    0    0  501 -0.00000000000E+00 -0.00000000000E+00 -0.10915230647E+04  0.10915230647E+04  0.00000000000E+00 0.  1.
         23    2    1    2    0    0  0.54037962065E+03  0.21265686316E+03 -0.97359908070E+03  0.11374328786E+04  0.92872534099E+02 0.  0.
         13    1    3    3    0    0  0.27720153951E+03  0.15158324362E+03 -0.47800479583E+03  0.57298059137E+03  0.00000000000E+00 0. -1.
        -13    1    3    3    0    0  0.26317808114E+03  0.61073619534E+02 -0.49559428486E+03  0.56445228725E+03  0.00000000000E+00 0.  1.
         22    1    1    2    0    0 -0.54037962065E+03 -0.21265686316E+03  0.23054284674E+04  0.23774426374E+04  0.00000000000E+00 0. -1.
<mgrwt>
<rscale>  0 0.32527804E+04</rscale>
<asrwt>0</asrwt>
<pdfrwt beam="1">  1        2 0.37282345E+00 0.32527804E+04</pdfrwt>
<pdfrwt beam="2">  1       -2 0.16792663E+00 0.32527804E+04</pdfrwt>
<totfact> 0.71262630E-01</totfact>
</mgrwt>
</event>
<event>
 6    1  0.1072514E-005  0.2997782E+04  0.7818608E-02  0.8244364E-01
          2   -1    0    0  501    0  0.00000000000E+00  0.00000000000E+00  0.14183238674E+04  0.14183238674E+04  0.00000000000E+00 0. -1.
         -2   -1    0    0    0  501 -0.00000000000E+00 -0.00000000000E+00 -0.15840349251E+04  0.15840349251E+04  0.00000000000E+00 0.  1.
         23    2    1    2    0    0 -0.34538401022E+03 -0.13715723510E+04 -0.57572729498E+03  0.15297372717E+04  0.90185218586E+02 0.  0.
         11    1    3    3    0    0 -0.22558846084E+03 -0.86632337227E+03 -0.31779687565E+03  0.94994799499E+03  0.00000000000E+00 0. -1.
        -11    1    3    3    0    0 -0.11979554938E+03 -0.50524897876E+03 -0.25793041933E+03  0.57978927673E+03  0.00000000000E+00 0.  1.
         22    1    1    2    0    0  0.34538401022E+03  0.13715723510E+04  0.41001623721E+03  0.14726215208E+04  0.00000000000E+00 0. -1.
<mgrwt>
<rscale>  0 0.29977822E+04</rscale>
<asrwt>0</asrwt>
<pdfrwt beam="1">  1        2 0.21820367E+00 0.29977822E+04</pdfrwt>
<pdfrwt beam="2">  1       -2 0.24369768E+00 0.29977822E+04</pdfrwt>
<totfact> 0.84992047E-01</totfact>
</mgrwt>
</event>
<event>
 6    1  0.1072514E-005  0.5767047E+03  0.7818608E-02  0.9954951E-01
         -2   -1    0    0    0  501 -0.00000000000E+00  0.00000000000E+00  0.27344182022E+03  0.27344182022E+03  0.00000000000E+00 0.  1.
          2   -1    0    0  501    0  0.00000000000E+00 -0.00000000000E+00 -0.30407590320E+03  0.30407590320E+03  0.00000000000E+00 0. -1.
         23    2    1    2    0    0 -0.10829028791E+03  0.13135613993E+02  0.24345286606E+03  0.28252113624E+03  0.93003030153E+02 0.  0.
         13    1    3    3    0    0 -0.81337860044E+02  0.26241502501E+02  0.82454039246E+02  0.11875661042E+03  0.00000000000E+00 0. -1.
        -13    1    3    3    0    0 -0.26952427867E+02 -0.13105888508E+02  0.16099882682E+03  0.16376452582E+03  0.00000000000E+00 0.  1.
         22    1    1    2    0    0  0.10829028791E+03 -0.13135613993E+02 -0.27408694904E+03  0.29499658718E+03  0.00000000000E+00 0. -1.
<mgrwt>
<rscale>  0 0.57670467E+03</rscale>
<asrwt>0</asrwt>
<pdfrwt beam="1">  1        2 0.46780908E-01 0.57670467E+03</pdfrwt>
<pdfrwt beam="2">  1       -2 0.42067972E-01 0.57670467E+03</pdfrwt>
<totfact> 0.58339972E+02</totfact>
</mgrwt>
</event>
<event>
 6    1  0.1072514E-005  0.4012691E+03  0.7818608E-02  0.1043341E+00
         -2   -1    0    0    0  501 -0.00000000000E+00  0.00000000000E+00  0.19240149506E+03  0.19240149506E+03  0.00000000000E+00 0.  1.
          2   -1    0    0  501    0  0.00000000000E+00 -0.00000000000E+00 -0.20921992158E+03  0.20921992158E+03  0.00000000000E+00 0. -1.
         23    2    1    2    0    0  0.16104163956E+03  0.64229258594E+02  0.68759747163E+02  0.20827346310E+03  0.92682928682E+02 0.  0.
         13    1    3    3    0    0  0.14908733952E+03  0.19892147605E+02  0.48032684597E+02  0.15789196031E+03  0.00000000000E+00 0.  1.
        -13    1    3    3    0    0  0.11954300039E+02  0.44337110989E+02  0.20727062566E+02  0.50381502785E+02  0.00000000000E+00 0. -1.
         22    1    1    2    0    0 -0.16104163956E+03 -0.64229258594E+02 -0.85578173685E+02  0.19334795355E+03  0.00000000000E+00 0. -1.
<mgrwt>
<rscale>  0 0.40126912E+03</rscale>
<asrwt>0</asrwt>
<pdfrwt beam="1">  1        2 0.32187680E-01 0.40126912E+03</pdfrwt>
<pdfrwt beam="2">  1       -2 0.29600230E-01 0.40126912E+03</pdfrwt>
<totfact> 0.17119241E+03</totfact>
</mgrwt>
</event>
<event>
 6    1  0.1072514E-005  0.3190797E+04  0.7818608E-02  0.8191252E-01
          1   -1    0    0  501    0  0.00000000000E+00  0.00000000000E+00  0.31579745845E+04  0.31579745845E+04  0.00000000000E+00 0. -1.
         -1   -1    0    0    0  501 -0.00000000000E+00 -0.00000000000E+00 -0.80599001016E+03  0.80599001016E+03  0.00000000000E+00 0.  1.
         23    2    1    2    0    0 -0.96281570220E+03  0.12109129936E+04  0.69936731316E+03  0.17002357756E+04  0.91447795321E+02 0.  0.
         11    1    3    3    0    0 -0.57153763094E+03  0.71643948532E+03  0.36481128733E+03  0.98642185452E+03  0.00000000000E+00 0.  1.
        -11    1    3    3    0    0 -0.39127807126E+03  0.49447350828E+03  0.33455602583E+03  0.71381392103E+03  0.00000000000E+00 0. -1.
         22    1    1    2    0    0  0.96281570220E+03 -0.12109129936E+04  0.16526172611E+04  0.22637288191E+04  0.00000000000E+00 0.  1.
<mgrwt>
<rscale>  0 0.31907967E+04</rscale>
<asrwt>0</asrwt>
<pdfrwt beam="1">  1        1 0.48584224E+00 0.31907967E+04</pdfrwt>
<pdfrwt beam="2">  1       -1 0.12399846E+00 0.31907967E+04</pdfrwt>
<totfact> 0.21826100E-01</totfact>
</mgrwt>
</event>
<event>
 6    1  0.1072514E-005  0.4081796E+04  0.7818608E-02  0.7988246E-01
          1   -1    0    0  501    0  0.00000000000E+00  0.00000000000E+00  0.17960829077E+04  0.17960829077E+04  0.00000000000E+00 0. -1.
         -1   -1    0    0    0  501 -0.00000000000E+00 -0.00000000000E+00 -0.23190831580E+04  0.23190831580E+04  0.00000000000E+00 0.  1.
         23    2    1    2    0    0 -0.98583531094E+03 -0.45600817936E+03 -0.20024015593E+04  0.22798342284E+04  0.90649789784E+02 0.  0.
         13    1    3    3    0    0 -0.44486877332E+03 -0.21444249520E+03 -0.81796781037E+03  0.95549209731E+03  0.00000000000E+00 0.  1.
        -13    1    3    3    0    0 -0.54096653762E+03 -0.24156568416E+03 -0.11844337490E+04  0.13243421311E+04  0.00000000000E+00 0. -1.
         22    1    1    2    0    0  0.98583531094E+03  0.45600817936E+03  0.14794013090E+04  0.18353318373E+04  0.00000000000E+00 0. -1.
<mgrwt>
<rscale>  0 0.40817965E+04</rscale>
<asrwt>0</asrwt>
<pdfrwt beam="1">  1        1 0.27632045E+00 0.40817965E+04</pdfrwt>
<pdfrwt beam="2">  1       -1 0.35678202E+00 0.40817965E+04</pdfrwt>
<totfact> 0.44618341E-02</totfact>
</mgrwt>
</event>
<event>
 6    1  0.1072514E-005  0.1202932E+04  0.7818608E-02  0.9110294E-01
          1   -1    0    0  501    0  0.00000000000E+00  0.00000000000E+00  0.21281422994E+04  0.21281422994E+04  0.00000000000E+00 0. -1.
         -1   -1    0    0    0  501 -0.00000000000E+00 -0.00000000000E+00 -0.16998920746E+03  0.16998920746E+03  0.00000000000E+00 0.  1.
         23    2    1    2    0    0 -0.42038286059E+03  0.35021389682E+03  0.14447796821E+04  0.15478490394E+04  0.95272220334E+02 0.  0.
         13    1    3    3    0    0 -0.93974877098E+02  0.41541084381E+02  0.20772901384E+03  0.23175047445E+03  0.00000000000E+00 0.  1.
        -13    1    3    3    0    0 -0.32640798350E+03  0.30867281244E+03  0.12370506683E+04  0.13160985650E+04  0.00000000000E+00 0. -1.
         22    1    1    2    0    0  0.42038286059E+03 -0.35021389682E+03  0.51337340976E+03  0.75028246738E+03  0.00000000000E+00 0.  1.
<mgrwt>
<rscale>  0 0.12029318E+04</rscale>
<asrwt>0</asrwt>
<pdfrwt beam="1">  1        1 0.32740649E+00 0.12029318E+04</pdfrwt>
<pdfrwt beam="2">  1       -1 0.26152187E-01 0.12029318E+04</pdfrwt>
<totfact> 0.31362270E+01</totfact>
</mgrwt>
</event>
<event>
 6    1  0.1072514E-005  0.2054177E+04  0.7818608E-02  0.8581702E-01
         -1   -1    0    0    0  501 -0.00000000000E+00  0.00000000000E+00  0.39691502893E+03  0.39691502893E+03  0.00000000000E+00 0. -1.
          1   -1    0    0  501    0  0.00000000000E+00 -0.00000000000E+00 -0.26577739293E+04  0.26577739293E+04  0.00000000000E+00 0.  1.
         23    2    1    2    0    0  0.59003595080E+03 -0.69225206396E+03 -0.42967989700E+03  0.10100442738E+04  0.90605064862E+02 0.  0.
         11    1    3    3    0    0  0.30971653851E+03 -0.29441202612E+03 -0.20810146632E+03  0.47529884876E+03  0.00000000000E+00 0.  1.
        -11    1    3    3    0    0  0.28031941229E+03 -0.39784003783E+03 -0.22157843068E+03  0.53474542500E+03  0.00000000000E+00 0. -1.
         22    1    1    2    0    0 -0.59003595080E+03  0.69225206396E+03 -0.18311790034E+04  0.20446446844E+04  0.00000000000E+00 0. -1.
<mgrwt>
<rscale>  0 0.20541766E+04</rscale>
<asrwt>0</asrwt>
<pdfrwt beam="1">  1        1 0.40888830E+00 0.20541766E+04</pdfrwt>
<pdfrwt beam="2">  1       -1 0.61063850E-01 0.20541766E+04</pdfrwt>
<totfact> 0.26411655E+00</totfact>
</mgrwt>
</event>
<event>
 6    1  0.1072514E-005  0.4413961E+03  0.7818608E-02  0.1030319E+00
         -2   -1    0    0    0  501 -0.00000000000E+00  0.00000000000E+00  0.51240837246E+02  0.51240837246E+02  0.00000000000E+00 0.  1.
          2   -1    0    0  501    0  0.00000000000E+00 -0.00000000000E+00 -0.95056278040E+03  0.95056278040E+03  0.00000000000E+00 0. -1.
         23    2    1    2    0    0 -0.16158984571E+03  0.30165698399E+02 -0.16982841997E+03  0.25401885719E+03  0.93073304368E+02 0.  0.
         11    1    3    3    0    0 -0.34230569398E+02  0.41954280725E+02 -0.84166788716E+02  0.10007967763E+03  0.00000000000E+00 0. -1.
        -11    1    3    3    0    0 -0.12735927631E+03 -0.11788582326E+02 -0.85661631253E+02  0.15393917956E+03  0.00000000000E+00 0.  1.
         22    1    1    2    0    0  0.16158984571E+03 -0.30165698399E+02 -0.72949352318E+03  0.74778476045E+03  0.00000000000E+00 0. -1.
<mgrwt>
<rscale>  0 0.44139612E+03</rscale>
<asrwt>0</asrwt>
<pdfrwt beam="1">  1        2 0.14624042E+00 0.44139612E+03</pdfrwt>
<pdfrwt beam="2">  1       -2 0.78832063E-02 0.44139612E+03</pdfrwt>
<totfact> 0.27368369E+03</totfact>
</mgrwt>
</event>
<event>
 6    1  0.1072514E-005  0.6042492E+04  0.7818608E-02  0.7685156E-01
         -1   -1    0    0    0  501 -0.00000000000E+00  0.00000000000E+00  0.41193270805E+04  0.41193270805E+04  0.00000000000E+00 0.  1.
          1   -1    0    0  501    0  0.00000000000E+00 -0.00000000000E+00 -0.22158785464E+04  0.22158785464E+04  0.00000000000E+00 0. -1.
         23    2    1    2    0    0  0.68397602553E+03 -0.21086519546E+04 -0.11991631734E+04  0.25220133060E+04  0.91227901526E+02 0.  0.
         11    1    3    3    0    0  0.38465760351E+03 -0.10656222537E+04 -0.58235319342E+03  0.12738318183E+04  0.00000000000E+00 0. -1.
        -11    1    3    3    0    0  0.29931842201E+03 -0.10430297009E+04 -0.61680997999E+03  0.12481814876E+04  0.00000000000E+00 0.  1.
         22    1    1    2    0    0 -0.68397602553E+03  0.21086519546E+04  0.31026117076E+04  0.38131923210E+04  0.00000000000E+00 0.  1.
<mgrwt>
<rscale>  0 0.60424924E+04</rscale>
<asrwt>0</asrwt>
<pdfrwt beam="1">  1        1 0.34090439E+00 0.60424924E+04</pdfrwt>
<pdfrwt beam="2">  1       -1 0.63374263E+00 0.60424924E+04</pdfrwt>
<totfact> 0.47970789E-04</totfact>
</mgrwt>
</event>
<event>
 6    1  0.1072514E-005  0.1539306E+04  0.7818608E-02  0.8858727E-01
          1   -1    0    0  501    0  0.00000000000E+00  0.00000000000E+00  0.11409325343E+04  0.11409325343E+04  0.00000000000E+00 0. -1.
         -1   -1    0    0    0  501 -0.00000000000E+00 -0.00000000000E+00 -0.51919443581E+03  0.51919443581E+03  0.00000000000E+00 0.  1.
         23    2    1    2    0    0 -0.41889718209E+02 -0.37897959900E+03 -0.40497626459E+03  0.56489974789E+03  0.98618787954E+02 0.  0.
         13    1    3    3    0    0 -0.91506533340E+01 -0.18995070712E+03 -0.13297329011E+03  0.23204935137E+03  0.00000000000E+00 0.  1.
        -13    1    3    3    0    0 -0.32739064875E+02 -0.18902889188E+03 -0.27200297448E+03  0.33285039652E+03  0.00000000000E+00 0. -1.
         22    1    1    2    0    0  0.41889718209E+02  0.37897959900E+03  0.10267143630E+04  0.10952272222E+04  0.00000000000E+00 0. -1.
<mgrwt>
<rscale>  0 0.15393061E+04</rscale>
<asrwt>0</asrwt>
<pdfrwt beam="1">  1        1 0.17552808E+00 0.15393061E+04</pdfrwt>
<pdfrwt beam="2">  1       -1 0.79876067E-01 0.15393061E+04</pdfrwt>
<totfact> 0.17831948E+01</totfact>
</mgrwt>
</event>
<event>
 6    1  0.1072514E-005  0.1742394E+04  0.7818608E-02  0.8737548E-01
         -1   -1    0    0    0  501 -0.00000000000E+00  0.00000000000E+00  0.73284061532E+03  0.73284061532E+03  0.00000000000E+00 0.  1.
          1   -1    0    0  501    0  0.00000000000E+00 -0.00000000000E+00 -0.10356739797E+04  0.10356739797E+04  0.00000000000E+00 0. -1.
         23    2    1    2    0    0  0.12005478391E+02 -0.72697292611E+03 -0.63474047516E+03  0.96926738864E+03  0.89162957891E+02 0.  0.
         11    1    3    3    0    0  0.19448452127E+01 -0.28802666368E+03 -0.19481777182E+03  0.34773136993E+03  0.00000000000E+00 0.  1.
        -11    1    3    3    0    0  0.10060633178E+02 -0.43894626243E+03 -0.43992270334E+03  0.62153601871E+03  0.00000000000E+00 0. -1.
         22    1    1    2    0    0 -0.12005478391E+02  0.72697292611E+03  0.33190711073E+03  0.79924720642E+03  0.00000000000E+00 0.  1.
<mgrwt>
<rscale>  0 0.17423937E+04</rscale>
<asrwt>0</asrwt>
<pdfrwt beam="1">  1        1 0.15933446E+00 0.17423937E+04</pdfrwt>
<pdfrwt beam="2">  1       -1 0.11274471E+00 0.17423937E+04</pdfrwt>
<totfact> 0.96896985E+00</totfact>
</mgrwt>
</event>
<event>
 6    1  0.1072514E-005  0.1948369E+04  0.7818608E-02  0.8631148E-01
          1   -1    0    0  501    0  0.00000000000E+00  0.00000000000E+00  0.10787390108E+04  0.10787390108E+04  0.00000000000E+00 0. -1.
         -1   -1    0    0    0  501 -0.00000000000E+00 -0.00000000000E+00 -0.87976355905E+03  0.87976355905E+03  0.00000000000E+00 0.  1.
         23    2    1    2    0    0  0.54796345878E+03  0.40031803703E+03  0.79930694592E+03  0.10524582079E+04  0.90874653587E+02 0.  0.
         13    1    3    3    0    0  0.35098640758E+03  0.30365774530E+03  0.51382729002E+03  0.69240015060E+03  0.00000000000E+00 0.  1.
        -13    1    3    3    0    0  0.19697705120E+03  0.96660291735E+02  0.28547965589E+03  0.36005805730E+03  0.00000000000E+00 0. -1.
         22    1    1    2    0    0 -0.54796345878E+03 -0.40031803703E+03 -0.60033149416E+03  0.90604436194E+03  0.00000000000E+00 0.  1.
<mgrwt>
<rscale>  0 0.19483688E+04</rscale>
<asrwt>0</asrwt>
<pdfrwt beam="1">  1        1 0.16595985E+00 0.19483688E+04</pdfrwt>
<pdfrwt beam="2">  1       -1 0.13534824E+00 0.19483688E+04</pdfrwt>
<totfact> 0.56106220E+00</totfact>
</mgrwt>
</event>
<event>
 6    1  0.1072514E-005  0.1993766E+04  0.7818608E-02  0.8609541E-01
         -1   -1    0    0    0  501 -0.00000000000E+00  0.00000000000E+00  0.16550212280E+04  0.16550212280E+04  0.00000000000E+00 0.  1.
          1   -1    0    0  501    0  0.00000000000E+00 -0.00000000000E+00 -0.60046089926E+03  0.60046089926E+03  0.00000000000E+00 0. -1.
         23    2    1    2    0    0 -0.37280894417E+02  0.18976549644E+03  0.16322986200E+04  0.16462347705E+04  0.91045735403E+02 0.  0.
         13    1    3    3    0    0  0.67250735489E+01  0.14676214637E+03  0.96697071416E+03  0.97806784850E+03  0.00000000000E+00 0.  1.
        -13    1    3    3    0    0 -0.44005967965E+02  0.43003350071E+02  0.66532790582E+03  0.66816692196E+03  0.00000000000E+00 0. -1.
         22    1    1    2    0    0  0.37280894417E+02 -0.18976549644E+03 -0.57773829119E+03  0.60924735686E+03  0.00000000000E+00 0. -1.
<mgrwt>
<rscale>  0 0.19937658E+04</rscale>
<asrwt>0</asrwt>
<pdfrwt beam="1">  1        1 0.92378601E-01 0.19937658E+04</pdfrwt>
<pdfrwt beam="2">  1       -1 0.25461865E+00 0.19937658E+04</pdfrwt>
<totfact> 0.20653368E+00</totfact>
</mgrwt>
</event>
<event>
 6    1  0.1072514E-005  0.2738061E+04  0.7818608E-02  0.8322760E-01
          1   -1    0    0  501    0  0.00000000000E+00  0.00000000000E+00  0.79659379309E+03  0.79659379309E+03  0.00000000000E+00 0. -1.
         -1   -1    0    0    0  501 -0.00000000000E+00 -0.00000000000E+00 -0.23528229832E+04  0.23528229832E+04  0.00000000000E+00 0.  1.
         23    2    1    2    0    0  0.11771037118E+04 -0.27581744355E+03 -0.43714155526E+02  0.12130929035E+04  0.89638465314E+02 0.  0.
         11    1    3    3    0    0  0.10599373610E+04 -0.27522949833E+03 -0.36269579623E+02  0.10956888101E+04  0.00000000000E+00 0.  1.
        -11    1    3    3    0    0  0.11716635080E+03 -0.58794521187E+00 -0.74445759024E+01  0.11740409341E+03  0.00000000000E+00 0. -1.
         22    1    1    2    0    0 -0.11771037118E+04  0.27581744355E+03 -0.15125150346E+04  0.19363238728E+04  0.00000000000E+00 0.  1.
<mgrwt>
<rscale>  0 0.27380608E+04</rscale>
<asrwt>0</asrwt>
<pdfrwt beam="1">  1        1 0.12255289E+00 0.27380608E+04</pdfrwt>
<pdfrwt beam="2">  1       -1 0.36197277E+00 0.27380608E+04</pdfrwt>
<totfact> 0.25053568E-01</totfact>
</mgrwt>
</event>
<event>
 6    1  0.1072514E-005  0.6081728E+04  0.7818608E-02  0.7680350E-01
          2   -1    0    0  501    0  0.00000000000E+00  0.00000000000E+00  0.22231932934E+04  0.22231932934E+04  0.00000000000E+00 0. -1.
         -2   -1    0    0    0  501 -0.00000000000E+00 -0.00000000000E+00 -0.41592665765E+04  0.41592665765E+04  0.00000000000E+00 0.  1.
         23    2    1    2    0    0  0.75985434636E+03 -0.15940325823E+04  0.16287754081E+04  0.24042109219E+04  0.94880589380E+02 0.  0.
         13    1    3    3    0    0  0.34091798272E+03 -0.61128018560E+03  0.66160864735E+03  0.96312747780E+03  0.00000000000E+00 0.  1.
        -13    1    3    3    0    0  0.41893636364E+03 -0.98275239665E+03  0.96716676072E+03  0.14410834441E+04  0.00000000000E+00 0. -1.
         22    1    1    2    0    0 -0.75985434636E+03  0.15940325823E+04 -0.35648486912E+04  0.39782489480E+04  0.00000000000E+00 0.  1.
<mgrwt>
<rscale>  0 0.60817279E+04</rscale>
<asrwt>0</asrwt>
<pdfrwt beam="1">  1        2 0.34202974E+00 0.60817279E+04</pdfrwt>
<pdfrwt beam="2">  1       -2 0.63988717E+00 0.60817279E+04</pdfrwt>
<totfact> 0.12452762E-03</totfact>
</mgrwt>
</event>
<event>
 6    1  0.1072514E-005  0.2675845E+04  0.7818608E-02  0.8342885E-01
         -2   -1    0    0    0  501 -0.00000000000E+00  0.00000000000E+00  0.13313562228E+04  0.13313562228E+04  0.00000000000E+00 0.  1.
          2   -1    0    0  501    0  0.00000000000E+00 -0.00000000000E+00 -0.13445214710E+04  0.13445214710E+04  0.00000000000E+00 0. -1.
         23    2    1    2    0    0 -0.31179111274E+03  0.94058091437E+03 -0.90327758904E+03  0.13438844004E+04  0.90602010235E+02 0.  0.
         13    1    3    3    0    0 -0.23637311899E+03  0.57983752742E+03 -0.55165153060E+03  0.83450777156E+03  0.00000000000E+00 0. -1.
        -13    1    3    3    0    0 -0.75417993746E+02  0.36074338694E+03 -0.35162605844E+03  0.50937662881E+03  0.00000000000E+00 0.  1.
         22    1    1    2    0    0  0.31179111274E+03 -0.94058091437E+03  0.89011234086E+03  0.13319932935E+04  0.00000000000E+00 0.  1.
<mgrwt>
<rscale>  0 0.26758453E+04</rscale>
<asrwt>0</asrwt>
<pdfrwt beam="1">  1        2 0.20684946E+00 0.26758453E+04</pdfrwt>
<pdfrwt beam="2">  1       -2 0.20482403E+00 0.26758453E+04</pdfrwt>
<totfact> 0.16934858E+00</totfact>
</mgrwt>
</event>
<event>
 6    1  0.1072514E-005  0.4560408E+04  0.7818608E-02  0.7900146E-01
          2   -1    0    0  501    0  0.00000000000E+00  0.00000000000E+00  0.19914341615E+04  0.19914341615E+04  0.00000000000E+00 0.  1.
         -2   -1    0    0    0  501 -0.00000000000E+00 -0.00000000000E+00 -0.26108470666E+04  0.26108470666E+04  0.00000000000E+00 0. -1.
         23    2    1    2    0    0 -0.78788008888E+03  0.21357083188E+04 -0.42589305344E+03  0.23176685715E+04  0.90540914658E+02 0.  0.
         13    1    3    3    0    0 -0.60532841931E+03  0.15326318167E+04 -0.32371309575E+03  0.16793370564E+04  0.00000000000E+00 0.  1.
        -13    1    3    3    0    0 -0.18255166957E+03  0.60307650212E+03 -0.10217995768E+03  0.63833151514E+03  0.00000000000E+00 0. -1.
         22    1    1    2    0    0  0.78788008888E+03 -0.21357083188E+04 -0.19351985167E+03  0.22846126565E+04  0.00000000000E+00 0.  1.
<mgrwt>
<rscale>  0 0.45604079E+04</rscale>
<asrwt>0</asrwt>
<pdfrwt beam="1">  1        2 0.30637449E+00 0.45604079E+04</pdfrwt>
<pdfrwt beam="2">  1       -2 0.40166878E+00 0.45604079E+04</pdfrwt>
<totfact> 0.36874289E-02</totfact>
</mgrwt>
</event>
<event>
 6    1  0.1072514E-005  0.2452556E+04  0.7818608E-02  0.8420086E-01
         -2   -1    0    0    0  501 -0.00000000000E+00  0.00000000000E+00  0.11800380728E+04  0.11800380728E+04  0.00000000000E+00 0.  1.
          2   -1    0    0  501    0  0.00000000000E+00 -0.00000000000E+00 -0.12743293845E+04  0.12743293845E+04  0.00000000000E+00 0. -1.
         23    2    1    2    0    0  0.72357065325E+03 -0.76246590634E+03 -0.67582088836E+03  0.12530825631E+04  0.92592053032E+02 0.  0.
         13    1    3    3    0    0  0.45629727674E+03 -0.42247926991E+03 -0.37301388721E+03  0.72514501882E+03  0.00000000000E+00 0. -1.
        -13    1    3    3    0    0  0.26727337651E+03 -0.33998663643E+03 -0.30280700115E+03  0.52793754430E+03  0.00000000000E+00 0.  1.
         22    1    1    2    0    0 -0.72357065325E+03  0.76246590634E+03  0.58152957659E+03  0.12012848942E+04  0.00000000000E+00 0.  1.
<mgrwt>
<rscale>  0 0.24525556E+04</rscale>
<asrwt>0</asrwt>
<pdfrwt beam="1">  1        2 0.19605067E+00 0.24525556E+04</pdfrwt>
<pdfrwt beam="2">  1       -2 0.18154432E+00 0.24525556E+04</pdfrwt>
<totfact> 0.27112681E+00</totfact>
</mgrwt>
</event>
<event>
 6    1  0.1072514E-005  0.4987979E+04  0.7818608E-02  0.7830364E-01
         -2   -1    0    0    0  501 -0.00000000000E+00  0.00000000000E+00  0.23322314853E+04  0.23322314853E+04  0.00000000000E+00 0. -1.
          2   -1    0    0  501    0  0.00000000000E+00 -0.00000000000E+00 -0.26669667174E+04  0.26669667174E+04  0.00000000000E+00 0.  1.
         23    2    1    2    0    0  0.13597105477E+04  0.20380146738E+04 -0.63060964332E+03  0.25314343868E+04  0.90415420633E+02 0.  0.
         11    1    3    3    0    0  0.85652364828E+03  0.13074392415E+04 -0.35940429177E+03  0.16038084596E+04  0.00000000000E+00 0. -1.
        -11    1    3    3    0    0  0.50318689942E+03  0.73057543224E+03 -0.27120535156E+03  0.92762592712E+03  0.00000000000E+00 0.  1.
         22    1    1    2    0    0 -0.13597105477E+04 -0.20380146738E+04  0.29587441118E+03  0.24677638159E+04  0.00000000000E+00 0.  1.
<mgrwt>
<rscale>  0 0.49879790E+04</rscale>
<asrwt>0</asrwt>
<pdfrwt beam="1">  1        2 0.41030257E+00 0.49879790E+04</pdfrwt>
<pdfrwt beam="2">  1       -2 0.35880485E+00 0.49879790E+04</pdfrwt>
<totfact> 0.27709126E-02</totfact>
</mgrwt>
</event>
<event>
 6    1  0.1072514E-005  0.3514011E+04  0.7818608E-02  0.8110478E-01
          1   -1    0    0  501    0  0.00000000000E+00  0.00000000000E+00  0.26881771115E+04  0.26881771115E+04  0.00000000000E+00 0. -1.
         -1   -1    0    0    0  501 -0.00000000000E+00 -0.00000000000E+00 -0.11483870179E+04  0.11483870179E+04  0.00000000000E+00 0.  1.
         23    2    1    2    0    0 -0.14543457980E+04 -0.33940515389E+02  0.18441402046E+04  0.23503263796E+04  0.83110391953E+02 0.  0.
         11    1    3    3    0    0 -0.68356867983E+03 -0.53122820091E+02  0.89779784430E+03  0.11296588615E+04  0.00000000000E+00 0.  1.
        -11    1    3    3    0    0 -0.77077711821E+03  0.19182304702E+02  0.94634236035E+03  0.12206675181E+04  0.00000000000E+00 0. -1.
         22    1    1    2    0    0  0.14543457980E+04  0.33940515389E+02 -0.30435011106E+03  0.14862377498E+04  0.00000000000E+00 0.  1.
<mgrwt>
<rscale>  0 0.35140106E+04</rscale>
<asrwt>0</asrwt>
<pdfrwt beam="1">  1        1 0.41356571E+00 0.35140106E+04</pdfrwt>
<pdfrwt beam="2">  1       -1 0.17667493E+00 0.35140106E+04</pdfrwt>
<totfact> 0.17923835E-01</totfact>
</mgrwt>
</event>
<event>
 6    1  0.1072514E-005  0.2764217E+04  0.7818608E-02  0.8314464E-01
         -2   -1    0    0    0  501 -0.00000000000E+00  0.00000000000E+00  0.20587319779E+04  0.20587319779E+04  0.00000000000E+00 0.  1.
          2   -1    0    0  501    0  0.00000000000E+00 -0.00000000000E+00 -0.92786432027E+03  0.92786432027E+03  0.00000000000E+00 0. -1.
         23    2    1    2    0    0 -0.22444088287E+03  0.13241143909E+04  0.22058268704E+03  0.13641686857E+04  0.92988446911E+02 0.  0.
         13    1    3    3    0    0 -0.49252805076E+00  0.99752032110E+02  0.35103832518E+02  0.10574965509E+03  0.00000000000E+00 0. -1.
        -13    1    3    3    0    0 -0.22394835482E+03  0.12243623588E+04  0.18547885453E+03  0.12584190306E+04  0.00000000000E+00 0.  1.
         22    1    1    2    0    0  0.22444088287E+03 -0.13241143909E+04  0.91028497060E+03  0.16224276125E+04  0.00000000000E+00 0.  1.
<mgrwt>
<rscale>  0 0.27642170E+04</rscale>
<asrwt>0</asrwt>
<pdfrwt beam="1">  1        2 0.14274836E+00 0.27642170E+04</pdfrwt>
<pdfrwt beam="2">  1       -2 0.31672800E+00 0.27642170E+04</pdfrwt>
<totfact> 0.61478956E-01</totfact>
</mgrwt>
</event>
<event>
 6    1  0.1072514E-005  0.4208319E+04  0.7818608E-02  0.7963792E-01
          2   -1    0    0  501    0  0.00000000000E+00  0.00000000000E+00  0.44776971135E+04  0.44776971135E+04  0.00000000000E+00 0. -1.
         -2   -1    0    0    0  501 -0.00000000000E+00 -0.00000000000E+00 -0.98878674942E+03  0.98878674942E+03  0.00000000000E+00 0.  1.
         23    2    1    2    0    0  0.19570842478E+04 -0.34544391814E+03  0.26394157834E+04  0.33051992227E+04  0.91191942574E+02 0.  0.
         13    1    3    3    0    0  0.12995473390E+04 -0.23290399746E+03  0.18238531114E+04  0.22515567349E+04  0.00000000000E+00 0. -1.
        -13    1    3    3    0    0  0.65753690879E+03 -0.11253992069E+03  0.81556267199E+03  0.10536424878E+04  0.00000000000E+00 0.  1.
         22    1    1    2    0    0 -0.19570842478E+04  0.34544391814E+03  0.84949458061E+03  0.21612846402E+04  0.00000000000E+00 0. -1.
<mgrwt>
<rscale>  0 0.42083192E+04</rscale>
<asrwt>0</asrwt>
<pdfrwt beam="1">  1        2 0.68887647E+00 0.42083192E+04</pdfrwt>
<pdfrwt beam="2">  1       -2 0.15212104E+00 0.42083192E+04</pdfrwt>
<totfact> 0.28753158E-02</totfact>
</mgrwt>
</event>
<event>
 6    1  0.1072514E-005  0.1761442E+04  0.7818608E-02  0.8727077E-01
          1   -1    0    0  501    0  0.00000000000E+00  0.00000000000E+00  0.68755006538E+03  0.68755006538E+03  0.00000000000E+00 0. -1.
         -1   -1    0    0    0  501 -0.00000000000E+00 -0.00000000000E+00 -0.11281642339E+04  0.11281642339E+04  0.00000000000E+00 0.  1.
         23    2    1    2    0    0  0.73024517316E+03  0.46833746161E+03 -0.78169424961E+02  0.87552060485E+03  0.88475305351E+02 0.  0.
         11    1    3    3    0    0  0.13740951997E+03  0.11859425407E+03 -0.41721481320E+02  0.18624353755E+03  0.00000000000E+00 0. -1.
        -11    1    3    3    0    0  0.59283565318E+03  0.34974320754E+03 -0.36447943640E+02  0.68927706730E+03  0.00000000000E+00 0.  1.
         22    1    1    2    0    0 -0.73024517316E+03 -0.46833746161E+03 -0.36244474353E+03  0.94019369439E+03  0.00000000000E+00 0.  1.
<mgrwt>
<rscale>  0 0.17614419E+04</rscale>
<asrwt>0</asrwt>
<pdfrwt beam="1">  1        1 0.10577693E+00 0.17614419E+04</pdfrwt>
<pdfrwt beam="2">  1       -1 0.17356373E+00 0.17614419E+04</pdfrwt>
<totfact> 0.61409587E+00</totfact>
</mgrwt>
</event>
<event>
 6    1  0.1072514E-005  0.2385738E+04  0.7818608E-02  0.8444862E-01
         -2   -1    0    0    0  501 -0.00000000000E+00  0.00000000000E+00  0.56245775186E+03  0.56245775186E+03  0.00000000000E+00 0.  1.
          2   -1    0    0  501    0  0.00000000000E+00 -0.00000000000E+00 -0.25298557680E+04  0.25298557680E+04  0.00000000000E+00 0. -1.
         23    2    1    2    0    0 -0.86673584209E+02 -0.44950724817E+03 -0.24104999384E+04  0.24552041181E+04  0.89152858063E+02 0.  0.
         13    1    3    3    0    0 -0.55637780720E+02 -0.15557680805E+03 -0.10545255838E+04  0.10673911714E+04  0.00000000000E+00 0. -1.
        -13    1    3    3    0    0 -0.31035803489E+02 -0.29393044012E+03 -0.13559743546E+04  0.13878129467E+04  0.00000000000E+00 0.  1.
         22    1    1    2    0    0  0.86673584209E+02  0.44950724817E+03  0.44310192223E+03  0.63710940179E+03  0.00000000000E+00 0.  1.
<mgrwt>
<rscale>  0 0.23857384E+04</rscale>
<asrwt>0</asrwt>
<pdfrwt beam="1">  1        2 0.38920859E+00 0.23857384E+04</pdfrwt>
<pdfrwt beam="2">  1       -2 0.86531960E-01 0.23857384E+04</pdfrwt>
<totfact> 0.34829127E+00</totfact>
</mgrwt>
</event>
<event>
 6    1  0.1072514E-005  0.3486964E+04  0.7818608E-02  0.8116886E-01
          2   -1    0    0  501    0  0.00000000000E+00  0.00000000000E+00  0.28495897314E+04  0.28495897314E+04  0.00000000000E+00 0.  1.
         -2   -1    0    0    0  501 -0.00000000000E+00 -0.00000000000E+00 -0.10667255096E+04  0.10667255096E+04  0.00000000000E+00 0. -1.
         23    2    1    2    0    0 -0.68979582949E+03  0.61831378175E+03  0.25493499444E+04  0.27139714540E+04  0.91245244629E+02 0.  0.
         11    1    3    3    0    0 -0.18384035886E+03  0.17079222930E+03  0.81373459179E+03  0.85154638689E+03  0.00000000000E+00 0.  1.
        -11    1    3    3    0    0 -0.50595547063E+03  0.44752155245E+03  0.17356153526E+04  0.18624250671E+04  0.00000000000E+00 0. -1.
         22    1    1    2    0    0  0.68979582949E+03 -0.61831378175E+03 -0.76648572270E+03  0.12023437870E+04  0.00000000000E+00 0. -1.
<mgrwt>
<rscale>  0 0.34869643E+04</rscale>
<asrwt>0</asrwt>
<pdfrwt beam="1">  1        2 0.43839842E+00 0.34869643E+04</pdfrwt>
<pdfrwt beam="2">  1       -2 0.16411162E+00 0.34869643E+04</pdfrwt>
<totfact> 0.41678918E-01</totfact>
</mgrwt>
</event>
<event>
 6    1  0.1072514E-005  0.1598537E+04  0.7818608E-02  0.8821447E-01
         -1   -1    0    0    0  501 -0.00000000000E+00  0.00000000000E+00  0.10395100008E+04  0.10395100008E+04  0.00000000000E+00 0.  1.
          1   -1    0    0  501    0  0.00000000000E+00 -0.00000000000E+00 -0.61454945772E+03  0.61454945772E+03  0.00000000000E+00 0. -1.
         23    2    1    2    0    0 -0.54824008368E+03 -0.56649735809E+03  0.90707516458E+02  0.79778173962E+03  0.82106056143E+02 0.  0.
         11    1    3    3    0    0 -0.21926811025E+03 -0.19850048219E+03  0.68932888474E+02  0.30369835152E+03  0.00000000000E+00 0. -1.
        -11    1    3    3    0    0 -0.32897197342E+03 -0.36799687590E+03  0.21774627984E+02  0.49408338810E+03  0.00000000000E+00 0.  1.
         22    1    1    2    0    0  0.54824008368E+03  0.56649735809E+03  0.33425302662E+03  0.85627771890E+03  0.00000000000E+00 0.  1.
<mgrwt>
<rscale>  0 0.15985372E+04</rscale>
<asrwt>0</asrwt>
<pdfrwt beam="1">  1        1 0.94546070E-01 0.15985372E+04</pdfrwt>
<pdfrwt beam="2">  1       -1 0.15992462E+00 0.15985372E+04</pdfrwt>
<totfact> 0.92882994E+00</totfact>
</mgrwt>
</event>
<event>
 6    1  0.1072514E-005  0.7784245E+04  0.7818608E-02  0.7501554E-01
          1   -1    0    0  501    0  0.00000000000E+00  0.00000000000E+00  0.33465590418E+04  0.33465590418E+04  0.00000000000E+00 0. -1.
         -1   -1    0    0    0  501 -0.00000000000E+00 -0.00000000000E+00 -0.45266251265E+04  0.45266251265E+04  0.00000000000E+00 0.  1.
         23    2    1    2    0    0 -0.47468485619E+03  0.33683838444E+04 -0.25021477784E+04  0.42236313956E+04  0.83565693832E+02 0.  0.
         13    1    3    3    0    0 -0.46516136198E+03  0.31587847597E+04 -0.23518693245E+04  0.39655498446E+04  0.00000000000E+00 0.  1.
        -13    1    3    3    0    0 -0.95234942123E+01  0.20959908471E+03 -0.15027845389E+03  0.25808155098E+03  0.00000000000E+00 0. -1.
         22    1    1    2    0    0  0.47468485619E+03 -0.33683838444E+04  0.13220816937E+04  0.36495527727E+04  0.00000000000E+00 0. -1.
<mgrwt>
<rscale>  0 0.77842452E+04</rscale>
<asrwt>0</asrwt>
<pdfrwt beam="1">  1        1 0.51485524E+00 0.77842452E+04</pdfrwt>
<pdfrwt beam="2">  1       -1 0.69640387E+00 0.77842452E+04</pdfrwt>
<totfact> 0.40916791E-05</totfact>
</mgrwt>
</event>
<event>
 6    1  0.1072514E-005  0.3962249E+04  0.7818608E-02  0.8012206E-01
         -2   -1    0    0    0  501 -0.00000000000E+00  0.00000000000E+00  0.11163760817E+04  0.11163760817E+04  0.00000000000E+00 0.  1.
          2   -1    0    0  501    0  0.00000000000E+00 -0.00000000000E+00 -0.35157097314E+04  0.35157097314E+04  0.00000000000E+00 0. -1.
         23    2    1    2    0    0  0.11706850125E+04 -0.13071764892E+04 -0.22726119509E+04  0.28727472552E+04  0.93262751398E+02 0.  0.
         11    1    3    3    0    0  0.25221554265E+03 -0.25540988539E+03 -0.52069772232E+03  0.63243419226E+03  0.00000000000E+00 0.  1.
        -11    1    3    3    0    0  0.91846946981E+03 -0.10517666038E+04 -0.17519142286E+04  0.22403130630E+04  0.00000000000E+00 0. -1.
         22    1    1    2    0    0 -0.11706850125E+04  0.13071764892E+04 -0.12672169876E+03  0.17593385579E+04  0.00000000000E+00 0.  1.
<mgrwt>
<rscale>  0 0.39622490E+04</rscale>
<asrwt>0</asrwt>
<pdfrwt beam="1">  1        2 0.54087842E+00 0.39622490E+04</pdfrwt>
<pdfrwt beam="2">  1       -2 0.17175017E+00 0.39622490E+04</pdfrwt>
<totfact> 0.12965822E-01</totfact>
</mgrwt>
</event>
<event>
 6    1  0.1072514E-005  0.3750360E+03  0.7818608E-02  0.1052784E+00
          1   -1    0    0  501    0  0.00000000000E+00  0.00000000000E+00  0.10517425549E+03  0.10517425549E+03  0.00000000000E+00 0. -1.
         -1   -1    0    0    0  501 -0.00000000000E+00 -0.00000000000E+00 -0.33433090314E+03  0.33433090314E+03  0.00000000000E+00 0.  1.
         23    2    1    2    0    0 -0.14977542337E+03 -0.91966651314E+02 -0.10489829305E+03  0.22425952896E+03  0.91641377365E+02 0.  0.
         13    1    3    3    0    0 -0.12517361287E+02 -0.10363988590E+02  0.16886023928E+02  0.23435750408E+02  0.00000000000E+00 0. -1.
        -13    1    3    3    0    0 -0.13725806209E+03 -0.81602662724E+02 -0.12178431698E+03  0.20082377855E+03  0.00000000000E+00 0.  1.
         22    1    1    2    0    0  0.14977542337E+03  0.91966651314E+02 -0.12425835461E+03  0.21524562967E+03  0.00000000000E+00 0.  1.
<mgrwt>
<rscale>  0 0.37503602E+03</rscale>
<asrwt>0</asrwt>
<pdfrwt beam="1">  1        1 0.16180655E-01 0.37503602E+03</pdfrwt>
<pdfrwt beam="2">  1       -1 0.51435523E-01 0.37503602E+03</pdfrwt>
<totfact> 0.13191477E+03</totfact>
</mgrwt>
</event>
<event>
 6    1  0.1072514E-005  0.1298128E+04  0.7818608E-02  0.9031051E-01
          2   -1    0    0  501    0  0.00000000000E+00  0.00000000000E+00  0.17583480093E+04  0.17583480093E+04  0.00000000000E+00 0. -1.
         -2   -1    0    0    0  501 -0.00000000000E+00 -0.00000000000E+00 -0.23959098460E+03  0.23959098460E+03  0.00000000000E+00 0.  1.
         23    2    1    2    0    0 -0.52411301339E+03  0.37545108864E+03  0.70591245074E+03  0.96045440501E+03  0.92207945553E+02 0.  0.
         11    1    3    3    0    0 -0.22304001545E+03  0.11094780035E+03  0.30163137164E+03  0.39120039271E+03  0.00000000000E+00 0. -1.
        -11    1    3    3    0    0 -0.30107299794E+03  0.26450328829E+03  0.40428107909E+03  0.56925401230E+03  0.00000000000E+00 0.  1.
         22    1    1    2    0    0  0.52411301339E+03 -0.37545108864E+03  0.81284457400E+03  0.10374845889E+04  0.00000000000E+00 0. -1.
<mgrwt>
<rscale>  0 0.12981284E+04</rscale>
<asrwt>0</asrwt>
<pdfrwt beam="1">  1        2 0.27051507E+00 0.12981284E+04</pdfrwt>
<pdfrwt beam="2">  1       -2 0.36860153E-01 0.12981284E+04</pdfrwt>
<totfact> 0.61863692E+01</totfact>
</mgrwt>
</event>
<event>
 6    1  0.1072514E-005  0.2220694E+04  0.7818608E-02  0.8509864E-01
          2   -1    0    0  501    0  0.00000000000E+00  0.00000000000E+00  0.18109750370E+04  0.18109750370E+04  0.00000000000E+00 0. -1.
         -2   -1    0    0    0  501 -0.00000000000E+00 -0.00000000000E+00 -0.68077694447E+03  0.68077694447E+03  0.00000000000E+00 0.  1.
         23    2    1    2    0    0 -0.68426509299E+03  0.19985879406E+03  0.15185021841E+04  0.16799993574E+04  0.91578943940E+02 0.  0.
         11    1    3    3    0    0 -0.58384796725E+03  0.14992855890E+03  0.12120030482E+04  0.13536278700E+04  0.00000000000E+00 0. -1.
        -11    1    3    3    0    0 -0.10041712574E+03  0.49930235163E+02  0.30649913582E+03  0.32637148739E+03  0.00000000000E+00 0.  1.
         22    1    1    2    0    0  0.68426509299E+03 -0.19985879406E+03 -0.38830409155E+03  0.81175262400E+03  0.00000000000E+00 0.  1.
<mgrwt>
<rscale>  0 0.22206936E+04</rscale>
<asrwt>0</asrwt>
<pdfrwt beam="1">  1        2 0.27861154E+00 0.22206936E+04</pdfrwt>
<pdfrwt beam="2">  1       -2 0.10473492E+00 0.22206936E+04</pdfrwt>
<totfact> 0.57420317E+00</totfact>
</mgrwt>
</event>
<event>
 6    1  0.1072514E-005  0.4966058E+03  0.7818608E-02  0.1014669E+00
          1   -1    0    0  501    0  0.00000000000E+00  0.00000000000E+00  0.18206439895E+04  0.18206439895E+04  0.00000000000E+00 0. -1.
         -1   -1    0    0    0  501 -0.00000000000E+00 -0.00000000000E+00 -0.33864016721E+02  0.33864016721E+02  0.00000000000E+00 0.  1.
         23    2    1    2    0    0 -0.83029415052E+02  0.22381563505E+03  0.93528525068E+03  0.97018307497E+03  0.97516032386E+02 0.  0.
         13    1    3    3    0    0 -0.13078941846E+02  0.31939575364E+02  0.44660778770E+02  0.56442717463E+02  0.00000000000E+00 0. -1.
        -13    1    3    3    0    0 -0.69950473206E+02  0.19187605969E+03  0.89062447191E+03  0.91374035751E+03  0.00000000000E+00 0.  1.
         22    1    1    2    0    0  0.83029415052E+02 -0.22381563505E+03  0.85149472207E+03  0.88432493121E+03  0.00000000000E+00 0. -1.
<mgrwt>
<rscale>  0 0.49660575E+03</rscale>
<asrwt>0</asrwt>
<pdfrwt beam="1">  1        1 0.28009900E+00 0.49660575E+03</pdfrwt>
<pdfrwt beam="2">  1       -1 0.52098501E-02 0.49660575E+03</pdfrwt>
<totfact> 0.71560010E+02</totfact>
</mgrwt>
</event>
<event>
 6    1  0.1072514E-005  0.1575322E+04  0.7818608E-02  0.8835854E-01
          2   -1    0    0  501    0  0.00000000000E+00  0.00000000000E+00  0.55676873426E+03  0.55676873426E+03  0.00000000000E+00 0. -1.
         -2   -1    0    0    0  501 -0.00000000000E+00 -0.00000000000E+00 -0.11143043081E+04  0.11143043081E+04  0.00000000000E+00 0.  1.
         23    2    1    2    0    0  0.93051385687E+02 -0.22876375861E+03  0.51070237910E+03  0.57465900481E+03  0.91785805848E+02 0.  0.
         13    1    3    3    0    0  0.71483439033E+02 -0.87040432280E+02  0.29394637445E+03  0.31478626076E+03  0.00000000000E+00 0. -1.
        -13    1    3    3    0    0  0.21567946654E+02 -0.14172332633E+03  0.21675600465E+03  0.25987274405E+03  0.00000000000E+00 0.  1.
         22    1    1    2    0    0 -0.93051385687E+02  0.22876375861E+03 -0.10682379529E+04  0.10964140376E+04  0.00000000000E+00 0.  1.
<mgrwt>
<rscale>  0 0.15753219E+04</rscale>
<asrwt>0</asrwt>
<pdfrwt beam="1">  1        2 0.85656729E-01 0.15753219E+04</pdfrwt>
<pdfrwt beam="2">  1       -2 0.17143143E+00 0.15753219E+04</pdfrwt>
<totfact> 0.10842208E+01</totfact>
</mgrwt>
</event>
<event>
 6    1  0.1072514E-005  0.1813751E+04  0.7818608E-02  0.8699021E-01
         -2   -1    0    0    0  501 -0.00000000000E+00  0.00000000000E+00  0.15658463306E+04  0.15658463306E+04  0.00000000000E+00 0.  1.
          2   -1    0    0  501    0  0.00000000000E+00 -0.00000000000E+00 -0.52522612049E+03  0.52522612049E+03  0.00000000000E+00 0. -1.
         23    2    1    2    0    0 -0.76277939573E+03  0.37552257692E+03  0.16561365961E+03  0.87103717465E+03  0.91805571967E+02 0.  0.
         11    1    3    3    0    0 -0.68405422718E+03  0.35854058787E+03  0.16833832924E+03  0.79045514229E+03  0.00000000000E+00 0. -1.
        -11    1    3    3    0    0 -0.78725168545E+02  0.16981989052E+02 -0.27246696349E+01  0.80582032360E+02  0.00000000000E+00 0.  1.
         22    1    1    2    0    0  0.76277939573E+03 -0.37552257692E+03  0.87500655049E+03  0.12200352764E+04  0.00000000000E+00 0.  1.
<mgrwt>
<rscale>  0 0.18137512E+04</rscale>
<asrwt>0</asrwt>
<pdfrwt beam="1">  1        2 0.80804019E-01 0.18137512E+04</pdfrwt>
<pdfrwt beam="2">  1       -2 0.24089943E+00 0.18137512E+04</pdfrwt>
<totfact> 0.40078974E+00</totfact>
</mgrwt>
</event>
<event>
 6    1  0.1072514E-005  0.2367293E+04  0.7818608E-02  0.8451851E-01
          2   -1    0    0  501    0  0.00000000000E+00  0.00000000000E+00  0.12285057387E+04  0.12285057387E+04  0.00000000000E+00 0. -1.
         -2   -1    0    0    0  501 -0.00000000000E+00 -0.00000000000E+00 -0.11404257566E+04  0.11404257566E+04  0.00000000000E+00 0.  1.
         23    2    1    2    0    0 -0.74013313463E+03  0.89413495507E+02  0.96179395793E+03  0.12203811300E+04  0.92144749238E+02 0.  0.
         13    1    3    3    0    0 -0.16620667312E+03  0.58503011734E+02  0.21311636734E+03  0.27652458589E+03  0.00000000000E+00 0.  1.
        -13    1    3    3    0    0 -0.57392646151E+03  0.30910483773E+02  0.74867759060E+03  0.94385654412E+03  0.00000000000E+00 0. -1.
         22    1    1    2    0    0  0.74013313463E+03 -0.89413495507E+02 -0.87371397579E+03  0.11485503653E+04  0.00000000000E+00 0.  1.
<mgrwt>
<rscale>  0 0.23672935E+04</rscale>
<asrwt>0</asrwt>
<pdfrwt beam="1">  1        2 0.18900088E+00 0.23672935E+04</pdfrwt>
<pdfrwt beam="2">  1       -2 0.17545012E+00 0.23672935E+04</pdfrwt>
<totfact> 0.32033652E+00</totfact>
</mgrwt>
</event>
<event>
 6    1  0.1072514E-005  0.3762516E+04  0.7818608E-02  0.8054247E-01
          2   -1    0    0  501    0  0.00000000000E+00  0.00000000000E+00  0.18126352471E+04  0.18126352471E+04  0.00000000000E+00 0.  1.
         -2   -1    0    0    0  501 -0.00000000000E+00 -0.00000000000E+00 -0.19524787305E+04  0.19524787305E+04  0.00000000000E+00 0. -1.
         23    2    1    2    0    0  0.13527928030E+04  0.11592439025E+04 -0.67112096185E+03  0.19060414797E+04  0.93252258615E+02 0.  0.
         13    1    3    3    0    0  0.76737069812E+03  0.70583860007E+03 -0.36274381901E+03  0.11039243615E+04  0.00000000000E+00 0. -1.
        -13    1    3    3    0    0  0.58542210487E+03  0.45340530242E+03 -0.30837714284E+03  0.80211711823E+03  0.00000000000E+00 0.  1.
         22    1    1    2    0    0 -0.13527928030E+04 -0.11592439025E+04  0.53127747850E+03  0.18590724979E+04  0.00000000000E+00 0.  1.
<mgrwt>
<rscale>  0 0.37625161E+04</rscale>
<asrwt>0</asrwt>
<pdfrwt beam="1">  1        2 0.27886696E+00 0.37625161E+04</pdfrwt>
<pdfrwt beam="2">  1       -2 0.30038134E+00 0.37625161E+04</pdfrwt>
<totfact> 0.21587170E-01</totfact>
</mgrwt>
</event>
<event>
 6    1  0.1072514E-005  0.4928006E+04  0.7818608E-02  0.7839710E-01
         -2   -1    0    0    0  501 -0.00000000000E+00  0.00000000000E+00  0.13552752193E+04  0.13552752193E+04  0.00000000000E+00 0.  1.
          2   -1    0    0  501    0  0.00000000000E+00 -0.00000000000E+00 -0.44797616983E+04  0.44797616983E+04  0.00000000000E+00 0. -1.
         23    2    1    2    0    0 -0.12541982390E+04 -0.12585092840E+04 -0.35826282556E+04  0.40001656066E+04  0.96129195645E+02 0.  0.
         13    1    3    3    0    0 -0.40164634120E+03 -0.46554745880E+03 -0.12114673036E+04  0.13585680872E+04  0.00000000000E+00 0. -1.
        -13    1    3    3    0    0 -0.85255189780E+03 -0.79296182519E+03 -0.23711609520E+04  0.26415975194E+04  0.00000000000E+00 0.  1.
         22    1    1    2    0    0  0.12541982390E+04  0.12585092840E+04  0.45814177659E+03  0.18348713110E+04  0.00000000000E+00 0.  1.
<mgrwt>
<rscale>  0 0.49280057E+04</rscale>
<asrwt>0</asrwt>
<pdfrwt beam="1">  1        2 0.68919412E+00 0.49280057E+04</pdfrwt>
<pdfrwt beam="2">  1       -2 0.20850388E+00 0.49280057E+04</pdfrwt>
<totfact> 0.10938351E-02</totfact>
</mgrwt>
</event>
<event>
 6    1  0.1072514E-005  0.2369631E+04  0.7818608E-02  0.8450962E-01
          2   -1    0    0  501    0  0.00000000000E+00  0.00000000000E+00  0.10012137131E+04  0.10012137131E+04  0.00000000000E+00 0. -1.
         -2   -1    0    0    0  501 -0.00000000000E+00 -0.00000000000E+00 -0.14020860266E+04  0.14020860266E+04  0.00000000000E+00 0.  1.
         23    2    1    2    0    0  0.27030620542E+03  0.44427182125E+03  0.87709233316E+03  0.10235763856E+04  0.89301514017E+02 0.  0.
         11    1    3    3    0    0  0.57150809939E+02  0.37718718555E+02  0.12177607714E+03  0.13970801612E+03  0.00000000000E+00 0. -1.
        -11    1    3    3    0    0  0.21315539549E+03  0.40655310269E+03  0.75531625602E+03  0.88386836946E+03  0.00000000000E+00 0.  1.
         22    1    1    2    0    0 -0.27030620542E+03 -0.44427182125E+03 -0.12779646466E+04  0.13797233541E+04  0.00000000000E+00 0.  1.
<mgrwt>
<rscale>  0 0.23696310E+04</rscale>
<asrwt>0</asrwt>
<pdfrwt beam="1">  1        2 0.15403288E+00 0.23696310E+04</pdfrwt>
<pdfrwt beam="2">  1       -2 0.21570554E+00 0.23696310E+04</pdfrwt>
<totfact> 0.23851418E+00</totfact>
</mgrwt>
</event>
<event>
 6    1  0.1072514E-005  0.2358756E+04  0.7818608E-02  0.8455108E-01
          1   -1    0    0  501    0  0.00000000000E+00  0.00000000000E+00  0.26542856316E+04  0.26542856316E+04  0.00000000000E+00 0. -1.
         -1   -1    0    0    0  501 -0.00000000000E+00 -0.00000000000E+00 -0.52403248137E+03  0.52403248137E+03  0.00000000000E+00 0.  1.
         23    2    1    2    0    0  0.42131095146E+03  0.39373256621E+03 -0.31737800596E+03  0.66367568744E+03  0.84902107809E+02 0.  0.
         13    1    3    3    0    0  0.24090806837E+03  0.22866281630E+03 -0.13459443936E+03  0.35838393389E+03  0.00000000000E+00 0. -1.
        -13    1    3    3    0    0  0.18040288309E+03  0.16506974991E+03 -0.18278356661E+03  0.30529175355E+03  0.00000000000E+00 0.  1.
         22    1    1    2    0    0 -0.42131095146E+03 -0.39373256621E+03  0.24476311562E+04  0.25146424255E+04  0.00000000000E+00 0. -1.
<mgrwt>
<rscale>  0 0.23587555E+04</rscale>
<asrwt>0</asrwt>
<pdfrwt beam="1">  1        1 0.40835163E+00 0.23587555E+04</pdfrwt>
<pdfrwt beam="2">  1       -1 0.80620383E-01 0.23587555E+04</pdfrwt>
<totfact> 0.14583806E+00</totfact>
</mgrwt>
</event>
<event>
 6    1  0.1519700E-005  0.3717882E+04  0.7818608E-02  0.8064011E-01
         -2   -1    0    0    0  501 -0.00000000000E+00  0.00000000000E+00  0.16605423600E+04  0.16605423600E+04  0.00000000000E+00 0.  1.
          2   -1    0    0  501    0  0.00000000000E+00 -0.00000000000E+00 -0.20810438390E+04  0.20810438390E+04  0.00000000000E+00 0. -1.
         23    2    1    2    0    0  0.52051090978E+03 -0.73755375623E+02 -0.20034344151E+04  0.20736389149E+04  0.99284595972E+02 0.  0.
         11    1    3    3    0    0  0.27525904006E+03  0.21691864139E+01 -0.92662839872E+03  0.96665010930E+03  0.00000000000E+00 0. -1.
        -11    1    3    3    0    0  0.24525186972E+03 -0.75924562037E+02 -0.10768060164E+04  0.11069888055E+04  0.00000000000E+00 0.  1.
         22    1    1    2    0    0 -0.52051090978E+03  0.73755375623E+02  0.15829329361E+04  0.16679472842E+04  0.00000000000E+00 0.  1.
<mgrwt>
<rscale>  0 0.37178819E+04</rscale>
<asrwt>0</asrwt>
<pdfrwt beam="1">  1        2 0.32016059E+00 0.37178819E+04</pdfrwt>
<pdfrwt beam="2">  1       -2 0.25546806E+00 0.37178819E+04</pdfrwt>
<totfact> 0.28909329E-01</totfact>
</mgrwt>
</event>
<event>
 6    1  0.1072514E-005  0.1590658E+04  0.7818608E-02  0.8826308E-01
         -1   -1    0    0    0  501 -0.00000000000E+00  0.00000000000E+00  0.53642316891E+03  0.53642316891E+03  0.00000000000E+00 0.  1.
          1   -1    0    0  501    0  0.00000000000E+00 -0.00000000000E+00 -0.11791965686E+04  0.11791965686E+04  0.00000000000E+00 0. -1.
         23    2    1    2    0    0 -0.39659485575E+03 -0.68617568615E+03 -0.33759784271E+03  0.86635142156E+03  0.92021358266E+02 0.  0.
         13    1    3    3    0    0 -0.17642804779E+03 -0.31756030871E+03 -0.10557311710E+03  0.37830819284E+03  0.00000000000E+00 0.  1.
        -13    1    3    3    0    0 -0.22016680796E+03 -0.36861537744E+03 -0.23202472561E+03  0.48804322872E+03  0.00000000000E+00 0. -1.
         22    1    1    2    0    0  0.39659485575E+03  0.68617568615E+03 -0.30517555694E+03  0.84926831591E+03  0.00000000000E+00 0.  1.
<mgrwt>
<rscale>  0 0.15906582E+04</rscale>
<asrwt>0</asrwt>
<pdfrwt beam="1">  1        1 0.18141486E+00 0.15906582E+04</pdfrwt>
<pdfrwt beam="2">  1       -1 0.82526642E-01 0.15906582E+04</pdfrwt>
<totfact> 0.15512388E+01</totfact>
</mgrwt>
</event>
<event>
 6    1  0.1072514E-005  0.9503155E+03  0.7818608E-02  0.9364782E-01
         -2   -1    0    0    0  501 -0.00000000000E+00  0.00000000000E+00  0.73329611124E+03  0.73329611124E+03  0.00000000000E+00 0.  1.
          2   -1    0    0  501    0  0.00000000000E+00 -0.00000000000E+00 -0.30789046575E+03  0.30789046575E+03  0.00000000000E+00 0. -1.
         23    2    1    2    0    0 -0.19916023997E+03  0.21208597930E+03  0.62009906951E+03  0.69111402286E+03  0.92035171426E+02 0.  0.
         13    1    3    3    0    0 -0.78931019634E+02  0.47239714016E+02  0.12158098216E+03  0.15245862279E+03  0.00000000000E+00 0. -1.
        -13    1    3    3    0    0 -0.12022922033E+03  0.16484626529E+03  0.49851808736E+03  0.53865540007E+03  0.00000000000E+00 0.  1.
         22    1    1    2    0    0  0.19916023997E+03 -0.21208597930E+03 -0.19469342403E+03  0.35007255414E+03  0.00000000000E+00 0. -1.
<mgrwt>
<rscale>  0 0.95031549E+03</rscale>
<asrwt>0</asrwt>
<pdfrwt beam="1">  1        2 0.47367764E-01 0.95031549E+03</pdfrwt>
<pdfrwt beam="2">  1       -2 0.11281479E+00 0.95031549E+03</pdfrwt>
<totfact> 0.65947531E+01</totfact>
</mgrwt>
</event>
<event>
 6    1  0.1072514E-005  0.2431115E+03  0.7818608E-02  0.1117737E+00
          1   -1    0    0  501    0  0.00000000000E+00  0.00000000000E+00  0.41285517992E+03  0.41285517992E+03  0.00000000000E+00 0. -1.
         -1   -1    0    0    0  501 -0.00000000000E+00 -0.00000000000E+00 -0.35789306891E+02  0.35789306891E+02  0.00000000000E+00 0.  1.
         23    2    1    2    0    0  0.21481942264E+02  0.88648026003E+02  0.12740759530E+03  0.18284531075E+03  0.94232510125E+02 0.  0.
         13    1    3    3    0    0  0.59537463780E+01  0.29745084887E+02  0.11722294070E+03  0.12108441269E+03  0.00000000000E+00 0. -1.
        -13    1    3    3    0    0  0.15528195886E+02  0.58902941116E+02  0.10184654605E+02  0.61760898058E+02  0.00000000000E+00 0.  1.
         22    1    1    2    0    0 -0.21481942264E+02 -0.88648026003E+02  0.24965827773E+03  0.26579917606E+03  0.00000000000E+00 0. -1.
<mgrwt>
<rscale>  0 0.24311150E+03</rscale>
<asrwt>0</asrwt>
<pdfrwt beam="1">  1        1 0.63516178E-01 0.24311150E+03</pdfrwt>
<pdfrwt beam="2">  1       -1 0.55060475E-02 0.24311150E+03</pdfrwt>
<totfact> 0.87354853E+03</totfact>
</mgrwt>
</event>
<event>
 6    1  0.1072514E-005  0.2668924E+04  0.7818608E-02  0.8345159E-01
         -1   -1    0    0    0  501 -0.00000000000E+00  0.00000000000E+00  0.13407561601E+04  0.13407561601E+04  0.00000000000E+00 0.  1.
          1   -1    0    0  501    0  0.00000000000E+00 -0.00000000000E+00 -0.13281978438E+04  0.13281978438E+04  0.00000000000E+00 0. -1.
         23    2    1    2    0    0 -0.35863070721E+03  0.93658149670E+02  0.12865871542E+04  0.13421015959E+04  0.92424863058E+02 0.  0.
         11    1    3    3    0    0 -0.23935266625E+03  0.97599414317E+02  0.96722519987E+03  0.10011692823E+04  0.00000000000E+00 0. -1.
        -11    1    3    3    0    0 -0.11927804096E+03 -0.39412646475E+01  0.31936195429E+03  0.34093231361E+03  0.00000000000E+00 0.  1.
         22    1    1    2    0    0  0.35863070721E+03 -0.93658149670E+02 -0.12740288378E+04  0.13268524080E+04  0.00000000000E+00 0. -1.
<mgrwt>
<rscale>  0 0.26689245E+04</rscale>
<asrwt>0</asrwt>
<pdfrwt beam="1">  1        1 0.20433813E+00 0.26689245E+04</pdfrwt>
<pdfrwt beam="2">  1       -1 0.20627018E+00 0.26689245E+04</pdfrwt>
<totfact> 0.10305707E+00</totfact>
</mgrwt>
</event>
<event>
 6    1  0.1072514E-005  0.3287397E+04  0.7818608E-02  0.8166110E-01
          2   -1    0    0  501    0  0.00000000000E+00  0.00000000000E+00  0.18919443695E+04  0.18919443695E+04  0.00000000000E+00 0. -1.
         -2   -1    0    0    0  501 -0.00000000000E+00 -0.00000000000E+00 -0.14280254665E+04  0.14280254665E+04  0.00000000000E+00 0.  1.
         23    2    1    2    0    0 -0.43506067767E+03 -0.90549611539E+03 -0.10798955950E+04  0.14780783591E+04  0.96644355317E+02 0.  0.
         11    1    3    3    0    0 -0.41198467853E+03 -0.82121376632E+03 -0.10161026987E+04  0.13698861704E+04  0.00000000000E+00 0.  1.
        -11    1    3    3    0    0 -0.23075999142E+02 -0.84282349065E+02 -0.63792896248E+02  0.10819218878E+03  0.00000000000E+00 0. -1.
         22    1    1    2    0    0  0.43506067767E+03  0.90549611539E+03  0.15438144980E+04  0.18418914768E+04  0.00000000000E+00 0. -1.
<mgrwt>
<rscale>  0 0.32873970E+04</rscale>
<asrwt>0</asrwt>
<pdfrwt beam="1">  1        2 0.29106836E+00 0.32873970E+04</pdfrwt>
<pdfrwt beam="2">  1       -2 0.21969623E+00 0.32873970E+04</pdfrwt>
<totfact> 0.63683172E-01</totfact>
</mgrwt>
</event>
<event>
 6    1  0.1072514E-005  0.2533968E+04  0.7818608E-02  0.8390983E-01
         -1   -1    0    0    0  501 -0.00000000000E+00  0.00000000000E+00  0.18920486062E+04  0.18920486062E+04  0.00000000000E+00 0.  1.
          1   -1    0    0  501    0  0.00000000000E+00 -0.00000000000E+00 -0.84841796263E+03  0.84841796263E+03  0.00000000000E+00 0. -1.
         23    2    1    2    0    0  0.52622025087E+03 -0.54311191688E+03  0.16197978218E+04  0.17897579258E+04  0.87236133200E+02 0.  0.
         11    1    3    3    0    0  0.30896491787E+03 -0.25629495190E+03  0.85381864328E+03  0.94347903975E+03  0.00000000000E+00 0. -1.
        -11    1    3    3    0    0  0.21725533301E+03 -0.28681696498E+03  0.76597917851E+03  0.84627888609E+03  0.00000000000E+00 0.  1.
         22    1    1    2    0    0 -0.52622025087E+03  0.54311191688E+03 -0.57616717819E+03  0.95070864302E+03  0.00000000000E+00 0. -1.
<mgrwt>
<rscale>  0 0.25339677E+04</rscale>
<asrwt>0</asrwt>
<pdfrwt beam="1">  1        1 0.13052584E+00 0.25339677E+04</pdfrwt>
<pdfrwt beam="2">  1       -1 0.29108440E+00 0.25339677E+04</pdfrwt>
<totfact> 0.67135313E-01</totfact>
</mgrwt>
</event>
<event>
 6    1  0.1072514E-005  0.4127317E+04  0.7818608E-02  0.7979344E-01
         -1   -1    0    0    0  501 -0.00000000000E+00  0.00000000000E+00  0.13516302268E+04  0.13516302268E+04  0.00000000000E+00 0.  1.
          1   -1    0    0  501    0  0.00000000000E+00 -0.00000000000E+00 -0.31507778793E+04  0.31507778793E+04  0.00000000000E+00 0. -1.
         23    2    1    2    0    0  0.17150363998E+04  0.50017153064E+02  0.34882104612E+03  0.17532953221E+04  0.92286488877E+02 0.  0.
         13    1    3    3    0    0  0.11300752562E+04  0.58428712932E+02  0.19353965941E+03  0.11480163757E+04  0.00000000000E+00 0.  1.
        -13    1    3    3    0    0  0.58496114367E+03 -0.84115598685E+01  0.15528138672E+03  0.60527894644E+03  0.00000000000E+00 0. -1.
         22    1    1    2    0    0 -0.17150363998E+04 -0.50017153064E+02 -0.21479686986E+04  0.27491127839E+04  0.00000000000E+00 0. -1.
<mgrwt>
<rscale>  0 0.41273171E+04</rscale>
<asrwt>0</asrwt>
<pdfrwt beam="1">  1        1 0.48473505E+00 0.41273171E+04</pdfrwt>
<pdfrwt beam="2">  1       -1 0.20794311E+00 0.41273171E+04</pdfrwt>
<totfact> 0.47547288E-02</totfact>
</mgrwt>
</event>
<event>
 6    1  0.1072514E-005  0.6753594E+03  0.7818608E-02  0.9760324E-01
         -1   -1    0    0    0  501 -0.00000000000E+00  0.00000000000E+00  0.38558428118E+02  0.38558428118E+02  0.00000000000E+00 0.  1.
          1   -1    0    0  501    0  0.00000000000E+00 -0.00000000000E+00 -0.29572677180E+04  0.29572677180E+04  0.00000000000E+00 0. -1.
         23    2    1    2    0    0  0.16843629909E+03  0.13817516256E+03 -0.25947309178E+04  0.26054095123E+04  0.89816638683E+02 0.  0.
         11    1    3    3    0    0  0.10496369000E+03  0.13598213803E+03 -0.19562560481E+04  0.19637836550E+04  0.00000000000E+00 0. -1.
        -11    1    3    3    0    0  0.63472609089E+02  0.21930245351E+01 -0.63847486970E+03  0.64162585726E+03  0.00000000000E+00 0.  1.
         22    1    1    2    0    0 -0.16843629909E+03 -0.13817516256E+03 -0.32397837218E+03  0.39041663392E+03  0.00000000000E+00 0.  1.
<mgrwt>
<rscale>  0 0.67535944E+03</rscale>
<asrwt>0</asrwt>
<pdfrwt beam="1">  1        1 0.45496445E+00 0.67535944E+03</pdfrwt>
<pdfrwt beam="2">  1       -1 0.59320634E-02 0.67535944E+03</pdfrwt>
<totfact> 0.97695625E+01</totfact>
</mgrwt>
</event>
<event>
 6    1  0.1072514E-005  0.1067059E+04  0.7818608E-02  0.9237907E-01
          2   -1    0    0  501    0  0.00000000000E+00  0.00000000000E+00  0.15173605417E+04  0.15173605417E+04  0.00000000000E+00 0.  1.
         -2   -1    0    0    0  501 -0.00000000000E+00 -0.00000000000E+00 -0.18759781605E+03  0.18759781605E+03  0.00000000000E+00 0. -1.
         23    2    1    2    0    0 -0.79158001694E+02  0.31229537764E+03  0.13414300343E+04  0.13825757927E+04  0.91032375505E+02 0.  0.
         13    1    3    3    0    0  0.19403533949E+02  0.77389731224E+02  0.29745407642E+03  0.30796849710E+03  0.00000000000E+00 0.  1.
        -13    1    3    3    0    0 -0.98561535643E+02  0.23490564642E+03  0.10439759579E+04  0.10746072956E+04  0.00000000000E+00 0. -1.
         22    1    1    2    0    0  0.79158001694E+02 -0.31229537764E+03 -0.11667308727E+02  0.32238256501E+03  0.00000000000E+00 0. -1.
<mgrwt>
<rscale>  0 0.10670586E+04</rscale>
<asrwt>0</asrwt>
<pdfrwt beam="1">  1        2 0.23344007E+00 0.10670586E+04</pdfrwt>
<pdfrwt beam="2">  1       -2 0.28861204E-01 0.10670586E+04</pdfrwt>
<totfact> 0.13595278E+02</totfact>
</mgrwt>
</event>
<event>
 6    1  0.1072514E-005  0.3058772E+04  0.7818608E-02  0.8227145E-01
         -1   -1    0    0    0  501 -0.00000000000E+00  0.00000000000E+00  0.87863741216E+03  0.87863741216E+03  0.00000000000E+00 0.  1.
          1   -1    0    0  501    0  0.00000000000E+00 -0.00000000000E+00 -0.26621008651E+04  0.26621008651E+04  0.00000000000E+00 0. -1.
         23    2    1    2    0    0 -0.11918450902E+04  0.69481486891E+03 -0.13228661819E+03  0.13890767424E+04  0.93659093395E+02 0.  0.
         13    1    3    3    0    0 -0.21380238565E+03  0.15679336052E+03 -0.49838936041E+02  0.26977682917E+03  0.00000000000E+00 0.  1.
        -13    1    3    3    0    0 -0.97804270453E+03  0.53802150839E+03 -0.82447682146E+02  0.11192999132E+04  0.00000000000E+00 0. -1.
         22    1    1    2    0    0  0.11918450902E+04 -0.69481486891E+03 -0.16511768347E+04  0.21516615348E+04  0.00000000000E+00 0. -1.
<mgrwt>
<rscale>  0 0.30587719E+04</rscale>
<asrwt>0</asrwt>
<pdfrwt beam="1">  1        1 0.40955398E+00 0.30587719E+04</pdfrwt>
<pdfrwt beam="2">  1       -1 0.13517499E+00 0.30587719E+04</pdfrwt>
<totfact> 0.40554081E-01</totfact>
</mgrwt>
</event>
<event>
 6    1  0.1072514E-005  0.2685880E+04  0.7818608E-02  0.8339601E-01
         -1   -1    0    0    0  501 -0.00000000000E+00  0.00000000000E+00  0.12648402173E+04  0.12648402173E+04  0.00000000000E+00 0.  1.
          1   -1    0    0  501    0  0.00000000000E+00 -0.00000000000E+00 -0.14258618363E+04  0.14258618363E+04  0.00000000000E+00 0. -1.
         23    2    1    2    0    0 -0.80675907689E+03  0.78682809893E+03  0.64824429742E+03  0.13033052145E+04  0.91788603228E+02 0.  0.
         13    1    3    3    0    0 -0.47475834390E+03  0.51136252704E+03  0.36794964307E+03  0.78884349461E+03  0.00000000000E+00 0.  1.
        -13    1    3    3    0    0 -0.33200073300E+03  0.27546557189E+03  0.28029465435E+03  0.51446171992E+03  0.00000000000E+00 0. -1.
         22    1    1    2    0    0  0.80675907689E+03 -0.78682809893E+03 -0.80926591645E+03  0.13873968390E+04  0.00000000000E+00 0. -1.
<mgrwt>
<rscale>  0 0.26858797E+04</rscale>
<asrwt>0</asrwt>
<pdfrwt beam="1">  1        1 0.21936336E+00 0.26858797E+04</pdfrwt>
<pdfrwt beam="2">  1       -1 0.19459080E+00 0.26858797E+04</pdfrwt>
<totfact> 0.10570564E+00</totfact>
</mgrwt>
</event>
<event>
 6    1  0.1072514E-005  0.1259968E+04  0.7818608E-02  0.9061928E-01
         -2   -1    0    0    0  501 -0.00000000000E+00  0.00000000000E+00  0.18235907285E+03  0.18235907285E+03  0.00000000000E+00 0.  1.
          2   -1    0    0  501    0  0.00000000000E+00 -0.00000000000E+00 -0.21763632655E+04  0.21763632655E+04  0.00000000000E+00 0. -1.
         23    2    1    2    0    0  0.17092244288E+03 -0.25255579424E+03 -0.20270225427E+04  0.20519828363E+04  0.93884298484E+02 0.  0.
         11    1    3    3    0    0  0.13824091740E+02 -0.72974813493E+02 -0.32904094786E+03  0.33731939506E+03  0.00000000000E+00 0.  1.
        -11    1    3    3    0    0  0.15709835114E+03 -0.17958098075E+03 -0.16979815948E+04  0.17146634413E+04  0.00000000000E+00 0. -1.
         22    1    1    2    0    0 -0.17092244288E+03  0.25255579424E+03  0.33018349969E+02  0.30673950205E+03  0.00000000000E+00 0.  1.
<mgrwt>
<rscale>  0 0.12599676E+04</rscale>
<asrwt>0</asrwt>
<pdfrwt beam="1">  1        2 0.33482510E+00 0.12599676E+04</pdfrwt>
<pdfrwt beam="2">  1       -2 0.28055244E-01 0.12599676E+04</pdfrwt>
<totfact> 0.60914023E+01</totfact>
</mgrwt>
</event>
<event>
 6    1  0.1072514E-005  0.1631042E+04  0.7818608E-02  0.8801702E-01
         -2   -1    0    0    0  501 -0.00000000000E+00  0.00000000000E+00  0.20143629235E+03  0.20143629235E+03  0.00000000000E+00 0.  1.
          2   -1    0    0  501    0  0.00000000000E+00 -0.00000000000E+00 -0.33016602853E+04  0.33016602853E+04  0.00000000000E+00 0. -1.
         23    2    1    2    0    0  0.49257640735E+03  0.61234225473E+03 -0.11077447248E+04  0.13612356606E+04  0.90937310066E+02 0.  0.
         13    1    3    3    0    0  0.23568369914E+03  0.30451724712E+03 -0.46560905641E+03  0.60420969311E+03  0.00000000000E+00 0. -1.
        -13    1    3    3    0    0  0.25689270821E+03  0.30782500761E+03 -0.64213566837E+03  0.75702596748E+03  0.00000000000E+00 0.  1.
         22    1    1    2    0    0 -0.49257640735E+03 -0.61234225473E+03 -0.19924792682E+04  0.21418609171E+04  0.00000000000E+00 0. -1.
<mgrwt>
<rscale>  0 0.16310416E+04</rscale>
<asrwt>0</asrwt>
<pdfrwt beam="1">  1        2 0.50794771E+00 0.16310416E+04</pdfrwt>
<pdfrwt beam="2">  1       -2 0.30990201E-01 0.16310416E+04</pdfrwt>
<totfact> 0.10346037E+01</totfact>
</mgrwt>
</event>
<event>
 6    1  0.1072514E-005  0.4387021E+04  0.7818608E-02  0.7930720E-01
         -2   -1    0    0    0  501 -0.00000000000E+00  0.00000000000E+00  0.15217976127E+04  0.15217976127E+04  0.00000000000E+00 0.  1.
          2   -1    0    0  501    0  0.00000000000E+00 -0.00000000000E+00 -0.31617137579E+04  0.31617137579E+04  0.00000000000E+00 0. -1.
         23    2    1    2    0    0 -0.10035679489E+04 -0.74946807919E+02 -0.28999646610E+04  0.30709085324E+04  0.88986106834E+02 0.  0.
         11    1    3    3    0    0 -0.44014993049E+03 -0.73237354193E+02 -0.13372740488E+04  0.14097508833E+04  0.00000000000E+00 0.  1.
        -11    1    3    3    0    0 -0.56341801841E+03 -0.17094537257E+01 -0.15626906122E+04  0.16611576491E+04  0.00000000000E+00 0. -1.
         22    1    1    2    0    0  0.10035679489E+04  0.74946807919E+02  0.12600485158E+04  0.16126028383E+04  0.00000000000E+00 0.  1.
<mgrwt>
<rscale>  0 0.43870211E+04</rscale>
<asrwt>0</asrwt>
<pdfrwt beam="1">  1        2 0.48641750E+00 0.43870211E+04</pdfrwt>
<pdfrwt beam="2">  1       -2 0.23412271E+00 0.43870211E+04</pdfrwt>
<totfact> 0.84535203E-02</totfact>
</mgrwt>
</event>
<event>
 6    1  0.1072514E-005  0.1741583E+04  0.7818608E-02  0.8737997E-01
          2   -1    0    0  501    0  0.00000000000E+00  0.00000000000E+00  0.97180519797E+03  0.97180519797E+03  0.00000000000E+00 0. -1.
         -2   -1    0    0    0  501 -0.00000000000E+00 -0.00000000000E+00 -0.78027758397E+03  0.78027758397E+03  0.00000000000E+00 0.  1.
         23    2    1    2    0    0 -0.23592917108E+03  0.34598584026E+03 -0.66931298350E+03  0.79478695006E+03  0.91310736939E+02 0.  0.
         13    1    3    3    0    0 -0.16572392785E+03  0.30045866125E+03 -0.50740871536E+03  0.61253851455E+03  0.00000000000E+00 0.  1.
        -13    1    3    3    0    0 -0.70205243225E+02  0.45527179014E+02 -0.16190426814E+03  0.18224843552E+03  0.00000000000E+00 0. -1.
         22    1    1    2    0    0  0.23592917108E+03 -0.34598584026E+03  0.86084059750E+03  0.95729583188E+03  0.00000000000E+00 0. -1.
<mgrwt>
<rscale>  0 0.17415830E+04</rscale>
<asrwt>0</asrwt>
<pdfrwt beam="1">  1        2 0.14950849E+00 0.17415830E+04</pdfrwt>
<pdfrwt beam="2">  1       -2 0.12004271E+00 0.17415830E+04</pdfrwt>
<totfact> 0.13219486E+01</totfact>
</mgrwt>
</event>
<event>
 6    1  0.1072514E-005  0.3109833E+04  0.7818608E-02  0.8213045E-01
          1   -1    0    0  501    0  0.00000000000E+00  0.00000000000E+00  0.19177270376E+04  0.19177270376E+04  0.00000000000E+00 0. -1.
         -1   -1    0    0    0  501 -0.00000000000E+00 -0.00000000000E+00 -0.12607449244E+04  0.12607449244E+04  0.00000000000E+00 0.  1.
         23    2    1    2    0    0 -0.74547745672E+02 -0.13134103708E+04 -0.51601263232E+03  0.14159394541E+04  0.89506047038E+02 0.  0.
         11    1    3    3    0    0  0.15505687324E+02 -0.48620461201E+03 -0.18654083806E+03  0.52099216437E+03  0.00000000000E+00 0.  1.
        -11    1    3    3    0    0 -0.90053432996E+02 -0.82720575880E+03 -0.32947179426E+03  0.89494728973E+03  0.00000000000E+00 0. -1.
         22    1    1    2    0    0  0.74547745672E+02  0.13134103708E+04  0.11729947455E+04  0.17625325079E+04  0.00000000000E+00 0.  1.
<mgrwt>
<rscale>  0 0.31098326E+04</rscale>
<asrwt>0</asrwt>
<pdfrwt beam="1">  1        1 0.29503493E+00 0.31098326E+04</pdfrwt>
<pdfrwt beam="2">  1       -1 0.19396076E+00 0.31098326E+04</pdfrwt>
<totfact> 0.47364232E-01</totfact>
</mgrwt>
</event>
<event>
 6    1  0.1072514E-005  0.1524885E+04  0.7818608E-02  0.8868071E-01
          1   -1    0    0  501    0  0.00000000000E+00  0.00000000000E+00  0.74265670118E+03  0.74265670118E+03  0.00000000000E+00 0. -1.
         -1   -1    0    0    0  501 -0.00000000000E+00 -0.00000000000E+00 -0.78275514630E+03  0.78275514630E+03  0.00000000000E+00 0.  1.
         23    2    1    2    0    0  0.55773166815E+03  0.35121705391E+03 -0.39791217571E+03  0.77544604932E+03  0.92544277039E+02 0.  0.
         11    1    3    3    0    0  0.61190833674E+02  0.73136074225E+02 -0.41890518313E+02  0.10415382376E+03  0.00000000000E+00 0. -1.
        -11    1    3    3    0    0  0.49654083448E+03  0.27808097968E+03 -0.35602165740E+03  0.67129222556E+03  0.00000000000E+00 0.  1.
         22    1    1    2    0    0 -0.55773166815E+03 -0.35121705391E+03  0.35781373060E+03  0.74996579816E+03  0.00000000000E+00 0. -1.
<mgrwt>
<rscale>  0 0.15248847E+04</rscale>
<asrwt>0</asrwt>
<pdfrwt beam="1">  1        1 0.11425488E+00 0.15248847E+04</pdfrwt>
<pdfrwt beam="2">  1       -1 0.12042387E+00 0.15248847E+04</pdfrwt>
<totfact> 0.14741071E+01</totfact>
</mgrwt>
</event>
<event>
 6    1  0.1072514E-005  0.5196989E+04  0.7818608E-02  0.7798818E-01
         -1   -1    0    0    0  501 -0.00000000000E+00  0.00000000000E+00  0.24451734111E+04  0.24451734111E+04  0.00000000000E+00 0.  1.
          1   -1    0    0  501    0  0.00000000000E+00 -0.00000000000E+00 -0.27614295279E+04  0.27614295279E+04  0.00000000000E+00 0. -1.
         23    2    1    2    0    0 -0.55190072426E+03  0.55159570783E+03 -0.26405313243E+04  0.27548469409E+04  0.89015497008E+02 0.  0.
         11    1    3    3    0    0 -0.30888974134E+03  0.31514974738E+03 -0.13370522625E+04  0.14079918282E+04  0.00000000000E+00 0. -1.
        -11    1    3    3    0    0 -0.24301098292E+03  0.23644596046E+03 -0.13034790618E+04  0.13468551127E+04  0.00000000000E+00 0.  1.
         22    1    1    2    0    0  0.55190072426E+03 -0.55159570783E+03  0.23242752075E+04  0.24517559982E+04  0.00000000000E+00 0.  1.
<mgrwt>
<rscale>  0 0.51969892E+04</rscale>
<asrwt>0</asrwt>
<pdfrwt beam="1">  1        1 0.42483531E+00 0.51969892E+04</pdfrwt>
<pdfrwt beam="2">  1       -1 0.37618053E+00 0.51969892E+04</pdfrwt>
<totfact> 0.65542508E-03</totfact>
</mgrwt>
</event>
<event>
 6    1  0.1072514E-005  0.2384591E+04  0.7818608E-02  0.8445295E-01
          1   -1    0    0  501    0  0.00000000000E+00  0.00000000000E+00  0.48627397718E+03  0.48627397718E+03  0.00000000000E+00 0. -1.
         -1   -1    0    0    0  501 -0.00000000000E+00 -0.00000000000E+00 -0.29233911424E+04  0.29233911424E+04  0.00000000000E+00 0.  1.
         23    2    1    2    0    0 -0.50668315536E+03 -0.82311586892E+03 -0.22145099957E+04  0.24177974341E+04  0.86269100466E+02 0.  0.
         13    1    3    3    0    0 -0.21776855064E+02 -0.76349514208E+02 -0.15870618293E+03  0.17745740964E+03  0.00000000000E+00 0. -1.
        -13    1    3    3    0    0 -0.48490630029E+03 -0.74676635471E+03 -0.20558038127E+04  0.22403400244E+04  0.00000000000E+00 0.  1.
         22    1    1    2    0    0  0.50668315536E+03  0.82311586892E+03 -0.22260716953E+03  0.99186768549E+03  0.00000000000E+00 0. -1.
<mgrwt>
<rscale>  0 0.23845914E+04</rscale>
<asrwt>0</asrwt>
<pdfrwt beam="1">  1        1 0.74811382E-01 0.23845914E+04</pdfrwt>
<pdfrwt beam="2">  1       -1 0.44975248E+00 0.23845914E+04</pdfrwt>
<totfact> 0.13417336E-01</totfact>
</mgrwt>
</event>
<event>
 6    1  0.1072514E-005  0.2523868E+04  0.7818608E-02  0.8394531E-01
          2   -1    0    0  501    0  0.00000000000E+00  0.00000000000E+00  0.15422007331E+04  0.15422007331E+04  0.00000000000E+00 0. -1.
         -2   -1    0    0    0  501 -0.00000000000E+00 -0.00000000000E+00 -0.10326008415E+04  0.10326008415E+04  0.00000000000E+00 0.  1.
         23    2    1    2    0    0  0.10770182379E+04 -0.25729893851E+02 -0.41209671979E+03  0.11570022392E+04  0.90554749862E+02 0.  0.
         13    1    3    3    0    0  0.14903342174E+03  0.37423547674E+01 -0.90656586811E+02  0.17448089508E+03  0.00000000000E+00 0. -1.
        -13    1    3    3    0    0  0.92798481618E+03 -0.29472248618E+02 -0.32144013298E+03  0.98252134409E+03  0.00000000000E+00 0.  1.
         22    1    1    2    0    0 -0.10770182379E+04  0.25729893851E+02  0.92169661138E+03  0.14177993355E+04  0.00000000000E+00 0. -1.
<mgrwt>
<rscale>  0 0.25238683E+04</rscale>
<asrwt>0</asrwt>
<pdfrwt beam="1">  1        2 0.23726165E+00 0.25238683E+04</pdfrwt>
<pdfrwt beam="2">  1       -2 0.15886167E+00 0.25238683E+04</pdfrwt>
<totfact> 0.27477228E+00</totfact>
</mgrwt>
</event>
<event>
 6    1  0.1072514E-005  0.8203250E+03  0.7818608E-02  0.9531055E-01
          1   -1    0    0  501    0  0.00000000000E+00  0.00000000000E+00  0.40136861771E+03  0.40136861771E+03  0.00000000000E+00 0. -1.
         -1   -1    0    0    0  501 -0.00000000000E+00 -0.00000000000E+00 -0.41914901455E+03  0.41914901455E+03  0.00000000000E+00 0.  1.
         23    2    1    2    0    0  0.29716768204E+03 -0.66159383718E+02  0.25637215349E+03  0.41082834005E+03  0.10182115989E+03 0.  0.
         11    1    3    3    0    0  0.23845788258E+03 -0.88152881046E+02  0.17744832242E+03  0.31003386804E+03  0.00000000000E+00 0.  1.
        -11    1    3    3    0    0  0.58709799458E+02  0.21993497328E+02  0.78923831074E+02  0.10079447201E+03  0.00000000000E+00 0. -1.
         22    1    1    2    0    0 -0.29716768204E+03  0.66159383718E+02 -0.27415255034E+03  0.40968929222E+03  0.00000000000E+00 0.  1.
<mgrwt>
<rscale>  0 0.82032496E+03</rscale>
<asrwt>0</asrwt>
<pdfrwt beam="1">  1        1 0.61749018E-01 0.82032496E+03</pdfrwt>
<pdfrwt beam="2">  1       -1 0.64484464E-01 0.82032496E+03</pdfrwt>
<totfact> 0.14732478E+02</totfact>
</mgrwt>
</event>
<event>
 6    1  0.1072514E-005  0.1273532E+04  0.7818608E-02  0.9050822E-01
         -1   -1    0    0    0  501 -0.00000000000E+00  0.00000000000E+00  0.23977259114E+03  0.23977259114E+03  0.00000000000E+00 0.  1.
          1   -1    0    0  501    0  0.00000000000E+00 -0.00000000000E+00 -0.16910655268E+04  0.16910655268E+04  0.00000000000E+00 0. -1.
         23    2    1    2    0    0  0.11684569713E+03 -0.83593131338E+02 -0.16647462396E+04  0.16735386009E+04  0.93331012519E+02 0.  0.
         13    1    3    3    0    0  0.12571103772E+03 -0.57599689483E+02 -0.11916884539E+04  0.11996842753E+04  0.00000000000E+00 0. -1.
        -13    1    3    3    0    0 -0.88653405910E+01 -0.25993441854E+02 -0.47305778567E+03  0.47385432557E+03  0.00000000000E+00 0.  1.
         22    1    1    2    0    0 -0.11684569713E+03  0.83593131338E+02  0.21345330390E+03  0.25729951708E+03  0.00000000000E+00 0.  1.
<mgrwt>
<rscale>  0 0.12735324E+04</rscale>
<asrwt>0</asrwt>
<pdfrwt beam="1">  1        1 0.26016393E+00 0.12735324E+04</pdfrwt>
<pdfrwt beam="2">  1       -1 0.36888091E-01 0.12735324E+04</pdfrwt>
<totfact> 0.33593921E+01</totfact>
</mgrwt>
</event>
<event>
 6    1  0.1072514E-005  0.1589281E+04  0.7818608E-02  0.8827160E-01
         -1   -1    0    0    0  501 -0.00000000000E+00  0.00000000000E+00  0.40673869031E+03  0.40673869031E+03  0.00000000000E+00 0.  1.
          1   -1    0    0  501    0  0.00000000000E+00 -0.00000000000E+00 -0.15524792398E+04  0.15524792398E+04  0.00000000000E+00 0. -1.
         23    2    1    2    0    0  0.51395709721E+02 -0.60623754690E+03  0.50084145176E+02  0.61751670308E+03  0.93021367123E+02 0.  0.
         11    1    3    3    0    0  0.57939840338E+02 -0.22959666353E+03 -0.47910474255E+01  0.23684300103E+03  0.00000000000E+00 0. -1.
        -11    1    3    3    0    0 -0.65441306167E+01 -0.37664088337E+03  0.54875192601E+02  0.38067370205E+03  0.00000000000E+00 0.  1.
         22    1    1    2    0    0 -0.51395709721E+02  0.60623754690E+03 -0.11958246947E+04  0.13417012270E+04  0.00000000000E+00 0. -1.
<mgrwt>
<rscale>  0 0.15892808E+04</rscale>
<asrwt>0</asrwt>
<pdfrwt beam="1">  1        1 0.23884296E+00 0.15892808E+04</pdfrwt>
<pdfrwt beam="2">  1       -1 0.62575183E-01 0.15892808E+04</pdfrwt>
<totfact> 0.14967478E+01</totfact>
</mgrwt>
</event>
<event>
 6    1  0.1072514E-005  0.9589825E+04  0.7818608E-02  0.7356894E-01
         -1   -1    0    0    0  501 -0.00000000000E+00  0.00000000000E+00  0.47756320470E+04  0.47756320470E+04  0.00000000000E+00 0.  1.
          1   -1    0    0  501    0  0.00000000000E+00 -0.00000000000E+00 -0.48142709730E+04  0.48142709730E+04  0.00000000000E+00 0. -1.
         23    2    1    2    0    0  0.33453086135E+04  0.34123783494E+04 -0.40996514549E+03  0.47968560892E+04  0.79631659926E+02 0.  0.
         13    1    3    3    0    0  0.18402194139E+04  0.18979840896E+04 -0.18985969859E+03  0.26504335118E+04  0.00000000000E+00 0. -1.
        -13    1    3    3    0    0  0.15050891997E+04  0.15143942598E+04 -0.22010544690E+03  0.21464225774E+04  0.00000000000E+00 0.  1.
         22    1    1    2    0    0 -0.33453086135E+04 -0.34123783494E+04  0.37132621956E+03  0.47930469308E+04  0.00000000000E+00 0. -1.
<mgrwt>
<rscale>  0 0.95898252E+04</rscale>
<asrwt>0</asrwt>
<pdfrwt beam="1">  1        1 0.74065707E+00 0.95898252E+04</pdfrwt>
<pdfrwt beam="2">  1       -1 0.73471263E+00 0.95898252E+04</pdfrwt>
<totfact> 0.11310206E-06</totfact>
</mgrwt>
</event>
<event>
 6    1  0.1072514E-005  0.3932592E+04  0.7818608E-02  0.8018285E-01
         -2   -1    0    0    0  501 -0.00000000000E+00  0.00000000000E+00  0.17690875303E+04  0.17690875303E+04  0.00000000000E+00 0.  1.
          2   -1    0    0  501    0  0.00000000000E+00 -0.00000000000E+00 -0.21854885730E+04  0.21854885730E+04  0.00000000000E+00 0. -1.
         23    2    1    2    0    0 -0.11428352515E+04 -0.10255288687E+04 -0.14416966713E+04  0.21082248370E+04  0.91327972394E+02 0.  0.
         13    1    3    3    0    0 -0.99825218232E+03 -0.85275450757E+03 -0.12355237603E+04  0.18028357196E+04  0.00000000000E+00 0. -1.
        -13    1    3    3    0    0 -0.14458306916E+03 -0.17277436115E+03 -0.20617291108E+03  0.30538911739E+03  0.00000000000E+00 0.  1.
         22    1    1    2    0    0  0.11428352515E+04  0.10255288687E+04  0.10252956286E+04  0.18463512663E+04  0.00000000000E+00 0.  1.
<mgrwt>
<rscale>  0 0.39325923E+04</rscale>
<asrwt>0</asrwt>
<pdfrwt beam="1">  1        2 0.33622901E+00 0.39325923E+04</pdfrwt>
<pdfrwt beam="2">  1       -2 0.27216731E+00 0.39325923E+04</pdfrwt>
<totfact> 0.19622248E-01</totfact>
</mgrwt>
</event>
<event>
 6    1  0.1072514E-005  0.4175271E+04  0.7818608E-02  0.7970093E-01
          1   -1    0    0  501    0  0.00000000000E+00  0.00000000000E+00  0.39024993015E+04  0.39024993015E+04  0.00000000000E+00 0. -1.
         -1   -1    0    0    0  501 -0.00000000000E+00 -0.00000000000E+00 -0.11167772380E+04  0.11167772380E+04  0.00000000000E+00 0.  1.
         23    2    1    2    0    0  0.16735973612E+03 -0.97916983139E+03  0.35994789978E+04  0.37351491362E+04  0.91143697749E+02 0.  0.
         11    1    3    3    0    0  0.13571311866E+03 -0.73968088532E+03  0.25745240774E+04  0.26821111252E+04  0.00000000000E+00 0.  1.
        -11    1    3    3    0    0  0.31646617452E+02 -0.23948894608E+03  0.10249549204E+04  0.10530380109E+04  0.00000000000E+00 0. -1.
         22    1    1    2    0    0 -0.16735973612E+03  0.97916983139E+03 -0.81375693435E+03  0.12841274034E+04  0.00000000000E+00 0.  1.
<mgrwt>
<rscale>  0 0.41752712E+04</rscale>
<asrwt>0</asrwt>
<pdfrwt beam="1">  1        1 0.60038450E+00 0.41752712E+04</pdfrwt>
<pdfrwt beam="2">  1       -1 0.17181188E+00 0.41752712E+04</pdfrwt>
<totfact> 0.21413700E-02</totfact>
</mgrwt>
</event>
<event>
 6    1  0.1072514E-005  0.6525824E+03  0.7818608E-02  0.9801946E-01
         -2   -1    0    0    0  501 -0.00000000000E+00  0.00000000000E+00  0.68406585402E+03  0.68406585402E+03  0.00000000000E+00 0.  1.
          2   -1    0    0  501    0  0.00000000000E+00 -0.00000000000E+00 -0.15563696248E+03  0.15563696248E+03  0.00000000000E+00 0. -1.
         23    2    1    2    0    0 -0.63503529387E+02  0.28507534549E+03  0.43810386367E+03  0.53399174128E+03  0.88946801727E+02 0.  0.
         13    1    3    3    0    0 -0.34310131780E+02  0.16858450566E+03  0.17826462302E+03  0.24774219768E+03  0.00000000000E+00 0. -1.
        -13    1    3    3    0    0 -0.29193397607E+02  0.11649083984E+03  0.25983924064E+03  0.28624954359E+03  0.00000000000E+00 0.  1.
         22    1    1    2    0    0  0.63503529387E+02 -0.28507534549E+03  0.90325027868E+02  0.30571107522E+03  0.00000000000E+00 0. -1.
<mgrwt>
<rscale>  0 0.65258235E+03</rscale>
<asrwt>0</asrwt>
<pdfrwt beam="1">  1        2 0.23944148E-01 0.65258235E+03</pdfrwt>
<pdfrwt beam="2">  1       -2 0.10524090E+00 0.65258235E+03</pdfrwt>
<totfact> 0.17034547E+02</totfact>
</mgrwt>
</event>
<event>
 6    1  0.1072514E-005  0.4364143E+04  0.7818608E-02  0.7934863E-01
         -1   -1    0    0    0  501 -0.00000000000E+00  0.00000000000E+00  0.29490020859E+04  0.29490020859E+04  0.00000000000E+00 0.  1.
          1   -1    0    0  501    0  0.00000000000E+00 -0.00000000000E+00 -0.16145921564E+04  0.16145921564E+04  0.00000000000E+00 0. -1.
         23    2    1    2    0    0 -0.41823218002E+03  0.16947015204E+04  0.20349911576E+04  0.26827047036E+04  0.93723612291E+02 0.  0.
         11    1    3    3    0    0 -0.20412686554E+03  0.99687511604E+03  0.11511531022E+04  0.15364183151E+04  0.00000000000E+00 0. -1.
        -11    1    3    3    0    0 -0.21410531448E+03  0.69782640440E+03  0.88383805531E+03  0.11462863885E+04  0.00000000000E+00 0.  1.
         22    1    1    2    0    0  0.41823218002E+03 -0.16947015204E+04 -0.70058122805E+03  0.18808895387E+04  0.00000000000E+00 0. -1.
<mgrwt>
<rscale>  0 0.43641428E+04</rscale>
<asrwt>0</asrwt>
<pdfrwt beam="1">  1        1 0.24839879E+00 0.43641428E+04</pdfrwt>
<pdfrwt beam="2">  1       -1 0.45369263E+00 0.43641428E+04</pdfrwt>
<totfact> 0.12652554E-02</totfact>
</mgrwt>
</event>
<event>
 6    1  0.1072514E-005  0.2154400E+04  0.7818608E-02  0.8537651E-01
          2   -1    0    0  501    0  0.00000000000E+00  0.00000000000E+00  0.14584219340E+04  0.14584219340E+04  0.00000000000E+00 0. -1.
         -2   -1    0    0    0  501 -0.00000000000E+00 -0.00000000000E+00 -0.79562662070E+03  0.79562662070E+03  0.00000000000E+00 0.  1.
         23    2    1    2    0    0 -0.29763273082E+03  0.61733267709E+03  0.11988739993E+04  0.13839535977E+04  0.91344500286E+02 0.  0.
         13    1    3    3    0    0 -0.20067441910E+03  0.49653114027E+03  0.95922810126E+03  0.10986045449E+04  0.00000000000E+00 0. -1.
        -13    1    3    3    0    0 -0.96958311718E+02  0.12080153682E+03  0.23964589801E+03  0.28534905281E+03  0.00000000000E+00 0.  1.
         22    1    1    2    0    0  0.29763273082E+03 -0.61733267709E+03 -0.53607868599E+03  0.87009495702E+03  0.00000000000E+00 0.  1.
<mgrwt>
<rscale>  0 0.21543995E+04</rscale>
<asrwt>0</asrwt>
<pdfrwt beam="1">  1        2 0.22437261E+00 0.21543995E+04</pdfrwt>
<pdfrwt beam="2">  1       -2 0.12240410E+00 0.21543995E+04</pdfrwt>
<totfact> 0.62148588E+00</totfact>
</mgrwt>
</event>
<event>
 6    1  0.1072514E-005  0.7998114E+03  0.7818608E-02  0.9560290E-01
          2   -1    0    0  501    0  0.00000000000E+00  0.00000000000E+00  0.23651458006E+03  0.23651458006E+03  0.00000000000E+00 0. -1.
         -2   -1    0    0    0  501 -0.00000000000E+00 -0.00000000000E+00 -0.67617214295E+03  0.67617214295E+03  0.00000000000E+00 0.  1.
         23    2    1    2    0    0  0.19911452296E+03 -0.30222483280E+03 -0.43503944244E+02  0.37610109854E+03  0.92590498145E+02 0.  0.
         13    1    3    3    0    0  0.86920254218E+02 -0.19807749642E+03 -0.53055004954E+02  0.22272103343E+03  0.00000000000E+00 0.  1.
        -13    1    3    3    0    0  0.11219426874E+03 -0.10414733637E+03  0.95510607104E+01  0.15338006511E+03  0.00000000000E+00 0. -1.
         22    1    1    2    0    0 -0.19911452296E+03  0.30222483280E+03 -0.39615361865E+03  0.53658562446E+03  0.00000000000E+00 0.  1.
<mgrwt>
<rscale>  0 0.79981140E+03</rscale>
<asrwt>0</asrwt>
<pdfrwt beam="1">  1        2 0.36386860E-01 0.79981140E+03</pdfrwt>
<pdfrwt beam="2">  1       -2 0.10402648E+00 0.79981140E+03</pdfrwt>
<totfact> 0.10841919E+02</totfact>
</mgrwt>
</event>
<event>
 6    1  0.1072514E-005  0.9226102E+03  0.7818608E-02  0.9397751E-01
         -3   -1    0    0    0  501 -0.00000000000E+00  0.00000000000E+00  0.11809600413E+04  0.11809600413E+04  0.00000000000E+00 0.  1.
          3   -1    0    0  501    0  0.00000000000E+00 -0.00000000000E+00 -0.18019441633E+03  0.18019441633E+03  0.00000000000E+00 0. -1.
         23    2    1    2    0    0  0.25690709397E+03 -0.61847919180E+02  0.10551608480E+04  0.10913670221E+04  0.88832099159E+02 0.  0.
         11    1    3    3    0    0  0.16727943192E+03 -0.46424299751E+02  0.51163676352E+03  0.54028677731E+03  0.00000000000E+00 0. -1.
        -11    1    3    3    0    0  0.89627662050E+02 -0.15423619429E+02  0.54352408446E+03  0.55108024482E+03  0.00000000000E+00 0.  1.
         22    1    1    2    0    0 -0.25690709397E+03  0.61847919180E+02 -0.54395223046E+02  0.26978743546E+03  0.00000000000E+00 0. -1.
<mgrwt>
<rscale>  0 0.92261022E+03</rscale>
<asrwt>0</asrwt>
<pdfrwt beam="1">  1        3 0.27722219E-01 0.92261022E+03</pdfrwt>
<pdfrwt beam="2">  1       -3 0.18168616E+00 0.92261022E+03</pdfrwt>
<totfact> 0.63796432E+00</totfact>
</mgrwt>
</event>
<event>
 6    1  0.1072514E-005  0.4010356E+04  0.7818608E-02  0.8002461E-01
         -1   -1    0    0    0  501 -0.00000000000E+00  0.00000000000E+00  0.17591312275E+04  0.17591312275E+04  0.00000000000E+00 0.  1.
          1   -1    0    0  501    0  0.00000000000E+00 -0.00000000000E+00 -0.22856387096E+04  0.22856387096E+04  0.00000000000E+00 0. -1.
         23    2    1    2    0    0  0.12523567105E+04 -0.14924777916E+04 -0.73714827670E+03  0.20851126115E+04  0.91759097819E+02 0.  0.
         11    1    3    3    0    0  0.52534963995E+03 -0.55992469506E+03 -0.30539797678E+03  0.82630250669E+03  0.00000000000E+00 0. -1.
        -11    1    3    3    0    0  0.72700707058E+03 -0.93255309659E+03 -0.43175029992E+03  0.12588101049E+04  0.00000000000E+00 0.  1.
         22    1    1    2    0    0 -0.12523567105E+04  0.14924777916E+04  0.21064079461E+03  0.19596573255E+04  0.00000000000E+00 0.  1.
<mgrwt>
<rscale>  0 0.40103558E+04</rscale>
<asrwt>0</asrwt>
<pdfrwt beam="1">  1        1 0.35163673E+00 0.40103558E+04</pdfrwt>
<pdfrwt beam="2">  1       -1 0.27063557E+00 0.40103558E+04</pdfrwt>
<totfact> 0.76200086E-02</totfact>
</mgrwt>
</event>
<event>
 6    1  0.1072514E-005  0.1030998E+04  0.7818608E-02  0.9275185E-01
          1   -1    0    0  501    0  0.00000000000E+00  0.00000000000E+00  0.18373948071E+03  0.18373948071E+03  0.00000000000E+00 0. -1.
         -1   -1    0    0    0  501 -0.00000000000E+00 -0.00000000000E+00 -0.14462820767E+04  0.14462820767E+04  0.00000000000E+00 0.  1.
         23    2    1    2    0    0  0.21679596135E+03  0.38335791271E+03 -0.22472293843E+03  0.50262037783E+03  0.90349693218E+02 0.  0.
         13    1    3    3    0    0  0.13651109231E+03  0.15185669526E+03 -0.11221108353E+03  0.23299584007E+03  0.00000000000E+00 0. -1.
        -13    1    3    3    0    0  0.80284869042E+02  0.23150121744E+03 -0.11251185489E+03  0.26962453777E+03  0.00000000000E+00 0.  1.
         22    1    1    2    0    0 -0.21679596135E+03 -0.38335791271E+03 -0.10378196576E+04  0.11274011796E+04  0.00000000000E+00 0.  1.
<mgrwt>
<rscale>  0 0.10309978E+04</rscale>
<asrwt>0</asrwt>
<pdfrwt beam="1">  1        1 0.28267611E-01 0.10309978E+04</pdfrwt>
<pdfrwt beam="2">  1       -1 0.22250494E+00 0.10309978E+04</pdfrwt>
<totfact> 0.17666668E+01</totfact>
</mgrwt>
</event>
<event>
 6    1  0.1072514E-005  0.1555808E+04  0.7818608E-02  0.8848166E-01
          2   -1    0    0  501    0  0.00000000000E+00  0.00000000000E+00  0.82031195761E+03  0.82031195761E+03  0.00000000000E+00 0.  1.
         -2   -1    0    0    0  501 -0.00000000000E+00 -0.00000000000E+00 -0.73768856140E+03  0.73768856140E+03  0.00000000000E+00 0. -1.
         23    2    1    2    0    0 -0.53269311516E+03 -0.55821896478E+03 -0.33197084356E+02  0.77775392254E+03  0.91808224250E+02 0.  0.
         13    1    3    3    0    0 -0.18796103618E+03 -0.23260331522E+03 -0.50251581004E+02  0.30324721724E+03  0.00000000000E+00 0. -1.
        -13    1    3    3    0    0 -0.34473207898E+03 -0.32561564957E+03  0.17054496648E+02  0.47450670530E+03  0.00000000000E+00 0.  1.
         22    1    1    2    0    0  0.53269311516E+03  0.55821896478E+03  0.11582048056E+03  0.78024659647E+03  0.00000000000E+00 0. -1.
<mgrwt>
<rscale>  0 0.15558081E+04</rscale>
<asrwt>0</asrwt>
<pdfrwt beam="1">  1        2 0.12620184E+00 0.15558081E+04</pdfrwt>
<pdfrwt beam="2">  1       -2 0.11349055E+00 0.15558081E+04</pdfrwt>
<totfact> 0.19516962E+01</totfact>
</mgrwt>
</event>
<event>
 6    1  0.1072514E-005  0.1346571E+04  0.7818608E-02  0.8993428E-01
         -2   -1    0    0    0  501 -0.00000000000E+00  0.00000000000E+00  0.69785714893E+03  0.69785714893E+03  0.00000000000E+00 0.  1.
          2   -1    0    0  501    0  0.00000000000E+00 -0.00000000000E+00 -0.64957937569E+03  0.64957937569E+03  0.00000000000E+00 0. -1.
         23    2    1    2    0    0 -0.41521246554E+03  0.25882515903E+03  0.48259364588E+03  0.69320252083E+03  0.90781349177E+02 0.  0.
         13    1    3    3    0    0 -0.83993541552E+02  0.50635930812E+02  0.15259052597E+03  0.18139123774E+03  0.00000000000E+00 0. -1.
        -13    1    3    3    0    0 -0.33121892398E+03  0.20818922822E+03  0.33000311990E+03  0.51181128309E+03  0.00000000000E+00 0.  1.
         22    1    1    2    0    0  0.41521246554E+03 -0.25882515903E+03 -0.43431587264E+03  0.65423400379E+03  0.00000000000E+00 0. -1.
<mgrwt>
<rscale>  0 0.13465714E+04</rscale>
<asrwt>0</asrwt>
<pdfrwt beam="1">  1        2 0.99935289E-01 0.13465714E+04</pdfrwt>
<pdfrwt beam="2">  1       -2 0.10736264E+00 0.13465714E+04</pdfrwt>
<totfact> 0.30634395E+01</totfact>
</mgrwt>
</event>
<event>
 6    1  0.1072514E-005  0.2439382E+04  0.7818608E-02  0.8424905E-01
         -1   -1    0    0    0  501 -0.00000000000E+00  0.00000000000E+00  0.74734967491E+03  0.74734967491E+03  0.00000000000E+00 0.  1.
          1   -1    0    0  501    0  0.00000000000E+00 -0.00000000000E+00 -0.19905623949E+04  0.19905623949E+04  0.00000000000E+00 0. -1.
         23    2    1    2    0    0  0.12072180034E+04  0.16150132688E+03 -0.60810897533E+03  0.13642983130E+04  0.89751738713E+02 0.  0.
         13    1    3    3    0    0  0.31888323366E+03  0.46654859703E+02 -0.20570719962E+03  0.38233315919E+03  0.00000000000E+00 0. -1.
        -13    1    3    3    0    0  0.88833476979E+03  0.11484646718E+03 -0.40240177571E+03  0.98196515383E+03  0.00000000000E+00 0.  1.
         22    1    1    2    0    0 -0.12072180034E+04 -0.16150132688E+03 -0.63510374469E+03  0.13736137568E+04  0.00000000000E+00 0. -1.
<mgrwt>
<rscale>  0 0.24393820E+04</rscale>
<asrwt>0</asrwt>
<pdfrwt beam="1">  1        1 0.30624036E+00 0.24393820E+04</pdfrwt>
<pdfrwt beam="2">  1       -1 0.11497687E+00 0.24393820E+04</pdfrwt>
<totfact> 0.18544792E+00</totfact>
</mgrwt>
</event>
<event>
 6    1  0.1146229E-005  0.2119781E+04  0.7818608E-02  0.8552579E-01
          1   -1    0    0  501    0  0.00000000000E+00  0.00000000000E+00  0.11611241135E+04  0.11611241135E+04  0.00000000000E+00 0. -1.
         -1   -1    0    0    0  501 -0.00000000000E+00 -0.00000000000E+00 -0.96748287116E+03  0.96748287116E+03  0.00000000000E+00 0.  1.
         23    2    1    2    0    0  0.26509663813E+03 -0.31905052268E+03  0.10746509979E+04  0.11548269001E+04  0.81737006241E+02 0.  0.
         11    1    3    3    0    0  0.70799956252E+02 -0.12287120387E+03  0.45144830383E+03  0.47319714451E+03  0.00000000000E+00 0. -1.
        -11    1    3    3    0    0  0.19429668188E+03 -0.19617931881E+03  0.62320269412E+03  0.68162975557E+03  0.00000000000E+00 0.  1.
         22    1    1    2    0    0 -0.26509663813E+03  0.31905052268E+03 -0.88100975563E+03  0.97378008456E+03  0.00000000000E+00 0.  1.
<mgrwt>
<rscale>  0 0.21197808E+04</rscale>
<asrwt>0</asrwt>
<pdfrwt beam="1">  1        1 0.17863448E+00 0.21197808E+04</pdfrwt>
<pdfrwt beam="2">  1       -1 0.14884352E+00 0.21197808E+04</pdfrwt>
<totfact> 0.37334431E+00</totfact>
</mgrwt>
</event>
<event>
 6    1  0.1072514E-005  0.3079665E+04  0.7818608E-02  0.8221341E-01
         -2   -1    0    0    0  501 -0.00000000000E+00  0.00000000000E+00  0.87765706830E+03  0.87765706830E+03  0.00000000000E+00 0.  1.
          2   -1    0    0  501    0  0.00000000000E+00 -0.00000000000E+00 -0.27016070636E+04  0.27016070636E+04  0.00000000000E+00 0. -1.
         23    2    1    2    0    0  0.70422355845E+03  0.38324747453E+03 -0.24387976847E+04  0.25688943342E+04  0.93137029658E+02 0.  0.
         13    1    3    3    0    0  0.57522818640E+03  0.27692614717E+03 -0.19948587897E+04  0.20945255186E+04  0.00000000000E+00 0. -1.
        -13    1    3    3    0    0  0.12899537205E+03  0.10632132735E+03 -0.44393889502E+03  0.47436881556E+03  0.00000000000E+00 0.  1.
         22    1    1    2    0    0 -0.70422355845E+03 -0.38324747453E+03  0.61484768939E+03  0.10103697977E+04  0.00000000000E+00 0.  1.
<mgrwt>
<rscale>  0 0.30796653E+04</rscale>
<asrwt>0</asrwt>
<pdfrwt beam="1">  1        2 0.41563185E+00 0.30796653E+04</pdfrwt>
<pdfrwt beam="2">  1       -2 0.13502417E+00 0.30796653E+04</pdfrwt>
<totfact> 0.88824427E-01</totfact>
</mgrwt>
</event>
<event>
 6    1  0.1072514E-005  0.6904294E+03  0.7818608E-02  0.9733741E-01
         -2   -1    0    0    0  501 -0.00000000000E+00  0.00000000000E+00  0.14978016684E+03  0.14978016684E+03  0.00000000000E+00 0. -1.
          2   -1    0    0  501    0  0.00000000000E+00 -0.00000000000E+00 -0.79565399034E+03  0.79565399034E+03  0.00000000000E+00 0.  1.
         23    2    1    2    0    0 -0.52082254339E+02 -0.35502577005E+01 -0.78854162985E+03  0.79351553252E+03  0.71720518719E+02 0.  0.
         13    1    3    3    0    0 -0.17510503136E+02  0.32471932928E+02 -0.25704730317E+03  0.25968126658E+03  0.00000000000E+00 0. -1.
        -13    1    3    3    0    0 -0.34571751203E+02 -0.36022190628E+02 -0.53149432668E+03  0.53383426594E+03  0.00000000000E+00 0.  1.
         22    1    1    2    0    0  0.52082254339E+02  0.35502577005E+01  0.14266780635E+03  0.15191862465E+03  0.00000000000E+00 0. -1.
<mgrwt>
<rscale>  0 0.69042940E+03</rscale>
<asrwt>0</asrwt>
<pdfrwt beam="1">  1        2 0.12240830E+00 0.69042940E+03</pdfrwt>
<pdfrwt beam="2">  1       -2 0.23043103E-01 0.69042940E+03</pdfrwt>
<totfact> 0.57940432E+02</totfact>
</mgrwt>
</event>
<event>
 6    1  0.1072514E-005  0.1576097E+04  0.7818608E-02  0.8835368E-01
          2   -1    0    0  501    0  0.00000000000E+00  0.00000000000E+00  0.24946586021E+04  0.24946586021E+04  0.00000000000E+00 0. -1.
         -2   -1    0    0    0  501 -0.00000000000E+00 -0.00000000000E+00 -0.24894019565E+03  0.24894019565E+03  0.00000000000E+00 0.  1.
         23    2    1    2    0    0 -0.54877221332E+03  0.55067980767E+03  0.13231554666E+04  0.15371488109E+04  0.87674885229E+02 0.  0.
         11    1    3    3    0    0 -0.53243456305E+03  0.53681260215E+03  0.12495706289E+04  0.14605071346E+04  0.00000000000E+00 0.  1.
        -11    1    3    3    0    0 -0.16337650267E+02  0.13867205525E+02  0.73584837711E+02  0.76641676301E+02  0.00000000000E+00 0. -1.
         22    1    1    2    0    0  0.54877221332E+03 -0.55067980767E+03  0.92256293985E+03  0.12064499868E+04  0.00000000000E+00 0. -1.
<mgrwt>
<rscale>  0 0.15760975E+04</rscale>
<asrwt>0</asrwt>
<pdfrwt beam="1">  1        2 0.38379361E+00 0.15760975E+04</pdfrwt>
<pdfrwt beam="2">  1       -2 0.38298493E-01 0.15760975E+04</pdfrwt>
<totfact> 0.21734165E+01</totfact>
</mgrwt>
</event>
<event>
 6    1  0.1072514E-005  0.1882265E+04  0.7818608E-02  0.8663735E-01
          2   -1    0    0  501    0  0.00000000000E+00  0.00000000000E+00  0.78185778342E+03  0.78185778342E+03  0.00000000000E+00 0. -1.
         -2   -1    0    0    0  501 -0.00000000000E+00 -0.00000000000E+00 -0.11328532680E+04  0.11328532680E+04  0.00000000000E+00 0.  1.
         23    2    1    2    0    0 -0.92325276116E+03  0.17171352279E+03 -0.20400343633E+03  0.96419126878E+03  0.78525192508E+02 0.  0.
         13    1    3    3    0    0 -0.87416914741E+03  0.14861385286E+03 -0.17964797399E+03  0.90472712467E+03  0.00000000000E+00 0. -1.
        -13    1    3    3    0    0 -0.49083613745E+02  0.23099669928E+02 -0.24355462336E+02  0.59464144110E+02  0.00000000000E+00 0.  1.
         22    1    1    2    0    0  0.92325276116E+03 -0.17171352279E+03 -0.14699204824E+03  0.95051978261E+03  0.00000000000E+00 0. -1.
<mgrwt>
<rscale>  0 0.18822647E+04</rscale>
<asrwt>0</asrwt>
<pdfrwt beam="1">  1        2 0.12028581E+00 0.18822647E+04</pdfrwt>
<pdfrwt beam="2">  1       -2 0.17428512E+00 0.18822647E+04</pdfrwt>
<totfact> 0.66163915E+00</totfact>
</mgrwt>
</event>
<event>
 6    1  0.1072514E-005  0.9974391E+03  0.7818608E-02  0.9311358E-01
         -1   -1    0    0    0  501 -0.00000000000E+00  0.00000000000E+00  0.37061173216E+03  0.37061173216E+03  0.00000000000E+00 0.  1.
          1   -1    0    0  501    0  0.00000000000E+00 -0.00000000000E+00 -0.67110981723E+03  0.67110981723E+03  0.00000000000E+00 0. -1.
         23    2    1    2    0    0 -0.25093231152E+03 -0.36469220132E+03 -0.38171547282E+03  0.59165078746E+03  0.91523360067E+02 0.  0.
         11    1    3    3    0    0 -0.10376389314E+03 -0.78241138090E+02 -0.11347090098E+03  0.17252323490E+03  0.00000000000E+00 0. -1.
        -11    1    3    3    0    0 -0.14716841838E+03 -0.28645106323E+03 -0.26824457184E+03  0.41912755256E+03  0.00000000000E+00 0.  1.
         22    1    1    2    0    0  0.25093231152E+03  0.36469220132E+03  0.81217387743E+02  0.45007076193E+03  0.00000000000E+00 0.  1.
<mgrwt>
<rscale>  0 0.99743906E+03</rscale>
<asrwt>0</asrwt>
<pdfrwt beam="1">  1        1 0.10324766E+00 0.99743906E+03</pdfrwt>
<pdfrwt beam="2">  1       -1 0.57017189E-01 0.99743906E+03</pdfrwt>
<totfact> 0.90684183E+01</totfact>
</mgrwt>
</event>
<event>
 6    1  0.1072514E-005  0.1796789E+04  0.7818608E-02  0.8708009E-01
          2   -1    0    0  501    0  0.00000000000E+00  0.00000000000E+00  0.59704110689E+03  0.59704110689E+03  0.00000000000E+00 0. -1.
         -2   -1    0    0    0  501 -0.00000000000E+00 -0.00000000000E+00 -0.13518550310E+04  0.13518550310E+04  0.00000000000E+00 0.  1.
         23    2    1    2    0    0 -0.20087181081E+03  0.86081832232E+03 -0.21851637961E+03  0.91498476612E+03  0.89944681152E+02 0.  0.
         11    1    3    3    0    0 -0.20165345018E+03  0.72182903427E+03 -0.18784563416E+03  0.77264950072E+03  0.00000000000E+00 0. -1.
        -11    1    3    3    0    0  0.78163937519E+00  0.13898928805E+03 -0.30670745452E+02  0.14233526541E+03  0.00000000000E+00 0.  1.
         22    1    1    2    0    0  0.20087181081E+03 -0.86081832232E+03 -0.53629754448E+03  0.10339113717E+04  0.00000000000E+00 0.  1.
<mgrwt>
<rscale>  0 0.17967894E+04</rscale>
<asrwt>0</asrwt>
<pdfrwt beam="1">  1        2 0.91852478E-01 0.17967894E+04</pdfrwt>
<pdfrwt beam="2">  1       -2 0.20797770E+00 0.17967894E+04</pdfrwt>
<totfact> 0.55552196E+00</totfact>
</mgrwt>
</event>
<event>
 6    1  0.1072514E-005  0.4810136E+04  0.7818608E-02  0.7858482E-01
          1   -1    0    0  501    0  0.00000000000E+00  0.00000000000E+00  0.18305650629E+04  0.18305650629E+04  0.00000000000E+00 0. -1.
         -1   -1    0    0    0  501 -0.00000000000E+00 -0.00000000000E+00 -0.31598728048E+04  0.31598728048E+04  0.00000000000E+00 0.  1.
         23    2    1    2    0    0 -0.19542991051E+04  0.12356053830E+04  0.18506913375E+02  0.23141325787E+04  0.94135176735E+02 0.  0.
         13    1    3    3    0    0 -0.63371827146E+03  0.36438873930E+03  0.37079906472E+02  0.73195144673E+03  0.00000000000E+00 0. -1.
        -13    1    3    3    0    0 -0.13205808336E+04  0.87121664371E+03 -0.18572993097E+02  0.15821811320E+04  0.00000000000E+00 0.  1.
         22    1    1    2    0    0  0.19542991051E+04 -0.12356053830E+04 -0.13478146553E+04  0.26763052889E+04  0.00000000000E+00 0.  1.
<mgrwt>
<rscale>  0 0.48101363E+04</rscale>
<asrwt>0</asrwt>
<pdfrwt beam="1">  1        1 0.28162540E+00 0.48101363E+04</pdfrwt>
<pdfrwt beam="2">  1       -1 0.48613427E+00 0.48101363E+04</pdfrwt>
<totfact> 0.52511719E-03</totfact>
</mgrwt>
</event>
<event>
 6    1  0.1072514E-005  0.2042695E+04  0.7818608E-02  0.8586915E-01
         -2   -1    0    0    0  501 -0.00000000000E+00  0.00000000000E+00  0.99176372398E+03  0.99176372398E+03  0.00000000000E+00 0.  1.
          2   -1    0    0  501    0  0.00000000000E+00 -0.00000000000E+00 -0.10518138312E+04  0.10518138312E+04  0.00000000000E+00 0. -1.
         23    2    1    2    0    0 -0.17160762639E+02 -0.80561097290E+03  0.59436543356E+03  0.10055201235E+04  0.92178732683E+02 0.  0.
         11    1    3    3    0    0 -0.48174243286E+02 -0.65537828458E+03  0.49551237443E+03  0.82302731839E+03  0.00000000000E+00 0. -1.
        -11    1    3    3    0    0  0.31013480648E+02 -0.15023268832E+03  0.98853059133E+02  0.18249280512E+03  0.00000000000E+00 0.  1.
         22    1    1    2    0    0  0.17160762639E+02  0.80561097290E+03 -0.65441554077E+03  0.10380574317E+04  0.00000000000E+00 0. -1.
<mgrwt>
<rscale>  0 0.20426951E+04</rscale>
<asrwt>0</asrwt>
<pdfrwt beam="1">  1        2 0.16181751E+00 0.20426951E+04</pdfrwt>
<pdfrwt beam="2">  1       -2 0.15257904E+00 0.20426951E+04</pdfrwt>
<totfact> 0.61889036E+00</totfact>
</mgrwt>
</event>
<event>
 6    1  0.1072514E-005  0.2353769E+04  0.7818608E-02  0.8457017E-01
          1   -1    0    0  501    0  0.00000000000E+00  0.00000000000E+00  0.11369771975E+04  0.11369771975E+04  0.00000000000E+00 0. -1.
         -1   -1    0    0    0  501 -0.00000000000E+00 -0.00000000000E+00 -0.12181923289E+04  0.12181923289E+04  0.00000000000E+00 0.  1.
         23    2    1    2    0    0  0.85039834467E+03  0.33298599396E+03  0.69776150042E+03  0.11548105761E+04  0.11251372532E+03 0.  0.
         13    1    3    3    0    0  0.16993989944E+03  0.10521852117E+03  0.11644391829E+03  0.23132162183E+03  0.00000000000E+00 0. -1.
        -13    1    3    3    0    0  0.68045844523E+03  0.22776747279E+03  0.58131758213E+03  0.92348895426E+03  0.00000000000E+00 0.  1.
         22    1    1    2    0    0 -0.85039834467E+03 -0.33298599396E+03 -0.77897663179E+03  0.12003589503E+04  0.00000000000E+00 0.  1.
<mgrwt>
<rscale>  0 0.23537688E+04</rscale>
<asrwt>0</asrwt>
<pdfrwt beam="1">  1        1 0.17491957E+00 0.23537688E+04</pdfrwt>
<pdfrwt beam="2">  1       -1 0.18741420E+00 0.23537688E+04</pdfrwt>
<totfact> 0.19720647E+00</totfact>
</mgrwt>
</event>
<event>
 6    1  0.1072514E-005  0.3023450E+04  0.7818608E-02  0.8237066E-01
         -2   -1    0    0    0  501 -0.00000000000E+00  0.00000000000E+00  0.89343848207E+03  0.89343848207E+03  0.00000000000E+00 0.  1.
          2   -1    0    0  501    0  0.00000000000E+00 -0.00000000000E+00 -0.25578840605E+04  0.25578840605E+04  0.00000000000E+00 0. -1.
         23    2    1    2    0    0 -0.32698125766E+03  0.10391327813E+03 -0.25119995068E+04  0.25369580783E+04  0.91104647140E+02 0.  0.
         13    1    3    3    0    0 -0.18416295087E+02 -0.14899538191E+02 -0.21037475583E+03  0.21170426083E+03  0.00000000000E+00 0. -1.
        -13    1    3    3    0    0 -0.30856496257E+03  0.11881281632E+03 -0.23016247509E+04  0.23252538174E+04  0.00000000000E+00 0.  1.
         22    1    1    2    0    0  0.32698125766E+03 -0.10391327813E+03  0.84755392831E+03  0.91436446432E+03  0.00000000000E+00 0.  1.
<mgrwt>
<rscale>  0 0.30234497E+04</rscale>
<asrwt>0</asrwt>
<pdfrwt beam="1">  1        2 0.39352062E+00 0.30234497E+04</pdfrwt>
<pdfrwt beam="2">  1       -2 0.13745207E+00 0.30234497E+04</pdfrwt>
<totfact> 0.10364167E+00</totfact>
</mgrwt>
</event>
<event>
 6    1  0.1072514E-005  0.2476861E+04  0.7818608E-02  0.8411276E-01
          2   -1    0    0  501    0  0.00000000000E+00  0.00000000000E+00  0.23904079992E+04  0.23904079992E+04  0.00000000000E+00 0. -1.
         -2   -1    0    0    0  501 -0.00000000000E+00 -0.00000000000E+00 -0.64161010119E+03  0.64161010119E+03  0.00000000000E+00 0.  1.
         23    2    1    2    0    0 -0.79501245535E+03  0.47043622304E+02  0.20338690753E+04  0.21861318889E+04  0.91056651065E+02 0.  0.
         13    1    3    3    0    0 -0.14725196953E+03 -0.21707904089E+02  0.42983456789E+03  0.45487595164E+03  0.00000000000E+00 0. -1.
        -13    1    3    3    0    0 -0.64776048582E+03  0.68751526393E+02  0.16040345074E+04  0.17312559373E+04  0.00000000000E+00 0.  1.
         22    1    1    2    0    0  0.79501245535E+03 -0.47043622304E+02 -0.28507117733E+03  0.84588621144E+03  0.00000000000E+00 0.  1.
<mgrwt>
<rscale>  0 0.24768609E+04</rscale>
<asrwt>0</asrwt>
<pdfrwt beam="1">  1        2 0.36775507E+00 0.24768609E+04</pdfrwt>
<pdfrwt beam="2">  1       -2 0.98709248E-01 0.24768609E+04</pdfrwt>
<totfact> 0.30639409E+00</totfact>
</mgrwt>
</event>
<event>
 6    1  0.1072514E-005  0.2775826E+04  0.7818608E-02  0.8310813E-01
          2   -1    0    0  501    0  0.00000000000E+00  0.00000000000E+00  0.35819580728E+04  0.35819580728E+04  0.00000000000E+00 0. -1.
         -2   -1    0    0    0  501 -0.00000000000E+00 -0.00000000000E+00 -0.53777931268E+03  0.53777931268E+03  0.00000000000E+00 0.  1.
         23    2    1    2    0    0 -0.93680801426E+03 -0.77358798293E+03  0.53175883502E+03  0.13289845295E+04  0.85934848601E+02 0.  0.
         11    1    3    3    0    0 -0.46444138952E+03 -0.37102539807E+03  0.30585483803E+03  0.66851539418E+03  0.00000000000E+00 0. -1.
        -11    1    3    3    0    0 -0.47236662474E+03 -0.40256258486E+03  0.22590399700E+03  0.66046913536E+03  0.00000000000E+00 0.  1.
         22    1    1    2    0    0  0.93680801426E+03  0.77358798293E+03  0.25124199251E+04  0.27907528560E+04  0.00000000000E+00 0. -1.
<mgrwt>
<rscale>  0 0.27758263E+04</rscale>
<asrwt>0</asrwt>
<pdfrwt beam="1">  1        2 0.55107046E+00 0.27758263E+04</pdfrwt>
<pdfrwt beam="2">  1       -2 0.82735281E-01 0.27758263E+04</pdfrwt>
<totfact> 0.79455513E-01</totfact>
</mgrwt>
</event>
<event>
 6    1  0.1072514E-005  0.1201226E+04  0.7818608E-02  0.9111784E-01
         -1   -1    0    0    0  501 -0.00000000000E+00  0.00000000000E+00  0.20627384786E+03  0.20627384786E+03  0.00000000000E+00 0.  1.
          1   -1    0    0  501    0  0.00000000000E+00 -0.00000000000E+00 -0.17488199873E+04  0.17488199873E+04  0.00000000000E+00 0. -1.
         23    2    1    2    0    0  0.25311031355E+03 -0.38856501289E+03 -0.13881857906E+04  0.14663457228E+04  0.89790809618E+02 0.  0.
         11    1    3    3    0    0  0.23205574264E+03 -0.35240819079E+03 -0.13249952775E+04  0.13905588394E+04  0.00000000000E+00 0.  1.
        -11    1    3    3    0    0  0.21054570908E+02 -0.36156822100E+02 -0.63190513150E+02  0.75786883381E+02  0.00000000000E+00 0. -1.
         22    1    1    2    0    0 -0.25311031355E+03  0.38856501289E+03 -0.15436034887E+03  0.48874811239E+03  0.00000000000E+00 0.  1.
<mgrwt>
<rscale>  0 0.12012258E+04</rscale>
<asrwt>0</asrwt>
<pdfrwt beam="1">  1        1 0.26904923E+00 0.12012258E+04</pdfrwt>
<pdfrwt beam="2">  1       -1 0.31734438E-01 0.12012258E+04</pdfrwt>
<totfact> 0.40388638E+01</totfact>
</mgrwt>
</event>
<event>
 6    1  0.1072514E-005  0.3867059E+04  0.7818608E-02  0.8031915E-01
          2   -1    0    0  501    0  0.00000000000E+00  0.00000000000E+00  0.19398057498E+04  0.19398057498E+04  0.00000000000E+00 0.  1.
         -2   -1    0    0    0  501 -0.00000000000E+00 -0.00000000000E+00 -0.19272738824E+04  0.19272738824E+04  0.00000000000E+00 0. -1.
         23    2    1    2    0    0 -0.43276835162E+03 -0.10888888734E+04  0.15430276725E+04  0.19395462773E+04  0.89095112049E+02 0.  0.
         11    1    3    3    0    0 -0.94920377456E+02 -0.17452222717E+03  0.30146692665E+03  0.36104043222E+03  0.00000000000E+00 0. -1.
        -11    1    3    3    0    0 -0.33784797416E+03 -0.91436664627E+03  0.12415607458E+04  0.15785058451E+04  0.00000000000E+00 0.  1.
         22    1    1    2    0    0  0.43276835162E+03  0.10888888734E+04 -0.15304958050E+04  0.19275333549E+04  0.00000000000E+00 0. -1.
<mgrwt>
<rscale>  0 0.38670593E+04</rscale>
<asrwt>0</asrwt>
<pdfrwt beam="1">  1        2 0.29843165E+00 0.38670593E+04</pdfrwt>
<pdfrwt beam="2">  1       -2 0.29650367E+00 0.38670593E+04</pdfrwt>
<totfact> 0.19214321E-01</totfact>
</mgrwt>
</event>
<event>
 6    1  0.1072514E-005  0.1194335E+04  0.7818608E-02  0.9117830E-01
          1   -1    0    0  501    0  0.00000000000E+00  0.00000000000E+00  0.54967100959E+03  0.54967100959E+03  0.00000000000E+00 0. -1.
         -1   -1    0    0    0  501 -0.00000000000E+00 -0.00000000000E+00 -0.64876784303E+03  0.64876784303E+03  0.00000000000E+00 0.  1.
         23    2    1    2    0    0 -0.40520827449E+03  0.36293336401E+03  0.18881660893E+03  0.58296462674E+03  0.91003691135E+02 0.  0.
         11    1    3    3    0    0 -0.32721035855E+03  0.32149515136E+03  0.12977470180E+03  0.47672552304E+03  0.00000000000E+00 0. -1.
        -11    1    3    3    0    0 -0.77997915942E+02  0.41438212653E+02  0.59041907127E+02  0.10623910371E+03  0.00000000000E+00 0.  1.
         22    1    1    2    0    0  0.40520827449E+03 -0.36293336401E+03 -0.28791344237E+03  0.61547422588E+03  0.00000000000E+00 0.  1.
<mgrwt>
<rscale>  0 0.11943348E+04</rscale>
<asrwt>0</asrwt>
<pdfrwt beam="1">  1        1 0.84564771E-01 0.11943348E+04</pdfrwt>
<pdfrwt beam="2">  1       -1 0.99810437E-01 0.11943348E+04</pdfrwt>
<totfact> 0.36818171E+01</totfact>
</mgrwt>
</event>
<event>
 6    1  0.1072514E-005  0.3281316E+04  0.7818608E-02  0.8167666E-01
         -1   -1    0    0    0  501 -0.00000000000E+00  0.00000000000E+00  0.16377534547E+04  0.16377534547E+04  0.00000000000E+00 0.  1.
          1   -1    0    0  501    0  0.00000000000E+00 -0.00000000000E+00 -0.16435678732E+04  0.16435678732E+04  0.00000000000E+00 0. -1.
         23    2    1    2    0    0 -0.84914664004E+03  0.13986289554E+04 -0.10507618249E+03  0.16420941109E+04  0.90659217107E+02 0.  0.
         11    1    3    3    0    0 -0.77322208541E+03  0.12817561040E+04 -0.12107774673E+03  0.15018092170E+04  0.00000000000E+00 0.  1.
        -11    1    3    3    0    0 -0.75924554630E+02  0.11687285141E+03  0.16001564239E+02  0.14028489388E+03  0.00000000000E+00 0. -1.
         22    1    1    2    0    0  0.84914664004E+03 -0.13986289554E+04  0.99261763977E+02  0.16392272170E+04  0.00000000000E+00 0. -1.
<mgrwt>
<rscale>  0 0.32813162E+04</rscale>
<asrwt>0</asrwt>
<pdfrwt beam="1">  1        1 0.25285660E+00 0.32813162E+04</pdfrwt>
<pdfrwt beam="2">  1       -1 0.25196207E+00 0.32813162E+04</pdfrwt>
<totfact> 0.29298608E-01</totfact>
</mgrwt>
</event>
<event>
 6    1  0.1072514E-005  0.5699294E+03  0.7818608E-02  0.9969835E-01
          2   -1    0    0  501    0  0.00000000000E+00  0.00000000000E+00  0.96527050841E+03  0.96527050841E+03  0.00000000000E+00 0. -1.
         -2   -1    0    0    0  501 -0.00000000000E+00 -0.00000000000E+00 -0.84126567324E+02  0.84126567324E+02  0.00000000000E+00 0.  1.
         23    2    1    2    0    0 -0.16968487236E+03  0.93350243371E+02  0.85924385901E+02  0.23093426974E+03  0.91871720358E+02 0.  0.
         13    1    3    3    0    0 -0.86114977651E+02  0.73674412775E-01  0.54162497728E+02  0.10173185816E+03  0.00000000000E+00 0. -1.
        -13    1    3    3    0    0 -0.83569894712E+02  0.93276568958E+02  0.31761888174E+02  0.12920241158E+03  0.00000000000E+00 0.  1.
         22    1    1    2    0    0  0.16968487236E+03 -0.93350243371E+02  0.79521955519E+03  0.81846280600E+03  0.00000000000E+00 0. -1.
<mgrwt>
<rscale>  0 0.56992945E+03</rscale>
<asrwt>0</asrwt>
<pdfrwt beam="1">  1        2 0.14850315E+00 0.56992945E+03</pdfrwt>
<pdfrwt beam="2">  1       -2 0.12942549E-01 0.56992945E+03</pdfrwt>
<totfact> 0.11995811E+03</totfact>
</mgrwt>
</event>
<event>
 6    1  0.1072514E-005  0.4138028E+04  0.7818608E-02  0.7977266E-01
         -2   -1    0    0    0  501 -0.00000000000E+00  0.00000000000E+00  0.23411045041E+04  0.23411045041E+04  0.00000000000E+00 0.  1.
          2   -1    0    0  501    0  0.00000000000E+00 -0.00000000000E+00 -0.18285470246E+04  0.18285470246E+04  0.00000000000E+00 0. -1.
         23    2    1    2    0    0 -0.17049502467E+04 -0.11702913815E+04  0.27070531744E+03  0.20876021227E+04  0.91454865845E+02 0.  0.
         11    1    3    3    0    0 -0.59572254259E+02 -0.47396206231E+02  0.26775192024E+02  0.80697984798E+02  0.00000000000E+00 0.  1.
        -11    1    3    3    0    0 -0.16453779924E+04 -0.11228951752E+04  0.24393012542E+03  0.20069041379E+04  0.00000000000E+00 0. -1.
         22    1    1    2    0    0  0.17049502467E+04  0.11702913815E+04  0.24185216207E+03  0.20820494061E+04  0.00000000000E+00 0.  1.
<mgrwt>
<rscale>  0 0.41380284E+04</rscale>
<asrwt>0</asrwt>
<pdfrwt beam="1">  1        2 0.28131493E+00 0.41380284E+04</pdfrwt>
<pdfrwt beam="2">  1       -2 0.36016992E+00 0.41380284E+04</pdfrwt>
<totfact> 0.87044645E-02</totfact>
</mgrwt>
</event>
<event>
 6    1  0.1072514E-005  0.3115624E+04  0.7818608E-02  0.8211463E-01
          2   -1    0    0  501    0  0.00000000000E+00  0.00000000000E+00  0.25969234281E+04  0.25969234281E+04  0.00000000000E+00 0. -1.
         -2   -1    0    0    0  501 -0.00000000000E+00 -0.00000000000E+00 -0.93448211593E+03  0.93448211593E+03  0.00000000000E+00 0.  1.
         23    2    1    2    0    0  0.98127632274E+03  0.43154420131E+03  0.21110455511E+04  0.23693472915E+04  0.90330779770E+02 0.  0.
         11    1    3    3    0    0  0.80912309346E+03  0.35092413575E+03  0.16564661032E+04  0.18766214004E+04  0.00000000000E+00 0.  1.
        -11    1    3    3    0    0  0.17215322928E+03  0.80620065561E+02  0.45457944785E+03  0.49272589107E+03  0.00000000000E+00 0. -1.
         22    1    1    2    0    0 -0.98127632274E+03 -0.43154420131E+03 -0.44860423886E+03  0.11620582526E+04  0.00000000000E+00 0.  1.
<mgrwt>
<rscale>  0 0.31156242E+04</rscale>
<asrwt>0</asrwt>
<pdfrwt beam="1">  1        2 0.39952668E+00 0.31156242E+04</pdfrwt>
<pdfrwt beam="2">  1       -2 0.14376648E+00 0.31156242E+04</pdfrwt>
<totfact> 0.86808345E-01</totfact>
</mgrwt>
</event>
<event>
 6    1  0.1072514E-005  0.4109644E+04  0.7818608E-02  0.7982786E-01
          1   -1    0    0  501    0  0.00000000000E+00  0.00000000000E+00  0.18979850941E+04  0.18979850941E+04  0.00000000000E+00 0. -1.
         -1   -1    0    0    0  501 -0.00000000000E+00 -0.00000000000E+00 -0.22246190981E+04  0.22246190981E+04  0.00000000000E+00 0.  1.
         23    2    1    2    0    0 -0.23487695740E+03 -0.15640376135E+04  0.11509725352E+04  0.19581869667E+04  0.91529112243E+02 0.  0.
         11    1    3    3    0    0 -0.16961170727E+03 -0.98961879528E+03  0.68195145463E+03  0.12137426736E+04  0.00000000000E+00 0.  1.
        -11    1    3    3    0    0 -0.65265250134E+02 -0.57441881822E+03  0.46902108053E+03  0.74444429314E+03  0.00000000000E+00 0. -1.
         22    1    1    2    0    0  0.23487695740E+03  0.15640376135E+04 -0.14776065392E+04  0.21644172255E+04  0.00000000000E+00 0.  1.
<mgrwt>
<rscale>  0 0.41096442E+04</rscale>
<asrwt>0</asrwt>
<pdfrwt beam="1">  1        1 0.29199771E+00 0.41096442E+04</pdfrwt>
<pdfrwt beam="2">  1       -1 0.34224909E+00 0.41096442E+04</pdfrwt>
<totfact> 0.47393477E-02</totfact>
</mgrwt>
</event>
<event>
 6    1  0.1072514E-005  0.3559840E+04  0.7818608E-02  0.8099753E-01
          1   -1    0    0  501    0  0.00000000000E+00  0.00000000000E+00  0.11690356287E+04  0.11690356287E+04  0.00000000000E+00 0. -1.
         -1   -1    0    0    0  501 -0.00000000000E+00 -0.00000000000E+00 -0.27100249457E+04  0.27100249457E+04  0.00000000000E+00 0.  1.
         23    2    1    2    0    0 -0.18750004219E+03  0.75837031933E+03  0.97012707381E+03  0.12492340906E+04  0.95694653338E+02 0.  0.
         11    1    3    3    0    0 -0.15700634239E+03  0.58366370166E+03  0.80719726940E+03  0.10084055434E+04  0.00000000000E+00 0. -1.
        -11    1    3    3    0    0 -0.30493699802E+02  0.17470661767E+03  0.16292980441E+03  0.24082854720E+03  0.00000000000E+00 0.  1.
         22    1    1    2    0    0  0.18750004219E+03 -0.75837031933E+03 -0.25111163908E+04  0.26298264838E+04  0.00000000000E+00 0.  1.
<mgrwt>
<rscale>  0 0.35598403E+04</rscale>
<asrwt>0</asrwt>
<pdfrwt beam="1">  1        1 0.17985164E+00 0.35598403E+04</pdfrwt>
<pdfrwt beam="2">  1       -1 0.41692691E+00 0.35598403E+04</pdfrwt>
<totfact> 0.49997565E-02</totfact>
</mgrwt>
</event>
<event>
 6    1  0.1072514E-005  0.1414422E+04  0.7818608E-02  0.8943445E-01
         -2   -1    0    0    0  501 -0.00000000000E+00  0.00000000000E+00  0.25328181216E+03  0.25328181216E+03  0.00000000000E+00 0.  1.
          2   -1    0    0  501    0  0.00000000000E+00 -0.00000000000E+00 -0.19746663107E+04  0.19746663107E+04  0.00000000000E+00 0. -1.
         23    2    1    2    0    0  0.44494919939E+03  0.13603114498E+03 -0.16970684751E+04  0.17620344706E+04  0.90773366008E+02 0.  0.
         13    1    3    3    0    0  0.35775751571E+03  0.12259083766E+03 -0.14838869507E+04  0.15313195081E+04  0.00000000000E+00 0. -1.
        -13    1    3    3    0    0  0.87191683676E+02  0.13440307318E+02 -0.21318152441E+03  0.23071496248E+03  0.00000000000E+00 0.  1.
         22    1    1    2    0    0 -0.44494919939E+03 -0.13603114498E+03 -0.24316023516E+02  0.46591365234E+03  0.00000000000E+00 0.  1.
<mgrwt>
<rscale>  0 0.14144215E+04</rscale>
<asrwt>0</asrwt>
<pdfrwt beam="1">  1        2 0.30379482E+00 0.14144215E+04</pdfrwt>
<pdfrwt beam="2">  1       -2 0.38966432E-01 0.14144215E+04</pdfrwt>
<totfact> 0.41792505E+01</totfact>
</mgrwt>
</event>
<event>
 6    1  0.1072514E-005  0.2886300E+04  0.7818608E-02  0.8276965E-01
         -1   -1    0    0    0  501 -0.00000000000E+00  0.00000000000E+00  0.70746110155E+03  0.70746110155E+03  0.00000000000E+00 0.  1.
          1   -1    0    0  501    0  0.00000000000E+00 -0.00000000000E+00 -0.29438810984E+04  0.29438810984E+04  0.00000000000E+00 0. -1.
         23    2    1    2    0    0  0.71170934518E+03  0.43236031076E+03 -0.26084240404E+04  0.27392826412E+04  0.79547366119E+02 0.  0.
         11    1    3    3    0    0  0.19964209004E+03  0.89231608459E+02 -0.75636095337E+03  0.78733800610E+03  0.00000000000E+00 0. -1.
        -11    1    3    3    0    0  0.51206725514E+03  0.34312870230E+03 -0.18520630870E+04  0.19519446351E+04  0.00000000000E+00 0.  1.
         22    1    1    2    0    0 -0.71170934518E+03 -0.43236031076E+03  0.37200404354E+03  0.91205955877E+03  0.00000000000E+00 0.  1.
<mgrwt>
<rscale>  0 0.28862996E+04</rscale>
<asrwt>0</asrwt>
<pdfrwt beam="1">  1        1 0.45290479E+00 0.28862996E+04</pdfrwt>
<pdfrwt beam="2">  1       -1 0.10884017E+00 0.28862996E+04</pdfrwt>
<totfact> 0.44132305E-01</totfact>
</mgrwt>
</event>
<event>
 6    1  0.1072514E-005  0.2173701E+04  0.7818608E-02  0.8529455E-01
         -1   -1    0    0    0  501 -0.00000000000E+00  0.00000000000E+00  0.83567546407E+03  0.83567546407E+03  0.00000000000E+00 0.  1.
          1   -1    0    0  501    0  0.00000000000E+00 -0.00000000000E+00 -0.14135201007E+04  0.14135201007E+04  0.00000000000E+00 0. -1.
         23    2    1    2    0    0 -0.27021175931E+03 -0.97094215951E+03  0.12614631732E+03  0.10198272980E+04  0.91606508953E+02 0.  0.
         11    1    3    3    0    0 -0.11500840086E+03 -0.49894750597E+03  0.24090893540E+02  0.51259722701E+03  0.00000000000E+00 0.  1.
        -11    1    3    3    0    0 -0.15520335845E+03 -0.47199465354E+03  0.10205542378E+03  0.50723007104E+03  0.00000000000E+00 0. -1.
         22    1    1    2    0    0  0.27021175931E+03  0.97094215951E+03 -0.70399095393E+03  0.12293682667E+04  0.00000000000E+00 0. -1.
<mgrwt>
<rscale>  0 0.21737011E+04</rscale>
<asrwt>0</asrwt>
<pdfrwt beam="1">  1        1 0.21746463E+00 0.21737011E+04</pdfrwt>
<pdfrwt beam="2">  1       -1 0.12856546E+00 0.21737011E+04</pdfrwt>
<totfact> 0.35825585E+00</totfact>
</mgrwt>
</event>
<event>
 6    1  0.1072514E-005  0.6486645E+03  0.7818608E-02  0.9809288E-01
          1   -1    0    0  501    0  0.00000000000E+00  0.00000000000E+00  0.24406106821E+04  0.24406106821E+04  0.00000000000E+00 0. -1.
         -1   -1    0    0    0  501 -0.00000000000E+00 -0.00000000000E+00 -0.43100447127E+02  0.43100447127E+02  0.00000000000E+00 0.  1.
         23    2    1    2    0    0 -0.18672170184E+03 -0.19254031942E+03  0.18771061691E+04  0.18982564680E+04  0.88956617475E+02 0.  0.
         13    1    3    3    0    0 -0.11924877886E+02 -0.52491700113E+02  0.24433999132E+03  0.25019914598E+03  0.00000000000E+00 0.  1.
        -13    1    3    3    0    0 -0.17479682395E+03 -0.14004861931E+03  0.16327661778E+04  0.16480573220E+04  0.00000000000E+00 0. -1.
         22    1    1    2    0    0  0.18672170184E+03  0.19254031942E+03  0.52040406586E+03  0.58545466119E+03  0.00000000000E+00 0.  1.
<mgrwt>
<rscale>  0 0.64866451E+03</rscale>
<asrwt>0</asrwt>
<pdfrwt beam="1">  1        1 0.37547846E+00 0.64866451E+03</pdfrwt>
<pdfrwt beam="2">  1       -1 0.66308399E-02 0.64866451E+03</pdfrwt>
<totfact> 0.18812103E+02</totfact>
</mgrwt>
</event>
<event>
 6    1  0.1072514E-005  0.1731383E+04  0.7818608E-02  0.8743665E-01
          2   -1    0    0  501    0  0.00000000000E+00  0.00000000000E+00  0.10054414277E+04  0.10054414277E+04  0.00000000000E+00 0.  1.
         -2   -1    0    0    0  501 -0.00000000000E+00 -0.00000000000E+00 -0.74536550956E+03  0.74536550956E+03  0.00000000000E+00 0. -1.
         23    2    1    2    0    0 -0.82311460515E+03  0.21843199810E+03  0.27379119614E+03  0.89909202028E+03  0.90413775637E+02 0.  0.
         13    1    3    3    0    0 -0.50881562615E+03  0.90919232742E+02  0.15298476159E+03  0.53903987382E+03  0.00000000000E+00 0.  1.
        -13    1    3    3    0    0 -0.31429897901E+03  0.12751276536E+03  0.12080643455E+03  0.36005214645E+03  0.00000000000E+00 0. -1.
         22    1    1    2    0    0  0.82311460515E+03 -0.21843199810E+03 -0.13715277977E+02  0.85171491701E+03  0.00000000000E+00 0. -1.
<mgrwt>
<rscale>  0 0.17313825E+04</rscale>
<asrwt>0</asrwt>
<pdfrwt beam="1">  1        2 0.15468330E+00 0.17313825E+04</pdfrwt>
<pdfrwt beam="2">  1       -2 0.11467162E+00 0.17313825E+04</pdfrwt>
<totfact> 0.14084427E+01</totfact>
</mgrwt>
</event>
<event>
 6    1  0.1072514E-005  0.6608915E+03  0.7818608E-02  0.9786554E-01
          2   -1    0    0  501    0  0.00000000000E+00  0.00000000000E+00  0.16531496576E+04  0.16531496576E+04  0.00000000000E+00 0. -1.
         -2   -1    0    0    0  501 -0.00000000000E+00 -0.00000000000E+00 -0.66052332936E+02  0.66052332936E+02  0.00000000000E+00 0.  1.
         23    2    1    2    0    0  0.24288075211E+03 -0.14399640865E+02  0.24455318536E+03  0.35478886564E+03  0.82888294173E+02 0.  0.
         11    1    3    3    0    0  0.66572365496E+02 -0.71779418165E+01  0.12450588082E+03  0.14136872728E+03  0.00000000000E+00 0. -1.
        -11    1    3    3    0    0  0.17630838661E+03 -0.72216990484E+01  0.12004730454E+03  0.21342013835E+03  0.00000000000E+00 0.  1.
         22    1    1    2    0    0 -0.24288075211E+03  0.14399640865E+02  0.13425441393E+04  0.13644131249E+04  0.00000000000E+00 0. -1.
<mgrwt>
<rscale>  0 0.66089149E+03</rscale>
<asrwt>0</asrwt>
<pdfrwt beam="1">  1        2 0.25433068E+00 0.66089149E+03</pdfrwt>
<pdfrwt beam="2">  1       -2 0.10161899E-01 0.66089149E+03</pdfrwt>
<totfact> 0.71054435E+02</totfact>
</mgrwt>
</event>
<event>
 6    1  0.1072514E-005  0.2170761E+04  0.7818608E-02  0.8530698E-01
          2   -1    0    0  501    0  0.00000000000E+00  0.00000000000E+00  0.20610763779E+04  0.20610763779E+04  0.00000000000E+00 0. -1.
         -2   -1    0    0    0  501 -0.00000000000E+00 -0.00000000000E+00 -0.57157045057E+03  0.57157045057E+03  0.00000000000E+00 0.  1.
         23    2    1    2    0    0  0.16259173166E+03 -0.59998039254E+03  0.18223171024E+04  0.19275398714E+04  0.90320494749E+02 0.  0.
         11    1    3    3    0    0  0.10691144106E+03 -0.24545727841E+03  0.84621819495E+03  0.88756102056E+03  0.00000000000E+00 0. -1.
        -11    1    3    3    0    0  0.55680290592E+02 -0.35452311413E+03  0.97609890742E+03  0.10399788509E+04  0.00000000000E+00 0.  1.
         22    1    1    2    0    0 -0.16259173166E+03  0.59998039254E+03 -0.33281117503E+03  0.70510695704E+03  0.00000000000E+00 0.  1.
<mgrwt>
<rscale>  0 0.21707606E+04</rscale>
<asrwt>0</asrwt>
<pdfrwt beam="1">  1        2 0.31708867E+00 0.21707606E+04</pdfrwt>
<pdfrwt beam="2">  1       -2 0.87933917E-01 0.21707606E+04</pdfrwt>
<totfact> 0.63096829E+00</totfact>
</mgrwt>
</event>
<event>
 6    1  0.1072514E-005  0.3656131E+04  0.7818608E-02  0.8077754E-01
          1   -1    0    0  501    0  0.00000000000E+00  0.00000000000E+00  0.16493942730E+04  0.16493942730E+04  0.00000000000E+00 0. -1.
         -1   -1    0    0    0  501 -0.00000000000E+00 -0.00000000000E+00 -0.20260915638E+04  0.20260915638E+04  0.00000000000E+00 0.  1.
         23    2    1    2    0    0  0.11805291113E+04 -0.13682130673E+04 -0.45824063020E+03  0.18665344012E+04  0.91160384871E+02 0.  0.
         13    1    3    3    0    0  0.38579395184E+03 -0.38823776607E+03 -0.12163325383E+03  0.56067832553E+03  0.00000000000E+00 0. -1.
        -13    1    3    3    0    0  0.79473515943E+03 -0.97997530121E+03 -0.33660737637E+03  0.13058560757E+04  0.00000000000E+00 0.  1.
         22    1    1    2    0    0 -0.11805291113E+04  0.13682130673E+04  0.81543339464E+02  0.18089514356E+04  0.00000000000E+00 0. -1.
<mgrwt>
<rscale>  0 0.36561312E+04</rscale>
<asrwt>0</asrwt>
<pdfrwt beam="1">  1        1 0.25375296E+00 0.36561312E+04</pdfrwt>
<pdfrwt beam="2">  1       -1 0.31170640E+00 0.36561312E+04</pdfrwt>
<totfact> 0.11518620E-01</totfact>
</mgrwt>
</event>
<event>
 6    1  0.1072514E-005  0.2008378E+04  0.7818608E-02  0.8602714E-01
          2   -1    0    0  501    0  0.00000000000E+00  0.00000000000E+00  0.24519772835E+04  0.24519772835E+04  0.00000000000E+00 0.  1.
         -2   -1    0    0    0  501 -0.00000000000E+00 -0.00000000000E+00 -0.41125795867E+03  0.41125795867E+03  0.00000000000E+00 0. -1.
         23    2    1    2    0    0 -0.40373453736E+03 -0.25577611248E+03 -0.23345870436E+03  0.53937881269E+03  0.89462509246E+02 0.  0.
         11    1    3    3    0    0 -0.29488170480E+03 -0.13914549169E+03 -0.16964037382E+03  0.36755209714E+03  0.00000000000E+00 0. -1.
        -11    1    3    3    0    0 -0.10885283257E+03 -0.11663062079E+03 -0.63818330539E+02  0.17182671555E+03  0.00000000000E+00 0.  1.
         22    1    1    2    0    0  0.40373453736E+03  0.25577611248E+03  0.22741780292E+04  0.23238564295E+04  0.00000000000E+00 0.  1.
<mgrwt>
<rscale>  0 0.20083776E+04</rscale>
<asrwt>0</asrwt>
<pdfrwt beam="1">  1        2 0.37722727E+00 0.20083776E+04</pdfrwt>
<pdfrwt beam="2">  1       -2 0.63270456E-01 0.20083776E+04</pdfrwt>
<totfact> 0.79735660E+00</totfact>
</mgrwt>
</event>
<event>
 6    1  0.1072514E-005  0.2736658E+04  0.7818608E-02  0.8323208E-01
          1   -1    0    0  501    0  0.00000000000E+00  0.00000000000E+00  0.15004323627E+04  0.15004323627E+04  0.00000000000E+00 0. -1.
         -1   -1    0    0    0  501 -0.00000000000E+00 -0.00000000000E+00 -0.12478569134E+04  0.12478569134E+04  0.00000000000E+00 0.  1.
         23    2    1    2    0    0  0.37412773748E+03 -0.12339940886E+04 -0.32916334208E+03  0.13336751958E+04  0.87338693366E+02 0.  0.
         11    1    3    3    0    0  0.33670547789E+03 -0.10696354805E+04 -0.31354163617E+03  0.11643878209E+04  0.00000000000E+00 0.  1.
        -11    1    3    3    0    0  0.37422259592E+02 -0.16435860818E+03 -0.15621705909E+02  0.16928737487E+03  0.00000000000E+00 0. -1.
         22    1    1    2    0    0 -0.37412773748E+03  0.12339940886E+04  0.58173879135E+03  0.14146140803E+04  0.00000000000E+00 0. -1.
<mgrwt>
<rscale>  0 0.27366585E+04</rscale>
<asrwt>0</asrwt>
<pdfrwt beam="1">  1        1 0.23083575E+00 0.27366585E+04</pdfrwt>
<pdfrwt beam="2">  1       -1 0.19197799E+00 0.27366585E+04</pdfrwt>
<totfact> 0.97388153E-01</totfact>
</mgrwt>
</event>
<event>
 6    1  0.1072514E-005  0.3783785E+04  0.7818608E-02  0.8049644E-01
          1   -1    0    0  501    0  0.00000000000E+00  0.00000000000E+00  0.19939128614E+04  0.19939128614E+04  0.00000000000E+00 0. -1.
         -1   -1    0    0    0  501 -0.00000000000E+00 -0.00000000000E+00 -0.17950918985E+04  0.17950918985E+04  0.00000000000E+00 0.  1.
         23    2    1    2    0    0 -0.74957129335E+03 -0.91323827127E+02 -0.16363884133E+04  0.18045172644E+04  0.91205005872E+02 0.  0.
         11    1    3    3    0    0 -0.42054624235E+03 -0.71053900812E+02 -0.10184045209E+04  0.11041084942E+04  0.00000000000E+00 0.  1.
        -11    1    3    3    0    0 -0.32902505100E+03 -0.20269926316E+02 -0.61798389243E+03  0.70040877022E+03  0.00000000000E+00 0. -1.
         22    1    1    2    0    0  0.74957129335E+03  0.91323827127E+02  0.18352093762E+04  0.19844874955E+04  0.00000000000E+00 0. -1.
<mgrwt>
<rscale>  0 0.37837848E+04</rscale>
<asrwt>0</asrwt>
<pdfrwt beam="1">  1        1 0.30675583E+00 0.37837848E+04</pdfrwt>
<pdfrwt beam="2">  1       -1 0.27616798E+00 0.37837848E+04</pdfrwt>
<totfact> 0.11296093E-01</totfact>
</mgrwt>
</event>
<event>
 6    1  0.1072514E-005  0.3274325E+04  0.7818608E-02  0.8169459E-01
          2   -1    0    0  501    0  0.00000000000E+00  0.00000000000E+00  0.30225555193E+04  0.30225555193E+04  0.00000000000E+00 0. -1.
         -2   -1    0    0    0  501 -0.00000000000E+00 -0.00000000000E+00 -0.88676666309E+03  0.88676666309E+03  0.00000000000E+00 0.  1.
         23    2    1    2    0    0  0.93692649558E+03 -0.38157630687E+03  0.26036173341E+04  0.27947392016E+04  0.91171522337E+02 0.  0.
         13    1    3    3    0    0  0.21919378582E+03 -0.68911969121E+02  0.68656259011E+03  0.72399099813E+03  0.00000000000E+00 0. -1.
        -13    1    3    3    0    0  0.71773270976E+03 -0.31266433775E+03  0.19170547440E+04  0.20707482035E+04  0.00000000000E+00 0.  1.
         22    1    1    2    0    0 -0.93692649558E+03  0.38157630687E+03 -0.46782847797E+03  0.11145829807E+04  0.00000000000E+00 0.  1.
<mgrwt>
<rscale>  0 0.32743253E+04</rscale>
<asrwt>0</asrwt>
<pdfrwt beam="1">  1        2 0.46500854E+00 0.32743253E+04</pdfrwt>
<pdfrwt beam="2">  1       -2 0.13642564E+00 0.32743253E+04</pdfrwt>
<totfact> 0.54126293E-01</totfact>
</mgrwt>
</event>
<event>
 6    1  0.1072514E-005  0.1822154E+04  0.7818608E-02  0.8694606E-01
          2   -1    0    0  501    0  0.00000000000E+00  0.00000000000E+00  0.79856315174E+03  0.79856315174E+03  0.00000000000E+00 0. -1.
         -2   -1    0    0    0  501 -0.00000000000E+00 -0.00000000000E+00 -0.10394430861E+04  0.10394430861E+04  0.00000000000E+00 0.  1.
         23    2    1    2    0    0  0.54535968535E+03 -0.51568079517E+03  0.39640964090E+03  0.85338353263E+03  0.88198534315E+02 0.  0.
         13    1    3    3    0    0  0.32673531314E+03 -0.28818464754E+03  0.18341187706E+03  0.47270103932E+03  0.00000000000E+00 0.  1.
        -13    1    3    3    0    0  0.21862437221E+03 -0.22749614763E+03  0.21299776384E+03  0.38068249331E+03  0.00000000000E+00 0. -1.
         22    1    1    2    0    0 -0.54535968535E+03  0.51568079517E+03 -0.63728957531E+03  0.98462270525E+03  0.00000000000E+00 0.  1.
<mgrwt>
<rscale>  0 0.18221536E+04</rscale>
<asrwt>0</asrwt>
<pdfrwt beam="1">  1        2 0.12285587E+00 0.18221536E+04</pdfrwt>
<pdfrwt beam="2">  1       -2 0.15991432E+00 0.18221536E+04</pdfrwt>
<totfact> 0.82047805E+00</totfact>
</mgrwt>
</event>
<event>
 6    1  0.1072514E-005  0.1386454E+04  0.7818608E-02  0.8963682E-01
          2   -1    0    0  501    0  0.00000000000E+00  0.00000000000E+00  0.27522799116E+04  0.27522799116E+04  0.00000000000E+00 0. -1.
         -2   -1    0    0    0  501 -0.00000000000E+00 -0.00000000000E+00 -0.17460574312E+03  0.17460574312E+03  0.00000000000E+00 0.  1.
         23    2    1    2    0    0  0.37550121372E+03 -0.16071017463E+03  0.11985505013E+03  0.43535926709E+03  0.91342961776E+02 0.  0.
         13    1    3    3    0    0  0.24892209618E+03 -0.14853482438E+03  0.66162524785E+02  0.29732521539E+03  0.00000000000E+00 0.  1.
        -13    1    3    3    0    0  0.12657911754E+03 -0.12175350243E+02  0.53692525344E+02  0.13803405170E+03  0.00000000000E+00 0. -1.
         22    1    1    2    0    0 -0.37550121372E+03  0.16071017463E+03  0.24578191183E+04  0.24915263876E+04  0.00000000000E+00 0. -1.
<mgrwt>
<rscale>  0 0.13864543E+04</rscale>
<asrwt>0</asrwt>
<pdfrwt beam="1">  1        2 0.42342765E+00 0.13864543E+04</pdfrwt>
<pdfrwt beam="2">  1       -2 0.26862424E-01 0.13864543E+04</pdfrwt>
<totfact> 0.30482137E+01</totfact>
</mgrwt>
</event>
<event>
 6    1  0.1072514E-005  0.1939351E+04  0.7818608E-02  0.8635513E-01
          1   -1    0    0  501    0  0.00000000000E+00  0.00000000000E+00  0.41263242995E+04  0.41263242995E+04  0.00000000000E+00 0. -1.
         -1   -1    0    0    0  501 -0.00000000000E+00 -0.00000000000E+00 -0.22787122745E+03  0.22787122745E+03  0.00000000000E+00 0.  1.
         23    2    1    2    0    0  0.60573696660E+03 -0.35412151227E+01  0.25968842543E+03  0.66535587654E+03  0.91271853399E+02 0.  0.
         13    1    3    3    0    0  0.21119484872E+03 -0.13317893357E+02  0.46003160570E+02  0.21655696985E+03  0.00000000000E+00 0. -1.
        -13    1    3    3    0    0  0.39454211789E+03  0.97766782344E+01  0.21368526486E+03  0.44879890669E+03  0.00000000000E+00 0.  1.
         22    1    1    2    0    0 -0.60573696660E+03  0.35412151227E+01  0.36387646466E+04  0.36888396504E+04  0.00000000000E+00 0. -1.
<mgrwt>
<rscale>  0 0.19393510E+04</rscale>
<asrwt>0</asrwt>
<pdfrwt beam="1">  1        1 0.63481906E+00 0.19393510E+04</pdfrwt>
<pdfrwt beam="2">  1       -1 0.35057115E-01 0.19393510E+04</pdfrwt>
<totfact> 0.53911613E-01</totfact>
</mgrwt>
</event>
<event>
 6    1  0.1072514E-005  0.5000566E+04  0.7818608E-02  0.7828420E-01
          1   -1    0    0  501    0  0.00000000000E+00  0.00000000000E+00  0.24649261893E+04  0.24649261893E+04  0.00000000000E+00 0. -1.
         -1   -1    0    0    0  501 -0.00000000000E+00 -0.00000000000E+00 -0.25361471653E+04  0.25361471653E+04  0.00000000000E+00 0.  1.
         23    2    1    2    0    0  0.64038097218E+03  0.21096702394E+04  0.11419506340E+04  0.24846112221E+04  0.91898673742E+02 0.  0.
         13    1    3    3    0    0  0.35805479871E+03  0.12257225339E+04  0.61240526211E+03  0.14162059081E+04  0.00000000000E+00 0.  1.
        -13    1    3    3    0    0  0.28232617347E+03  0.88394770551E+03  0.52954537186E+03  0.10684053141E+04  0.00000000000E+00 0. -1.
         22    1    1    2    0    0 -0.64038097218E+03 -0.21096702394E+04 -0.12131716100E+04  0.25164621324E+04  0.00000000000E+00 0. -1.
<mgrwt>
<rscale>  0 0.50005662E+04</rscale>
<asrwt>0</asrwt>
<pdfrwt beam="1">  1        1 0.37921941E+00 0.50005662E+04</pdfrwt>
<pdfrwt beam="2">  1       -1 0.39017649E+00 0.50005662E+04</pdfrwt>
<totfact> 0.86365347E-03</totfact>
</mgrwt>
</event>
<event>
 6    1  0.1072514E-005  0.2220146E+04  0.7818608E-02  0.8510089E-01
         -1   -1    0    0    0  501 -0.00000000000E+00  0.00000000000E+00  0.12564306164E+04  0.12564306164E+04  0.00000000000E+00 0. -1.
          1   -1    0    0  501    0  0.00000000000E+00 -0.00000000000E+00 -0.98076418651E+03  0.98076418651E+03  0.00000000000E+00 0.  1.
         23    2    1    2    0    0 -0.77626140095E+03 -0.69443364559E+03  0.51936683171E+03  0.11675174045E+04  0.92385784889E+02 0.  0.
         13    1    3    3    0    0 -0.67684822113E+03 -0.64183240010E+03  0.47318901076E+03  0.10459350765E+04  0.00000000000E+00 0. -1.
        -13    1    3    3    0    0 -0.99413179827E+02 -0.52601245488E+02  0.46177820950E+02  0.12158232807E+03  0.00000000000E+00 0.  1.
         22    1    1    2    0    0  0.77626140095E+03  0.69443364559E+03 -0.24370040184E+03  0.10696773984E+04  0.00000000000E+00 0.  1.
<mgrwt>
<rscale>  0 0.22201461E+04</rscale>
<asrwt>0</asrwt>
<pdfrwt beam="1">  1        1 0.15088680E+00 0.22201461E+04</pdfrwt>
<pdfrwt beam="2">  1       -1 0.19329702E+00 0.22201461E+04</pdfrwt>
<totfact> 0.23889467E+00</totfact>
</mgrwt>
</event>
<event>
 6    1  0.1072514E-005  0.4560310E+04  0.7818608E-02  0.7900163E-01
          2   -1    0    0  501    0  0.00000000000E+00  0.00000000000E+00  0.26295025318E+04  0.26295025318E+04  0.00000000000E+00 0. -1.
         -2   -1    0    0    0  501 -0.00000000000E+00 -0.00000000000E+00 -0.19772204793E+04  0.19772204793E+04  0.00000000000E+00 0.  1.
         23    2    1    2    0    0  0.21449041768E+04  0.76647530022E+03  0.24340051531E+03  0.22925746958E+04  0.92501952369E+02 0.  0.
         11    1    3    3    0    0  0.20545389214E+04  0.71611269334E+03  0.22334655180E+03  0.21871971222E+04  0.00000000000E+00 0.  1.
        -11    1    3    3    0    0  0.90365255412E+02  0.50362606879E+02  0.20053963509E+02  0.10537757356E+03  0.00000000000E+00 0. -1.
         22    1    1    2    0    0 -0.21449041768E+04 -0.76647530022E+03  0.40888153725E+03  0.23141483153E+04  0.00000000000E+00 0.  1.
<mgrwt>
<rscale>  0 0.45603098E+04</rscale>
<asrwt>0</asrwt>
<pdfrwt beam="1">  1        2 0.40453885E+00 0.45603098E+04</pdfrwt>
<pdfrwt beam="2">  1       -2 0.30418777E+00 0.45603098E+04</pdfrwt>
<totfact> 0.66048402E-02</totfact>
</mgrwt>
</event>
<event>
 6    1  0.1072514E-005  0.4027942E+04  0.7818608E-02  0.7998933E-01
         -2   -1    0    0    0  501 -0.00000000000E+00  0.00000000000E+00  0.28800937340E+04  0.28800937340E+04  0.00000000000E+00 0.  1.
          2   -1    0    0  501    0  0.00000000000E+00 -0.00000000000E+00 -0.14083149617E+04  0.14083149617E+04  0.00000000000E+00 0. -1.
         23    2    1    2    0    0 -0.85213729086E+03 -0.28584687643E+03  0.26538507272E+04  0.28034371452E+04  0.92139816115E+02 0.  0.
         13    1    3    3    0    0 -0.42503580166E+03 -0.10500368579E+03  0.13793791801E+04  0.14471931900E+04  0.00000000000E+00 0. -1.
        -13    1    3    3    0    0 -0.42710148920E+03 -0.18084319064E+03  0.12744715470E+04  0.13562439552E+04  0.00000000000E+00 0.  1.
         22    1    1    2    0    0  0.85213729086E+03  0.28584687643E+03 -0.11820719549E+04  0.14849715505E+04  0.00000000000E+00 0. -1.
<mgrwt>
<rscale>  0 0.40279420E+04</rscale>
<asrwt>0</asrwt>
<pdfrwt beam="1">  1        2 0.21666384E+00 0.40279420E+04</pdfrwt>
<pdfrwt beam="2">  1       -2 0.44309134E+00 0.40279420E+04</pdfrwt>
<totfact> 0.43438631E-02</totfact>
</mgrwt>
</event>
<event>
 6    1  0.1104671E-005  0.3874324E+04  0.7818608E-02  0.8030391E-01
          1   -1    0    0  501    0  0.00000000000E+00  0.00000000000E+00  0.21927337219E+04  0.21927337219E+04  0.00000000000E+00 0. -1.
         -1   -1    0    0    0  501 -0.00000000000E+00 -0.00000000000E+00 -0.17113779286E+04  0.17113779286E+04  0.00000000000E+00 0.  1.
         23    2    1    2    0    0  0.26302093715E+03  0.12377283377E+04 -0.12357821758E+04  0.17711057302E+04  0.92230527224E+02 0.  0.
         13    1    3    3    0    0  0.20996976064E+03  0.83930058398E+03 -0.88475351320E+03  0.12374576962E+04  0.00000000000E+00 0. -1.
        -13    1    3    3    0    0  0.53051176510E+02  0.39842775368E+03 -0.35102866263E+03  0.53364803403E+03  0.00000000000E+00 0.  1.
         22    1    1    2    0    0 -0.26302093715E+03 -0.12377283377E+04  0.17171379691E+04  0.21330059204E+04  0.00000000000E+00 0. -1.
<mgrwt>
<rscale>  0 0.38743237E+04</rscale>
<asrwt>0</asrwt>
<pdfrwt beam="1">  1        1 0.33734365E+00 0.38743237E+04</pdfrwt>
<pdfrwt beam="2">  1       -1 0.26328891E+00 0.38743237E+04</pdfrwt>
<totfact> 0.99538852E-02</totfact>
</mgrwt>
</event>
<event>
 6    1  0.1072514E-005  0.4012174E+04  0.7818608E-02  0.8002095E-01
          1   -1    0    0  501    0  0.00000000000E+00  0.00000000000E+00  0.20724507539E+04  0.20724507539E+04  0.00000000000E+00 0. -1.
         -1   -1    0    0    0  501 -0.00000000000E+00 -0.00000000000E+00 -0.19418479483E+04  0.19418479483E+04  0.00000000000E+00 0.  1.
         23    2    1    2    0    0  0.12995262211E+04  0.85628675001E+03  0.13301831361E+04  0.20493589151E+04  0.92137886222E+02 0.  0.
         11    1    3    3    0    0  0.38164099132E+03  0.29867816857E+03  0.39235421106E+03  0.62353854858E+03  0.00000000000E+00 0. -1.
        -11    1    3    3    0    0  0.91788522976E+03  0.55760858144E+03  0.93782892501E+03  0.14258203666E+04  0.00000000000E+00 0.  1.
         22    1    1    2    0    0 -0.12995262211E+04 -0.85628675001E+03 -0.11995803305E+04  0.19649397871E+04  0.00000000000E+00 0.  1.
<mgrwt>
<rscale>  0 0.40121736E+04</rscale>
<asrwt>0</asrwt>
<pdfrwt beam="1">  1        1 0.31883858E+00 0.40121736E+04</pdfrwt>
<pdfrwt beam="2">  1       -1 0.29874584E+00 0.40121736E+04</pdfrwt>
<totfact> 0.70002572E-02</totfact>
</mgrwt>
</event>
<event>
 6    1  0.1072514E-005  0.2473431E+04  0.7818608E-02  0.8412512E-01
          2   -1    0    0  501    0  0.00000000000E+00  0.00000000000E+00  0.23613740341E+04  0.23613740341E+04  0.00000000000E+00 0. -1.
         -2   -1    0    0    0  501 -0.00000000000E+00 -0.00000000000E+00 -0.64770164192E+03  0.64770164192E+03  0.00000000000E+00 0.  1.
         23    2    1    2    0    0 -0.46785983793E+03  0.11201604962E+04  0.58234381350E+03  0.13496912365E+04  0.94285479525E+02 0.  0.
         11    1    3    3    0    0 -0.30755827151E+03  0.83775063824E+03  0.44293687844E+03  0.99629880083E+03  0.00000000000E+00 0.  1.
        -11    1    3    3    0    0 -0.16030156641E+03  0.28240985793E+03  0.13940693506E+03  0.35339243568E+03  0.00000000000E+00 0. -1.
         22    1    1    2    0    0  0.46785983793E+03 -0.11201604962E+04  0.11313285787E+04  0.16593844395E+04  0.00000000000E+00 0. -1.
<mgrwt>
<rscale>  0 0.24734315E+04</rscale>
<asrwt>0</asrwt>
<pdfrwt beam="1">  1        2 0.36328831E+00 0.24734315E+04</pdfrwt>
<pdfrwt beam="2">  1       -2 0.99646408E-01 0.24734315E+04</pdfrwt>
<totfact> 0.31139572E+00</totfact>
</mgrwt>
</event>
<event>
 6    1  0.1072514E-005  0.5334684E+04  0.7818608E-02  0.7778856E-01
         -1   -1    0    0    0  501 -0.00000000000E+00  0.00000000000E+00  0.48072122430E+04  0.48072122430E+04  0.00000000000E+00 0.  1.
          1   -1    0    0  501    0  0.00000000000E+00 -0.00000000000E+00 -0.14800079827E+04  0.14800079827E+04  0.00000000000E+00 0. -1.
         23    2    1    2    0    0  0.12567324278E+04  0.25325933583E+03  0.44197647465E+04  0.46028197085E+04  0.90067573890E+02 0.  0.
         13    1    3    3    0    0  0.22117092776E+03  0.25820452606E+02  0.66912554689E+03  0.70520370997E+03  0.00000000000E+00 0.  1.
        -13    1    3    3    0    0  0.10355615000E+04  0.22743888322E+03  0.37506391997E+04  0.38976159985E+04  0.00000000000E+00 0. -1.
         22    1    1    2    0    0 -0.12567324278E+04 -0.25325933583E+03 -0.10925604862E+04  0.16844005172E+04  0.00000000000E+00 0. -1.
<mgrwt>
<rscale>  0 0.53346837E+04</rscale>
<asrwt>0</asrwt>
<pdfrwt beam="1">  1        1 0.22769354E+00 0.53346837E+04</pdfrwt>
<pdfrwt beam="2">  1       -1 0.73957111E+00 0.53346837E+04</pdfrwt>
<totfact> 0.67736195E-04</totfact>
</mgrwt>
</event>
<event>
 6    1  0.1072514E-005  0.2687612E+04  0.7818608E-02  0.8339036E-01
          1   -1    0    0  501    0  0.00000000000E+00  0.00000000000E+00  0.21598265164E+04  0.21598265164E+04  0.00000000000E+00 0. -1.
         -1   -1    0    0    0  501 -0.00000000000E+00 -0.00000000000E+00 -0.83609224777E+03  0.83609224777E+03  0.00000000000E+00 0.  1.
         23    2    1    2    0    0 -0.80668733315E+03  0.65039546353E+03  0.16139809607E+04  0.19198138182E+04  0.83617239608E+02 0.  0.
         13    1    3    3    0    0 -0.13607118920E+03  0.14312453453E+03  0.27127421807E+03  0.33554389028E+03  0.00000000000E+00 0. -1.
        -13    1    3    3    0    0 -0.67061614395E+03  0.50727092900E+03  0.13427067426E+04  0.15842699280E+04  0.00000000000E+00 0.  1.
         22    1    1    2    0    0  0.80668733315E+03 -0.65039546353E+03 -0.29024669206E+03  0.10761049459E+04  0.00000000000E+00 0.  1.
<mgrwt>
<rscale>  0 0.26876117E+04</rscale>
<asrwt>0</asrwt>
<pdfrwt beam="1">  1        1 0.33228100E+00 0.26876117E+04</pdfrwt>
<pdfrwt beam="2">  1       -1 0.12862958E+00 0.26876117E+04</pdfrwt>
<totfact> 0.10562130E+00</totfact>
</mgrwt>
</event>
<event>
 6    1  0.1072514E-005  0.2332627E+04  0.7818608E-02  0.8465167E-01
          1   -1    0    0  501    0  0.00000000000E+00  0.00000000000E+00  0.98128252229E+03  0.98128252229E+03  0.00000000000E+00 0. -1.
         -1   -1    0    0    0  501 -0.00000000000E+00 -0.00000000000E+00 -0.13862342529E+04  0.13862342529E+04  0.00000000000E+00 0.  1.
         23    2    1    2    0    0 -0.64674846187E+02  0.10738299701E+04  0.25000432991E+03  0.11080482041E+04  0.89302951715E+02 0.  0.
         13    1    3    3    0    0 -0.18283868805E+02  0.36147332851E+02  0.13962928757E+02  0.42847320921E+02  0.00000000000E+00 0.  1.
        -13    1    3    3    0    0 -0.46390977382E+02  0.10376826372E+04  0.23604140116E+03  0.10652008832E+04  0.00000000000E+00 0. -1.
         22    1    1    2    0    0  0.64674846187E+02 -0.10738299701E+04 -0.65495606052E+03  0.12594685711E+04  0.00000000000E+00 0.  1.
<mgrwt>
<rscale>  0 0.23326272E+04</rscale>
<asrwt>0</asrwt>
<pdfrwt beam="1">  1        1 0.15096654E+00 0.23326272E+04</pdfrwt>
<pdfrwt beam="2">  1       -1 0.21326681E+00 0.23326272E+04</pdfrwt>
<totfact> 0.17234519E+00</totfact>
</mgrwt>
</event>
<event>
 6    1  0.1072514E-005  0.4431163E+04  0.7818608E-02  0.7922800E-01
          2   -1    0    0  501    0  0.00000000000E+00  0.00000000000E+00  0.20623285488E+04  0.20623285488E+04  0.00000000000E+00 0. -1.
         -2   -1    0    0    0  501 -0.00000000000E+00 -0.00000000000E+00 -0.23802226037E+04  0.23802226037E+04  0.00000000000E+00 0.  1.
         23    2    1    2    0    0  0.14642309591E+04  0.62567166035E+03 -0.17021659387E+04  0.23326587439E+04  0.92144476454E+02 0.  0.
         11    1    3    3    0    0  0.30362752288E+03  0.92780991892E+02 -0.31863095315E+03  0.44980403445E+03  0.00000000000E+00 0. -1.
        -11    1    3    3    0    0  0.11606034362E+04  0.53289066846E+03 -0.13835349855E+04  0.18828547094E+04  0.00000000000E+00 0.  1.
         22    1    1    2    0    0 -0.14642309591E+04 -0.62567166035E+03  0.13842718837E+04  0.21098924086E+04  0.00000000000E+00 0. -1.
<mgrwt>
<rscale>  0 0.44311628E+04</rscale>
<asrwt>0</asrwt>
<pdfrwt beam="1">  1        2 0.31728132E+00 0.44311628E+04</pdfrwt>
<pdfrwt beam="2">  1       -2 0.36618809E+00 0.44311628E+04</pdfrwt>
<totfact> 0.57704733E-02</totfact>
</mgrwt>
</event>
<event>
 6    1  0.1072514E-005  0.2661190E+04  0.7818608E-02  0.8347708E-01
         -2   -1    0    0    0  501 -0.00000000000E+00  0.00000000000E+00  0.66693796038E+03  0.66693796038E+03  0.00000000000E+00 0.  1.
          2   -1    0    0  501    0  0.00000000000E+00 -0.00000000000E+00 -0.26546442307E+04  0.26546442307E+04  0.00000000000E+00 0. -1.
         23    2    1    2    0    0 -0.61704401335E+03 -0.21402492923E+03 -0.24396597032E+04  0.25273455196E+04  0.94794108641E+02 0.  0.
         13    1    3    3    0    0 -0.18582375941E+03 -0.19899476736E+02 -0.66591694032E+03  0.69164429452E+03  0.00000000000E+00 0.  1.
        -13    1    3    3    0    0 -0.43122025394E+03 -0.19412545250E+03 -0.17737427629E+04  0.18357012251E+04  0.00000000000E+00 0. -1.
         22    1    1    2    0    0  0.61704401335E+03  0.21402492923E+03  0.45195343295E+03  0.79423667146E+03  0.00000000000E+00 0.  1.
<mgrwt>
<rscale>  0 0.26611900E+04</rscale>
<asrwt>0</asrwt>
<pdfrwt beam="1">  1        2 0.40840680E+00 0.26611900E+04</pdfrwt>
<pdfrwt beam="2">  1       -2 0.10260584E+00 0.26611900E+04</pdfrwt>
<totfact> 0.19313471E+00</totfact>
</mgrwt>
</event>
<event>
 6    1  0.1072514E-005  0.1790462E+04  0.7818608E-02  0.8711388E-01
          1   -1    0    0  501    0  0.00000000000E+00  0.00000000000E+00  0.20737825264E+04  0.20737825264E+04  0.00000000000E+00 0. -1.
         -1   -1    0    0    0  501 -0.00000000000E+00 -0.00000000000E+00 -0.38646219138E+03  0.38646219138E+03  0.00000000000E+00 0.  1.
         23    2    1    2    0    0 -0.77073025757E+03 -0.29644910347E+03  0.13123277904E+04  0.15533121903E+04  0.93098497862E+02 0.  0.
         11    1    3    3    0    0 -0.28751990363E+03 -0.70587610935E+02  0.51469520981E+03  0.59376886480E+03  0.00000000000E+00 0.  1.
        -11    1    3    3    0    0 -0.48321035394E+03 -0.22586149253E+03  0.79763258058E+03  0.95954332553E+03  0.00000000000E+00 0. -1.
         22    1    1    2    0    0  0.77073025757E+03  0.29644910347E+03  0.37499254467E+03  0.90693252750E+03  0.00000000000E+00 0.  1.
<mgrwt>
<rscale>  0 0.17904620E+04</rscale>
<asrwt>0</asrwt>
<pdfrwt beam="1">  1        1 0.31904346E+00 0.17904620E+04</pdfrwt>
<pdfrwt beam="2">  1       -1 0.59455723E-01 0.17904620E+04</pdfrwt>
<totfact> 0.71927196E+00</totfact>
</mgrwt>
</event>
<event>
 6    1  0.1072514E-005  0.2092916E+04  0.7818608E-02  0.8564370E-01
          2   -1    0    0  501    0  0.00000000000E+00  0.00000000000E+00  0.10203531365E+04  0.10203531365E+04  0.00000000000E+00 0. -1.
         -2   -1    0    0    0  501 -0.00000000000E+00 -0.00000000000E+00 -0.10732307190E+04  0.10732307190E+04  0.00000000000E+00 0.  1.
         23    2    1    2    0    0  0.25371270907E+03  0.67627994442E+03  0.72822121826E+03  0.10297041449E+04  0.90883339163E+02 0.  0.
         11    1    3    3    0    0  0.78583224140E+02  0.21721180702E+03  0.29481057382E+03  0.37452578905E+03  0.00000000000E+00 0.  1.
        -11    1    3    3    0    0  0.17512948493E+03  0.45906813740E+03  0.43341064444E+03  0.65517835586E+03  0.00000000000E+00 0. -1.
         22    1    1    2    0    0 -0.25371270907E+03 -0.67627994442E+03 -0.78109880083E+03  0.10638797106E+04  0.00000000000E+00 0.  1.
<mgrwt>
<rscale>  0 0.20929160E+04</rscale>
<asrwt>0</asrwt>
<pdfrwt beam="1">  1        2 0.15697740E+00 0.20929160E+04</pdfrwt>
<pdfrwt beam="2">  1       -2 0.16511242E+00 0.20929160E+04</pdfrwt>
<totfact> 0.52076029E+00</totfact>
</mgrwt>
</event>
<event>
 6    1  0.1072514E-005  0.1806294E+04  0.7818608E-02  0.8702959E-01
          1   -1    0    0  501    0  0.00000000000E+00  0.00000000000E+00  0.15789181724E+04  0.15789181724E+04  0.00000000000E+00 0. -1.
         -1   -1    0    0    0  501 -0.00000000000E+00 -0.00000000000E+00 -0.51660350741E+03  0.51660350741E+03  0.00000000000E+00 0.  1.
         23    2    1    2    0    0 -0.19631610893E+03  0.73023250985E+03 -0.35294029736E+02  0.76265845358E+03  0.92858576431E+02 0.  0.
         13    1    3    3    0    0 -0.13776308854E+03  0.33397952306E+03 -0.14912643156E+02  0.36158453688E+03  0.00000000000E+00 0. -1.
        -13    1    3    3    0    0 -0.58553020395E+02  0.39625298679E+03 -0.20381386580E+02  0.40107391670E+03  0.00000000000E+00 0.  1.
         22    1    1    2    0    0  0.19631610893E+03 -0.73023250985E+03  0.10976086947E+04  0.13328632262E+04  0.00000000000E+00 0. -1.
<mgrwt>
<rscale>  0 0.18062942E+04</rscale>
<asrwt>0</asrwt>
<pdfrwt beam="1">  1        1 0.24291048E+00 0.18062942E+04</pdfrwt>
<pdfrwt beam="2">  1       -1 0.79477464E-01 0.18062942E+04</pdfrwt>
<totfact> 0.86067250E+00</totfact>
</mgrwt>
</event>
<event>
 6    1  0.1072514E-005  0.2206777E+04  0.7818608E-02  0.8515612E-01
         -2   -1    0    0    0  501 -0.00000000000E+00  0.00000000000E+00  0.96107762919E+03  0.96107762919E+03  0.00000000000E+00 0.  1.
          2   -1    0    0  501    0  0.00000000000E+00 -0.00000000000E+00 -0.12667724842E+04  0.12667724842E+04  0.00000000000E+00 0. -1.
         23    2    1    2    0    0  0.34919278885E+03 -0.10392416880E+04 -0.26032107273E+03  0.11305727237E+04  0.92025717439E+02 0.  0.
         11    1    3    3    0    0  0.24615877430E+03 -0.82222307986E+03 -0.22899215619E+03  0.88830306923E+03  0.00000000000E+00 0. -1.
        -11    1    3    3    0    0  0.10303401455E+03 -0.21701860816E+03 -0.31328916543E+02  0.24226965442E+03  0.00000000000E+00 0.  1.
         22    1    1    2    0    0 -0.34919278885E+03  0.10392416880E+04 -0.45373782271E+02  0.10972773897E+04  0.00000000000E+00 0. -1.
<mgrwt>
<rscale>  0 0.22067775E+04</rscale>
<asrwt>0</asrwt>
<pdfrwt beam="1">  1        2 0.19488807E+00 0.22067775E+04</pdfrwt>
<pdfrwt beam="2">  1       -2 0.14785810E+00 0.22067775E+04</pdfrwt>
<totfact> 0.49166799E+00</totfact>
</mgrwt>
</event>
<event>
 6    1  0.1072514E-005  0.2442784E+04  0.7818608E-02  0.8423657E-01
          1   -1    0    0  501    0  0.00000000000E+00  0.00000000000E+00  0.15735213492E+04  0.15735213492E+04  0.00000000000E+00 0. -1.
         -1   -1    0    0    0  501 -0.00000000000E+00 -0.00000000000E+00 -0.94806345889E+03  0.94806345889E+03  0.00000000000E+00 0.  1.
         23    2    1    2    0    0  0.49189406887E+03 -0.10317077921E+04 -0.12627463179E+03  0.11535634164E+04  0.91556156788E+02 0.  0.
         11    1    3    3    0    0  0.77805304410E+02 -0.16457071960E+03 -0.54178273290E+02  0.18992754524E+03  0.00000000000E+00 0. -1.
        -11    1    3    3    0    0  0.41408876446E+03 -0.86713707248E+03 -0.72096358501E+02  0.96363587118E+03  0.00000000000E+00 0.  1.
         22    1    1    2    0    0 -0.49189406887E+03  0.10317077921E+04  0.75173252205E+03  0.13680213916E+04  0.00000000000E+00 0. -1.
<mgrwt>
<rscale>  0 0.24427837E+04</rscale>
<asrwt>0</asrwt>
<pdfrwt beam="1">  1        1 0.24208021E+00 0.24427837E+04</pdfrwt>
<pdfrwt beam="2">  1       -1 0.14585592E+00 0.24427837E+04</pdfrwt>
<totfact> 0.19542437E+00</totfact>
</mgrwt>
</event>
<event>
 6    1  0.1072514E-005  0.2326482E+04  0.7818608E-02  0.8467552E-01
         -2   -1    0    0    0  501 -0.00000000000E+00  0.00000000000E+00  0.98941039437E+03  0.98941039437E+03  0.00000000000E+00 0.  1.
          2   -1    0    0  501    0  0.00000000000E+00 -0.00000000000E+00 -0.13676117254E+04  0.13676117254E+04  0.00000000000E+00 0. -1.
         23    2    1    2    0    0 -0.41237569652E+03 -0.66715248614E+03 -0.10573051253E+04  0.13195597744E+04  0.90541235817E+02 0.  0.
         11    1    3    3    0    0 -0.30019410401E+03 -0.44209605772E+03 -0.77654850810E+03  0.94265211492E+03  0.00000000000E+00 0. -1.
        -11    1    3    3    0    0 -0.11218159251E+03 -0.22505642842E+03 -0.28075661720E+03  0.37690765947E+03  0.00000000000E+00 0.  1.
         22    1    1    2    0    0  0.41237569652E+03  0.66715248614E+03  0.67910379422E+03  0.10374623454E+04  0.00000000000E+00 0.  1.
<mgrwt>
<rscale>  0 0.23264817E+04</rscale>
<asrwt>0</asrwt>
<pdfrwt beam="1">  1        2 0.21040180E+00 0.23264817E+04</pdfrwt>
<pdfrwt beam="2">  1       -2 0.15221698E+00 0.23264817E+04</pdfrwt>
<totfact> 0.39379092E+00</totfact>
</mgrwt>
</event>
<event>
 6    1  0.1072514E-005  0.1561886E+04  0.7818608E-02  0.8844311E-01
          2   -1    0    0  501    0  0.00000000000E+00  0.00000000000E+00  0.15490291302E+04  0.15490291302E+04  0.00000000000E+00 0. -1.
         -2   -1    0    0    0  501 -0.00000000000E+00 -0.00000000000E+00 -0.39371249509E+03  0.39371249509E+03  0.00000000000E+00 0.  1.
         23    2    1    2    0    0  0.72212728261E+03  0.47581751359E+02  0.93600104082E+03  0.11865464354E+04  0.89792313501E+02 0.  0.
         11    1    3    3    0    0  0.46374127292E+03  0.70265796750E+01  0.53823918176E+03  0.71049754244E+03  0.00000000000E+00 0. -1.
        -11    1    3    3    0    0  0.25838600969E+03  0.40555171684E+02  0.39776185906E+03  0.47604889295E+03  0.00000000000E+00 0.  1.
         22    1    1    2    0    0 -0.72212728261E+03 -0.47581751359E+02  0.21931559430E+03  0.75619518992E+03  0.00000000000E+00 0.  1.
<mgrwt>
<rscale>  0 0.15618862E+04</rscale>
<asrwt>0</asrwt>
<pdfrwt beam="1">  1        2 0.23831217E+00 0.15618862E+04</pdfrwt>
<pdfrwt beam="2">  1       -2 0.60571154E-01 0.15618862E+04</pdfrwt>
<totfact> 0.29074289E+01</totfact>
</mgrwt>
</event>
<event>
 6    1  0.1072514E-005  0.3855134E+04  0.7818608E-02  0.8034426E-01
          2   -1    0    0  501    0  0.00000000000E+00  0.00000000000E+00  0.32506143167E+04  0.32506143167E+04  0.00000000000E+00 0. -1.
         -2   -1    0    0    0  501 -0.00000000000E+00 -0.00000000000E+00 -0.11430193810E+04  0.11430193810E+04  0.00000000000E+00 0.  1.
         23    2    1    2    0    0 -0.98132588326E+03 -0.77717942311E+03  0.27233603819E+04  0.29985797813E+04  0.88207654273E+02 0.  0.
         13    1    3    3    0    0 -0.91317736436E+03 -0.70742706486E+03  0.24589325530E+04  0.27167435012E+04  0.00000000000E+00 0.  1.
        -13    1    3    3    0    0 -0.68148518900E+02 -0.69752358248E+02  0.26442782889E+03  0.28183628013E+03  0.00000000000E+00 0. -1.
         22    1    1    2    0    0  0.98132588326E+03  0.77717942311E+03 -0.61576544618E+03  0.13950539164E+04  0.00000000000E+00 0.  1.
<mgrwt>
<rscale>  0 0.38551343E+04</rscale>
<asrwt>0</asrwt>
<pdfrwt beam="1">  1        2 0.50009451E+00 0.38551343E+04</pdfrwt>
<pdfrwt beam="2">  1       -2 0.17584914E+00 0.38551343E+04</pdfrwt>
<totfact> 0.18560640E-01</totfact>
</mgrwt>
</event>
<event>
 6    1  0.1072514E-005  0.1934144E+04  0.7818608E-02  0.8638045E-01
         -2   -1    0    0    0  501 -0.00000000000E+00  0.00000000000E+00  0.88071174701E+03  0.88071174701E+03  0.00000000000E+00 0.  1.
          2   -1    0    0  501    0  0.00000000000E+00 -0.00000000000E+00 -0.10618999814E+04  0.10618999814E+04  0.00000000000E+00 0. -1.
         23    2    1    2    0    0  0.86668927709E+03 -0.37626092184E+03 -0.28731667824E+03  0.99183003373E+03  0.91942144280E+02 0.  0.
         11    1    3    3    0    0  0.81396538314E+03 -0.32873275646E+03 -0.25741012000E+03  0.91480317009E+03  0.00000000000E+00 0. -1.
        -11    1    3    3    0    0  0.52723893948E+02 -0.47528165382E+02 -0.29906558237E+02  0.77026863646E+02  0.00000000000E+00 0.  1.
         22    1    1    2    0    0 -0.86668927709E+03  0.37626092184E+03  0.10612844385E+03  0.95078169467E+03  0.00000000000E+00 0.  1.
<mgrwt>
<rscale>  0 0.19341435E+04</rscale>
<asrwt>0</asrwt>
<pdfrwt beam="1">  1        2 0.16336923E+00 0.19341435E+04</pdfrwt>
<pdfrwt beam="2">  1       -2 0.13549411E+00 0.19341435E+04</pdfrwt>
<totfact> 0.83995530E+00</totfact>
</mgrwt>
</event>
<event>
 6    1  0.1072514E-005  0.3859130E+04  0.7818608E-02  0.8033583E-01
         -2   -1    0    0    0  501 -0.00000000000E+00  0.00000000000E+00  0.19379611913E+04  0.19379611913E+04  0.00000000000E+00 0.  1.
          2   -1    0    0  501    0  0.00000000000E+00 -0.00000000000E+00 -0.19212051647E+04  0.19212051647E+04  0.00000000000E+00 0. -1.
         23    2    1    2    0    0  0.10119515912E+04  0.64838261329E+03  0.15164071204E+04  0.19373444498E+04  0.96782881905E+02 0.  0.
         13    1    3    3    0    0  0.18052936025E+03  0.73474250508E+02  0.24582905235E+03  0.31372159374E+03  0.00000000000E+00 0. -1.
        -13    1    3    3    0    0  0.83142223097E+03  0.57490836278E+03  0.12705780680E+04  0.16236228560E+04  0.00000000000E+00 0.  1.
         22    1    1    2    0    0 -0.10119515912E+04 -0.64838261329E+03 -0.14996510938E+04  0.19218219062E+04  0.00000000000E+00 0. -1.
<mgrwt>
<rscale>  0 0.38591300E+04</rscale>
<asrwt>0</asrwt>
<pdfrwt beam="1">  1        2 0.29557002E+00 0.38591300E+04</pdfrwt>
<pdfrwt beam="2">  1       -2 0.29814788E+00 0.38591300E+04</pdfrwt>
<totfact> 0.19238763E-01</totfact>
</mgrwt>
</event>
<event>
 6    1  0.1072514E-005  0.1575614E+04  0.7818608E-02  0.8835671E-01
          2   -1    0    0  501    0  0.00000000000E+00  0.00000000000E+00  0.58298154233E+03  0.58298154233E+03  0.00000000000E+00 0. -1.
         -2   -1    0    0    0  501 -0.00000000000E+00 -0.00000000000E+00 -0.10645957630E+04  0.10645957630E+04  0.00000000000E+00 0.  1.
         23    2    1    2    0    0  0.27172833054E+03  0.46532509914E+03 -0.83865114665E+03  0.10011725560E+04  0.92989287452E+02 0.  0.
         13    1    3    3    0    0  0.18959773969E+03  0.39353453396E+03 -0.64713982079E+03  0.78077312964E+03  0.00000000000E+00 0. -1.
        -13    1    3    3    0    0  0.82130590852E+02  0.71790565175E+02 -0.19151132586E+03  0.22039942635E+03  0.00000000000E+00 0.  1.
         22    1    1    2    0    0 -0.27172833054E+03 -0.46532509914E+03  0.35703692596E+03  0.64640474937E+03  0.00000000000E+00 0. -1.
<mgrwt>
<rscale>  0 0.15756138E+04</rscale>
<asrwt>0</asrwt>
<pdfrwt beam="1">  1        2 0.89689469E-01 0.15756138E+04</pdfrwt>
<pdfrwt beam="2">  1       -2 0.16378396E+00 0.15756138E+04</pdfrwt>
<totfact> 0.11646011E+01</totfact>
</mgrwt>
</event>
<event>
 6    1  0.1072514E-005  0.1381466E+04  0.7818608E-02  0.8967344E-01
         -1   -1    0    0    0  501 -0.00000000000E+00  0.00000000000E+00  0.31768153598E+03  0.31768153598E+03  0.00000000000E+00 0.  1.
          1   -1    0    0  501    0  0.00000000000E+00 -0.00000000000E+00 -0.15018572022E+04  0.15018572022E+04  0.00000000000E+00 0. -1.
         23    2    1    2    0    0 -0.43261573619E+03  0.21535908286E+03  0.50420497871E+02  0.49373196562E+03  0.87710418448E+02 0.  0.
         11    1    3    3    0    0 -0.28272350580E+03  0.17630377919E+03  0.59958261221E+02  0.33854186798E+03  0.00000000000E+00 0. -1.
        -11    1    3    3    0    0 -0.14989223039E+03  0.39055303665E+02 -0.95377633504E+01  0.15519009764E+03  0.00000000000E+00 0.  1.
         22    1    1    2    0    0  0.43261573619E+03 -0.21535908286E+03 -0.12345961641E+04  0.13258067725E+04  0.00000000000E+00 0. -1.
<mgrwt>
<rscale>  0 0.13814663E+04</rscale>
<asrwt>0</asrwt>
<pdfrwt beam="1">  1        1 0.23105496E+00 0.13814663E+04</pdfrwt>
<pdfrwt beam="2">  1       -1 0.48874082E-01 0.13814663E+04</pdfrwt>
<totfact> 0.26693371E+01</totfact>
</mgrwt>
</event>
<event>
 6    1  0.1513820E-005  0.3835650E+04  0.7818608E-02  0.8038547E-01
          2   -1    0    0  501    0  0.00000000000E+00  0.00000000000E+00  0.18739859856E+04  0.18739859856E+04  0.00000000000E+00 0. -1.
         -2   -1    0    0    0  501 -0.00000000000E+00 -0.00000000000E+00 -0.19626898956E+04  0.19626898956E+04  0.00000000000E+00 0.  1.
         23    2    1    2    0    0 -0.18401591668E+03  0.11318082629E+04 -0.15807000219E+04  0.19549468361E+04  0.91393496303E+02 0.  0.
         13    1    3    3    0    0 -0.59417105436E+02  0.49194795816E+03 -0.75196411277E+03  0.90055161587E+03  0.00000000000E+00 0.  1.
        -13    1    3    3    0    0 -0.12459881124E+03  0.63986030477E+03 -0.82873590910E+03  0.10543952202E+04  0.00000000000E+00 0. -1.
         22    1    1    2    0    0  0.18401591668E+03 -0.11318082629E+04  0.14919961119E+04  0.18817290452E+04  0.00000000000E+00 0. -1.
<mgrwt>
<rscale>  0 0.38356503E+04</rscale>
<asrwt>0</asrwt>
<pdfrwt beam="1">  1        2 0.28830554E+00 0.38356503E+04</pdfrwt>
<pdfrwt beam="2">  1       -2 0.30195229E+00 0.38356503E+04</pdfrwt>
<totfact> 0.19405587E-01</totfact>
</mgrwt>
</event>
<event>
 6    1  0.1072514E-005  0.1074334E+04  0.7818608E-02  0.9230575E-01
          1   -1    0    0  501    0  0.00000000000E+00  0.00000000000E+00  0.89538111189E+03  0.89538111189E+03  0.00000000000E+00 0. -1.
         -1   -1    0    0    0  501 -0.00000000000E+00 -0.00000000000E+00 -0.32226325387E+03  0.32226325387E+03  0.00000000000E+00 0.  1.
         23    2    1    2    0    0  0.15926002767E+03 -0.31020067540E+02  0.86429663312E+03  0.88431107899E+03  0.93120424150E+02 0.  0.
         11    1    3    3    0    0  0.65318824998E+02 -0.39363667780E+02  0.57486182923E+03  0.57989841348E+03  0.00000000000E+00 0. -1.
        -11    1    3    3    0    0  0.93941202669E+02  0.83436002397E+01  0.28943480389E+03  0.30441266552E+03  0.00000000000E+00 0.  1.
         22    1    1    2    0    0 -0.15926002767E+03  0.31020067540E+02 -0.29117877510E+03  0.33333328677E+03  0.00000000000E+00 0.  1.
<mgrwt>
<rscale>  0 0.10743341E+04</rscale>
<asrwt>0</asrwt>
<pdfrwt beam="1">  1        1 0.13775094E+00 0.10743341E+04</pdfrwt>
<pdfrwt beam="2">  1       -1 0.49578963E-01 0.10743341E+04</pdfrwt>
<totfact> 0.74709163E+01</totfact>
</mgrwt>
</event>
<event>
 6    1  0.1072514E-005  0.3832932E+03  0.7818608E-02  0.1049723E+00
          1   -1    0    0  501    0  0.00000000000E+00  0.00000000000E+00  0.13859996493E+03  0.13859996493E+03  0.00000000000E+00 0. -1.
         -1   -1    0    0    0  501 -0.00000000000E+00 -0.00000000000E+00 -0.26499588609E+03  0.26499588609E+03  0.00000000000E+00 0.  1.
         23    2    1    2    0    0  0.12766849650E+03  0.81350434287E+02 -0.16999928781E+03  0.24605731053E+03  0.93420040954E+02 0.  0.
         11    1    3    3    0    0  0.69590313503E+02  0.25015136298E+02 -0.21610725720E+02  0.77042794885E+02  0.00000000000E+00 0. -1.
        -11    1    3    3    0    0  0.58078183000E+02  0.56335297989E+02 -0.14838856209E+03  0.16901451565E+03  0.00000000000E+00 0.  1.
         22    1    1    2    0    0 -0.12766849650E+03 -0.81350434287E+02  0.43603366651E+02  0.15753854049E+03  0.00000000000E+00 0. -1.
<mgrwt>
<rscale>  0 0.38329321E+03</rscale>
<asrwt>0</asrwt>
<pdfrwt beam="1">  1        1 0.21323072E-01 0.38329321E+03</pdfrwt>
<pdfrwt beam="2">  1       -1 0.40768597E-01 0.38329321E+03</pdfrwt>
<totfact> 0.14084694E+03</totfact>
</mgrwt>
</event>
<event>
 6    1  0.1072514E-005  0.5510502E+04  0.7818608E-02  0.7754246E-01
         -2   -1    0    0    0  501 -0.00000000000E+00  0.00000000000E+00  0.19844580176E+04  0.19844580176E+04  0.00000000000E+00 0.  1.
          2   -1    0    0  501    0  0.00000000000E+00 -0.00000000000E+00 -0.38254315370E+04  0.38254315370E+04  0.00000000000E+00 0. -1.
         23    2    1    2    0    0  0.11394178128E+04 -0.18304809652E+03 -0.35576572785E+04  0.37413676944E+04  0.95537196057E+02 0.  0.
         11    1    3    3    0    0  0.61008491859E+03 -0.11965714081E+03 -0.20520729983E+04  0.21441840009E+04  0.00000000000E+00 0.  1.
        -11    1    3    3    0    0  0.52933289421E+03 -0.63390955718E+02 -0.15055842802E+04  0.15971836935E+04  0.00000000000E+00 0. -1.
         22    1    1    2    0    0 -0.11394178128E+04  0.18304809652E+03  0.17166837591E+04  0.20685218603E+04  0.00000000000E+00 0.  1.
<mgrwt>
<rscale>  0 0.55105021E+04</rscale>
<asrwt>0</asrwt>
<pdfrwt beam="1">  1        2 0.58852792E+00 0.55105021E+04</pdfrwt>
<pdfrwt beam="2">  1       -2 0.30530124E+00 0.55105021E+04</pdfrwt>
<totfact> 0.96473719E-03</totfact>
</mgrwt>
</event>
<event>
 6    1  0.1072514E-005  0.1717666E+04  0.7818608E-02  0.8751352E-01
         -1   -1    0    0    0  501 -0.00000000000E+00  0.00000000000E+00  0.46818245334E+03  0.46818245334E+03  0.00000000000E+00 0.  1.
          1   -1    0    0  501    0  0.00000000000E+00 -0.00000000000E+00 -0.15754422600E+04  0.15754422600E+04  0.00000000000E+00 0. -1.
         23    2    1    2    0    0 -0.45742448815E+03 -0.29513875119E+03 -0.13417309685E+04  0.14509015313E+04  0.92353758569E+02 0.  0.
         11    1    3    3    0    0 -0.30931449179E+03 -0.24169631124E+03 -0.10132592751E+04  0.10866401982E+04  0.00000000000E+00 0. -1.
        -11    1    3    3    0    0 -0.14810999636E+03 -0.53442439948E+02 -0.32847169341E+03  0.36426133309E+03  0.00000000000E+00 0.  1.
         22    1    1    2    0    0  0.45742448815E+03  0.29513875119E+03  0.23447116186E+03  0.59272318207E+03  0.00000000000E+00 0.  1.
<mgrwt>
<rscale>  0 0.17176663E+04</rscale>
<asrwt>0</asrwt>
<pdfrwt beam="1">  1        1 0.24237573E+00 0.17176663E+04</pdfrwt>
<pdfrwt beam="2">  1       -1 0.72028070E-01 0.17176663E+04</pdfrwt>
<totfact> 0.10721819E+01</totfact>
</mgrwt>
</event>
<event>
 6    1  0.1072514E-005  0.2599309E+04  0.7818608E-02  0.8368436E-01
          2   -1    0    0  501    0  0.00000000000E+00  0.00000000000E+00  0.20515047239E+04  0.20515047239E+04  0.00000000000E+00 0. -1.
         -2   -1    0    0    0  501 -0.00000000000E+00 -0.00000000000E+00 -0.82334759513E+03  0.82334759513E+03  0.00000000000E+00 0.  1.
         23    2    1    2    0    0 -0.36343529817E+03  0.77821353252E+03 -0.46161066001E+03  0.97932687785E+03  0.91078065953E+02 0.  0.
         13    1    3    3    0    0 -0.56086518690E+02  0.11291898639E+03 -0.32972296068E+02  0.13032101662E+03  0.00000000000E+00 0. -1.
        -13    1    3    3    0    0 -0.30734877948E+03  0.66529454613E+03 -0.42863836394E+03  0.84900586123E+03  0.00000000000E+00 0.  1.
         22    1    1    2    0    0  0.36343529817E+03 -0.77821353252E+03  0.16897677888E+04  0.18955254412E+04  0.00000000000E+00 0. -1.
<mgrwt>
<rscale>  0 0.25993087E+04</rscale>
<asrwt>0</asrwt>
<pdfrwt beam="1">  1        2 0.31561611E+00 0.25993087E+04</pdfrwt>
<pdfrwt beam="2">  1       -2 0.12666886E+00 0.25993087E+04</pdfrwt>
<totfact> 0.25655992E+00</totfact>
</mgrwt>
</event>
<event>
 6    1  0.1072514E-005  0.1981842E+04  0.7818608E-02  0.8615158E-01
          2   -1    0    0  501    0  0.00000000000E+00  0.00000000000E+00  0.88960522627E+03  0.88960522627E+03  0.00000000000E+00 0. -1.
         -2   -1    0    0    0  501 -0.00000000000E+00 -0.00000000000E+00 -0.11037752875E+04  0.11037752875E+04  0.00000000000E+00 0.  1.
         23    2    1    2    0    0 -0.28919347058E+03 -0.41788707035E+03 -0.96049536355E+03  0.10904608474E+04  0.91055199837E+02 0.  0.
         11    1    3    3    0    0 -0.27688063086E+03 -0.36924173605E+03 -0.90330130533E+03  0.10143744829E+04  0.00000000000E+00 0.  1.
        -11    1    3    3    0    0 -0.12312839725E+02 -0.48645334302E+02 -0.57194058223E+02  0.76086364530E+02  0.00000000000E+00 0. -1.
         22    1    1    2    0    0  0.28919347058E+03  0.41788707035E+03  0.74632530230E+03  0.90291966633E+03  0.00000000000E+00 0. -1.
<mgrwt>
<rscale>  0 0.19818418E+04</rscale>
<asrwt>0</asrwt>
<pdfrwt beam="1">  1        2 0.13686234E+00 0.19818418E+04</pdfrwt>
<pdfrwt beam="2">  1       -2 0.16981158E+00 0.19818418E+04</pdfrwt>
<totfact> 0.59262243E+00</totfact>
</mgrwt>
</event>
<event>
 6    1  0.1072514E-005  0.1582960E+04  0.7818608E-02  0.8831085E-01
         -1   -1    0    0    0  501 -0.00000000000E+00  0.00000000000E+00  0.53219965422E+03  0.53219965422E+03  0.00000000000E+00 0.  1.
          1   -1    0    0  501    0  0.00000000000E+00 -0.00000000000E+00 -0.11770787330E+04  0.11770787330E+04  0.00000000000E+00 0. -1.
         23    2    1    2    0    0 -0.82774771744E+02 -0.27335632413E+03 -0.11174160959E+04  0.11571311466E+04  0.93586410452E+02 0.  0.
         11    1    3    3    0    0 -0.36296075487E+02 -0.16848585986E+03 -0.49280515176E+03  0.52207452309E+03  0.00000000000E+00 0. -1.
        -11    1    3    3    0    0 -0.46478696257E+02 -0.10487046428E+03 -0.62461094418E+03  0.63505662351E+03  0.00000000000E+00 0.  1.
         22    1    1    2    0    0  0.82774771744E+02  0.27335632413E+03  0.47253701713E+03  0.55214724063E+03  0.00000000000E+00 0.  1.
<mgrwt>
<rscale>  0 0.15829604E+04</rscale>
<asrwt>0</asrwt>
<pdfrwt beam="1">  1        1 0.18108903E+00 0.15829604E+04</pdfrwt>
<pdfrwt beam="2">  1       -1 0.81876871E-01 0.15829604E+04</pdfrwt>
<totfact> 0.15844996E+01</totfact>
</mgrwt>
</event>
<event>
 6    1  0.1072514E-005  0.2715802E+04  0.7818608E-02  0.8329896E-01
          2   -1    0    0  501    0  0.00000000000E+00  0.00000000000E+00  0.74583240301E+03  0.74583240301E+03  0.00000000000E+00 0. -1.
         -2   -1    0    0    0  501 -0.00000000000E+00 -0.00000000000E+00 -0.24722638092E+04  0.24722638092E+04  0.00000000000E+00 0.  1.
         23    2    1    2    0    0  0.84482230215E+03 -0.80113224977E+03 -0.16887099482E+04  0.20532097318E+04  0.91604093247E+02 0.  0.
         11    1    3    3    0    0  0.12767282760E+03 -0.13324299840E+03 -0.21403880017E+03  0.28260689218E+03  0.00000000000E+00 0. -1.
        -11    1    3    3    0    0  0.71714947455E+03 -0.66788925138E+03 -0.14746711480E+04  0.17706028396E+04  0.00000000000E+00 0.  1.
         22    1    1    2    0    0 -0.84482230215E+03  0.80113224977E+03 -0.37721458031E+02  0.11648864804E+04  0.00000000000E+00 0.  1.
<mgrwt>
<rscale>  0 0.27158015E+04</rscale>
<asrwt>0</asrwt>
<pdfrwt beam="1">  1        2 0.11474345E+00 0.27158015E+04</pdfrwt>
<pdfrwt beam="2">  1       -2 0.38034828E+00 0.27158015E+04</pdfrwt>
<totfact> 0.32961488E-01</totfact>
</mgrwt>
</event>
<event>
 6    1  0.1072514E-005  0.1903155E+04  0.7818608E-02  0.8653287E-01
         -2   -1    0    0    0  501 -0.00000000000E+00  0.00000000000E+00  0.30322768256E+03  0.30322768256E+03  0.00000000000E+00 0.  1.
          2   -1    0    0  501    0  0.00000000000E+00 -0.00000000000E+00 -0.29862054937E+04  0.29862054937E+04  0.00000000000E+00 0. -1.
         23    2    1    2    0    0  0.19746540731E+03  0.73646052760E+03 -0.23221668775E+04  0.24458982181E+04  0.92695148453E+02 0.  0.
         13    1    3    3    0    0  0.14715045642E+03  0.64559373408E+03 -0.20643565790E+04  0.21679512475E+04  0.00000000000E+00 0. -1.
        -13    1    3    3    0    0  0.50314950893E+02  0.90866793528E+02 -0.25781029845E+03  0.27794697055E+03  0.00000000000E+00 0.  1.
         22    1    1    2    0    0 -0.19746540731E+03 -0.73646052760E+03 -0.36081093365E+03  0.84353495816E+03  0.00000000000E+00 0.  1.
<mgrwt>
<rscale>  0 0.19031555E+04</rscale>
<asrwt>0</asrwt>
<pdfrwt beam="1">  1        2 0.45941624E+00 0.19031555E+04</pdfrwt>
<pdfrwt beam="2">  1       -2 0.46650412E-01 0.19031555E+04</pdfrwt>
<totfact> 0.72660327E+00</totfact>
</mgrwt>
</event>
<event>
 6    1  0.1072514E-005  0.7781628E+03  0.7818608E-02  0.9592175E-01
         -3   -1    0    0    0  501 -0.00000000000E+00  0.00000000000E+00  0.25699814222E+03  0.25699814222E+03  0.00000000000E+00 0.  1.
          3   -1    0    0  501    0  0.00000000000E+00 -0.00000000000E+00 -0.58904830368E+03  0.58904830368E+03  0.00000000000E+00 0. -1.
         23    2    1    2    0    0 -0.27052046938E+03  0.18856091740E+01 -0.46419705991E+03  0.54496890996E+03  0.91254164387E+02 0.  0.
         11    1    3    3    0    0 -0.61263352885E+02 -0.21536562245E+02 -0.56370519374E+02  0.85992193684E+02  0.00000000000E+00 0.  1.
        -11    1    3    3    0    0 -0.20925711650E+03  0.23422171420E+02 -0.40782654053E+03  0.45897671628E+03  0.00000000000E+00 0. -1.
         22    1    1    2    0    0  0.27052046938E+03 -0.18856091740E+01  0.13214689844E+03  0.30107753594E+03  0.00000000000E+00 0.  1.
<mgrwt>
<rscale>  0 0.77816276E+03</rscale>
<asrwt>0</asrwt>
<pdfrwt beam="1">  1        3 0.90622815E-01 0.77816276E+03</pdfrwt>
<pdfrwt beam="2">  1       -3 0.39538176E-01 0.77816276E+03</pdfrwt>
<totfact> 0.18408476E+01</totfact>
</mgrwt>
</event>
<event>
 6    1  0.1072514E-005  0.1325766E+04  0.7818608E-02  0.9009378E-01
          2   -1    0    0  501    0  0.00000000000E+00  0.00000000000E+00  0.13873328412E+04  0.13873328412E+04  0.00000000000E+00 0. -1.
         -2   -1    0    0    0  501 -0.00000000000E+00 -0.00000000000E+00 -0.31673278710E+03  0.31673278710E+03  0.00000000000E+00 0.  1.
         23    2    1    2    0    0 -0.53882230269E+03 -0.24728544030E+03  0.16565661661E+03  0.62221435019E+03  0.90713946530E+02 0.  0.
         13    1    3    3    0    0 -0.26604991196E+03 -0.16167067690E+03  0.11492710428E+03  0.33185569563E+03  0.00000000000E+00 0. -1.
        -13    1    3    3    0    0 -0.27277239074E+03 -0.85614763402E+02  0.50729512327E+02  0.29035865457E+03  0.00000000000E+00 0.  1.
         22    1    1    2    0    0  0.53882230269E+03  0.24728544030E+03  0.90494343744E+03  0.10818512781E+04  0.00000000000E+00 0. -1.
<mgrwt>
<rscale>  0 0.13257659E+04</rscale>
<asrwt>0</asrwt>
<pdfrwt beam="1">  1        2 0.21343582E+00 0.13257659E+04</pdfrwt>
<pdfrwt beam="2">  1       -2 0.48728122E-01 0.13257659E+04</pdfrwt>
<totfact> 0.57404416E+01</totfact>
</mgrwt>
</event>
<event>
 6    1  0.1072514E-005  0.2435296E+04  0.7818608E-02  0.8426406E-01
         -2   -1    0    0    0  501 -0.00000000000E+00  0.00000000000E+00  0.53462735466E+03  0.53462735466E+03  0.00000000000E+00 0.  1.
          2   -1    0    0  501    0  0.00000000000E+00 -0.00000000000E+00 -0.27732710710E+04  0.27732710710E+04  0.00000000000E+00 0. -1.
         23    2    1    2    0    0  0.53571254553E+03  0.10753688494E+04 -0.13754626886E+04  0.18285446545E+04  0.90949721397E+02 0.  0.
         13    1    3    3    0    0  0.42032590152E+03  0.81285996820E+03 -0.11005455454E+04  0.14312986023E+04  0.00000000000E+00 0. -1.
        -13    1    3    3    0    0  0.11538664401E+03  0.26250888122E+03 -0.27491714323E+03  0.39724605219E+03  0.00000000000E+00 0.  1.
         22    1    1    2    0    0 -0.53571254553E+03 -0.10753688494E+04 -0.86318102770E+03  0.14793537712E+04  0.00000000000E+00 0.  1.
<mgrwt>
<rscale>  0 0.24352959E+04</rscale>
<asrwt>0</asrwt>
<pdfrwt beam="1">  1        2 0.42665707E+00 0.24352959E+04</pdfrwt>
<pdfrwt beam="2">  1       -2 0.82250365E-01 0.24352959E+04</pdfrwt>
<totfact> 0.27941343E+00</totfact>
</mgrwt>
</event>
<event>
 6    1  0.1072514E-005  0.1962950E+04  0.7818608E-02  0.8624141E-01
          1   -1    0    0  501    0  0.00000000000E+00  0.00000000000E+00  0.20495136837E+04  0.20495136837E+04  0.00000000000E+00 0. -1.
         -1   -1    0    0    0  501 -0.00000000000E+00 -0.00000000000E+00 -0.47001065367E+03  0.47001065367E+03  0.00000000000E+00 0.  1.
         23    2    1    2    0    0  0.32995511250E+03  0.54899370154E+03 -0.15954394486E+03  0.66627075477E+03  0.90542739727E+02 0.  0.
         13    1    3    3    0    0  0.18967962772E+03  0.32661303881E+03 -0.48273726866E+02  0.38076868437E+03  0.00000000000E+00 0.  1.
        -13    1    3    3    0    0  0.14027548478E+03  0.22238066273E+03 -0.11127021799E+03  0.28550207039E+03  0.00000000000E+00 0. -1.
         22    1    1    2    0    0 -0.32995511250E+03 -0.54899370154E+03  0.17390469749E+04  0.18532535826E+04  0.00000000000E+00 0. -1.
<mgrwt>
<rscale>  0 0.19629501E+04</rscale>
<asrwt>0</asrwt>
<pdfrwt beam="1">  1        1 0.31530979E+00 0.19629501E+04</pdfrwt>
<pdfrwt beam="2">  1       -1 0.72309332E-01 0.19629501E+04</pdfrwt>
<totfact> 0.49519259E+00</totfact>
</mgrwt>
</event>
<event>
 6    1  0.1072514E-005  0.4054270E+04  0.7818608E-02  0.7993687E-01
         -2   -1    0    0    0  501 -0.00000000000E+00  0.00000000000E+00  0.96109707320E+03  0.96109707320E+03  0.00000000000E+00 0.  1.
          2   -1    0    0  501    0  0.00000000000E+00 -0.00000000000E+00 -0.42756108941E+04  0.42756108941E+04  0.00000000000E+00 0. -1.
         23    2    1    2    0    0 -0.61992719915E+03 -0.17681298560E+04 -0.26539955360E+04  0.32500330254E+04  0.91811988104E+02 0.  0.
         13    1    3    3    0    0 -0.39728472208E+03 -0.10081061219E+04 -0.15010288932E+04  0.18512700617E+04  0.00000000000E+00 0. -1.
        -13    1    3    3    0    0 -0.22264247706E+03 -0.76002373410E+03 -0.11529666429E+04  0.13987629637E+04  0.00000000000E+00 0.  1.
         22    1    1    2    0    0  0.61992719915E+03  0.17681298560E+04 -0.66051828484E+03  0.19866749418E+04  0.00000000000E+00 0.  1.
<mgrwt>
<rscale>  0 0.40542704E+04</rscale>
<asrwt>0</asrwt>
<pdfrwt beam="1">  1        2 0.65778630E+00 0.40542704E+04</pdfrwt>
<pdfrwt beam="2">  1       -2 0.14786109E+00 0.40542704E+04</pdfrwt>
<totfact> 0.48497711E-02</totfact>
</mgrwt>
</event>
<event>
 6    1  0.1072514E-005  0.9423477E+03  0.7818608E-02  0.9374140E-01
         -1   -1    0    0    0  501 -0.00000000000E+00  0.00000000000E+00  0.79711639265E+03  0.79711639265E+03  0.00000000000E+00 0.  1.
          1   -1    0    0  501    0  0.00000000000E+00 -0.00000000000E+00 -0.27850989123E+03  0.27850989123E+03  0.00000000000E+00 0. -1.
         23    2    1    2    0    0  0.35483688769E+03 -0.69377844709E+02  0.59840891249E+03  0.70536836430E+03  0.93428050396E+02 0.  0.
         13    1    3    3    0    0  0.20236865430E+03 -0.26187337538E+02  0.25067643244E+03  0.32322982949E+03  0.00000000000E+00 0.  1.
        -13    1    3    3    0    0  0.15246823339E+03 -0.43190507171E+02  0.34773248005E+03  0.38213853481E+03  0.00000000000E+00 0. -1.
         22    1    1    2    0    0 -0.35483688769E+03  0.69377844709E+02 -0.79802411069E+02  0.37025791959E+03  0.00000000000E+00 0. -1.
<mgrwt>
<rscale>  0 0.94234771E+03</rscale>
<asrwt>0</asrwt>
<pdfrwt beam="1">  1        1 0.42847676E-01 0.94234771E+03</pdfrwt>
<pdfrwt beam="2">  1       -1 0.12263329E+00 0.94234771E+03</pdfrwt>
<totfact> 0.57046751E+01</totfact>
</mgrwt>
</event>
<event>
 6    1  0.1072514E-005  0.4685427E+04  0.7818608E-02  0.7878954E-01
         -2   -1    0    0    0  501 -0.00000000000E+00  0.00000000000E+00  0.23230635574E+04  0.23230635574E+04  0.00000000000E+00 0.  1.
          2   -1    0    0  501    0  0.00000000000E+00 -0.00000000000E+00 -0.23625297969E+04  0.23625297969E+04  0.00000000000E+00 0. -1.
         23    2    1    2    0    0  0.82925411757E+03  0.87539621869E+03 -0.20273464454E+04  0.23605882694E+04  0.90897947722E+02 0.  0.
         13    1    3    3    0    0  0.24025814186E+03  0.26131467795E+03 -0.51886183305E+03  0.62867077031E+03  0.00000000000E+00 0.  1.
        -13    1    3    3    0    0  0.58899597571E+03  0.61408154075E+03 -0.15084846123E+04  0.17319174991E+04  0.00000000000E+00 0. -1.
         22    1    1    2    0    0 -0.82925411757E+03 -0.87539621869E+03  0.19878802059E+04  0.23250050848E+04  0.00000000000E+00 0.  1.
<mgrwt>
<rscale>  0 0.46854271E+04</rscale>
<asrwt>0</asrwt>
<pdfrwt beam="1">  1        2 0.36346612E+00 0.46854271E+04</pdfrwt>
<pdfrwt beam="2">  1       -2 0.35739440E+00 0.46854271E+04</pdfrwt>
<totfact> 0.43557022E-02</totfact>
</mgrwt>
</event>
<event>
 6    1  0.1072514E-005  0.6245905E+04  0.7818608E-02  0.7660638E-01
         -2   -1    0    0    0  501 -0.00000000000E+00  0.00000000000E+00  0.28581678635E+04  0.28581678635E+04  0.00000000000E+00 0.  1.
          2   -1    0    0  501    0  0.00000000000E+00 -0.00000000000E+00 -0.34122668381E+04  0.34122668381E+04  0.00000000000E+00 0. -1.
         23    2    1    2    0    0 -0.25824777231E+04 -0.14135502733E+04  0.76695736256E+03  0.30435933030E+04  0.89000181570E+02 0.  0.
         13    1    3    3    0    0 -0.10244213497E+04 -0.60076243912E+03  0.28250696630E+03  0.12207230628E+04  0.00000000000E+00 0. -1.
        -13    1    3    3    0    0 -0.15580563734E+04 -0.81278783417E+03  0.48445039627E+03  0.18228702402E+04  0.00000000000E+00 0.  1.
         22    1    1    2    0    0  0.25824777231E+04  0.14135502733E+04 -0.13210563372E+04  0.32268413986E+04  0.00000000000E+00 0. -1.
<mgrwt>
<rscale>  0 0.62459047E+04</rscale>
<asrwt>0</asrwt>
<pdfrwt beam="1">  1        2 0.52496413E+00 0.62459047E+04</pdfrwt>
<pdfrwt beam="2">  1       -2 0.43971814E+00 0.62459047E+04</pdfrwt>
<totfact> 0.25134844E-03</totfact>
</mgrwt>
</event>
<event>
 6    1  0.1072514E-005  0.4026051E+04  0.7818608E-02  0.7999312E-01
          1   -1    0    0  501    0  0.00000000000E+00  0.00000000000E+00  0.39724781072E+04  0.39724781072E+04  0.00000000000E+00 0. -1.
         -1   -1    0    0    0  501 -0.00000000000E+00 -0.00000000000E+00 -0.10200867186E+04  0.10200867186E+04  0.00000000000E+00 0.  1.
         23    2    1    2    0    0 -0.69090447653E+03 -0.15217645616E+04  0.28662241363E+04  0.33190830744E+04  0.89192368270E+02 0.  0.
         11    1    3    3    0    0 -0.35247598811E+03 -0.76655667381E+03  0.13588421339E+04  0.15994687872E+04  0.00000000000E+00 0. -1.
        -11    1    3    3    0    0 -0.33842848843E+03 -0.75520788782E+03  0.15073820024E+04  0.17196142872E+04  0.00000000000E+00 0.  1.
         22    1    1    2    0    0  0.69090447653E+03  0.15217645616E+04  0.86167252262E+02  0.16734817514E+04  0.00000000000E+00 0.  1.
<mgrwt>
<rscale>  0 0.40260512E+04</rscale>
<asrwt>0</asrwt>
<pdfrwt beam="1">  1        1 0.61115047E+00 0.40260512E+04</pdfrwt>
<pdfrwt beam="2">  1       -1 0.15693642E+00 0.40260512E+04</pdfrwt>
<totfact> 0.24352892E-02</totfact>
</mgrwt>
</event>
<event>
 6    1  0.1072514E-005  0.3575623E+04  0.7818608E-02  0.8096098E-01
         -1   -1    0    0    0  501 -0.00000000000E+00  0.00000000000E+00  0.21413140830E+04  0.21413140830E+04  0.00000000000E+00 0.  1.
          1   -1    0    0  501    0  0.00000000000E+00 -0.00000000000E+00 -0.14926678707E+04  0.14926678707E+04  0.00000000000E+00 0. -1.
         23    2    1    2    0    0 -0.67215718004E+03 -0.17871589108E+03  0.19970974135E+04  0.21167294084E+04  0.91709678998E+02 0.  0.
         11    1    3    3    0    0 -0.27205162941E+03 -0.31320822736E+02  0.71919019868E+03  0.76956326892E+03  0.00000000000E+00 0. -1.
        -11    1    3    3    0    0 -0.40010555062E+03 -0.14739506834E+03  0.12779072148E+04  0.13471661395E+04  0.00000000000E+00 0.  1.
         22    1    1    2    0    0  0.67215718004E+03  0.17871589108E+03 -0.13484512011E+04  0.15172525453E+04  0.00000000000E+00 0. -1.
<mgrwt>
<rscale>  0 0.35756234E+04</rscale>
<asrwt>0</asrwt>
<pdfrwt beam="1">  1        1 0.22964121E+00 0.35756234E+04</pdfrwt>
<pdfrwt beam="2">  1       -1 0.32943294E+00 0.35756234E+04</pdfrwt>
<totfact> 0.11389604E-01</totfact>
</mgrwt>
</event>
<event>
 6    1  0.1072514E-005  0.2371876E+04  0.7818608E-02  0.8450108E-01
         -1   -1    0    0    0  501 -0.00000000000E+00  0.00000000000E+00  0.47299076401E+03  0.47299076401E+03  0.00000000000E+00 0.  1.
          1   -1    0    0  501    0  0.00000000000E+00 -0.00000000000E+00 -0.29735237963E+04  0.29735237963E+04  0.00000000000E+00 0. -1.
         23    2    1    2    0    0 -0.89725357775E+03  0.71900649775E+03 -0.84144783072E+03  0.14279512017E+04  0.94740994488E+02 0.  0.
         13    1    3    3    0    0 -0.63717960736E+03  0.55125079038E+03 -0.64888246469E+03  0.10634489827E+04  0.00000000000E+00 0.  1.
        -13    1    3    3    0    0 -0.26007397039E+03  0.16775570738E+03 -0.19256536603E+03  0.36450221896E+03  0.00000000000E+00 0. -1.
         22    1    1    2    0    0  0.89725357775E+03 -0.71900649775E+03 -0.16590852015E+04  0.20185633586E+04  0.00000000000E+00 0. -1.
<mgrwt>
<rscale>  0 0.23718763E+04</rscale>
<asrwt>0</asrwt>
<pdfrwt beam="1">  1        1 0.45746520E+00 0.23718763E+04</pdfrwt>
<pdfrwt beam="2">  1       -1 0.72767809E-01 0.23718763E+04</pdfrwt>
<totfact> 0.10692784E+00</totfact>
</mgrwt>
</event>
<event>
 6    1  0.1072514E-005  0.4348410E+04  0.7818608E-02  0.7937727E-01
         -2   -1    0    0    0  501 -0.00000000000E+00  0.00000000000E+00  0.18021534067E+04  0.18021534067E+04  0.00000000000E+00 0.  1.
          2   -1    0    0  501    0  0.00000000000E+00 -0.00000000000E+00 -0.26230656085E+04  0.26230656085E+04  0.00000000000E+00 0. -1.
         23    2    1    2    0    0 -0.14318814509E+03 -0.74139417063E+03  0.16630423668E+04  0.18290297963E+04  0.97323792521E+02 0.  0.
         11    1    3    3    0    0 -0.10970898107E+03 -0.37544270075E+03  0.78010910574E+03  0.87267605613E+03  0.00000000000E+00 0.  1.
        -11    1    3    3    0    0 -0.33479164022E+02 -0.36595146989E+03  0.88293326108E+03  0.95635374013E+03  0.00000000000E+00 0. -1.
         22    1    1    2    0    0  0.14318814509E+03  0.74139417063E+03 -0.24839545687E+04  0.25961892189E+04  0.00000000000E+00 0. -1.
<mgrwt>
<rscale>  0 0.43484097E+04</rscale>
<asrwt>0</asrwt>
<pdfrwt beam="1">  1        2 0.40354855E+00 0.43484097E+04</pdfrwt>
<pdfrwt beam="2">  1       -2 0.27725437E+00 0.43484097E+04</pdfrwt>
<totfact> 0.99016463E-02</totfact>
</mgrwt>
</event>
<event>
 6    1  0.1072514E-005  0.1658903E+04  0.7818608E-02  0.8785157E-01
          2   -1    0    0  501    0  0.00000000000E+00  0.00000000000E+00  0.24265028248E+04  0.24265028248E+04  0.00000000000E+00 0. -1.
         -2   -1    0    0    0  501 -0.00000000000E+00 -0.00000000000E+00 -0.28353139530E+03  0.28353139530E+03  0.00000000000E+00 0.  1.
         23    2    1    2    0    0 -0.53185856307E+03 -0.24214499973E+03  0.11945026716E+03  0.60381827048E+03  0.93917013582E+02 0.  0.
         13    1    3    3    0    0 -0.14297740005E+03 -0.81527384027E+02 -0.62211619081E+01  0.16470565906E+03  0.00000000000E+00 0. -1.
        -13    1    3    3    0    0 -0.38888116302E+03 -0.16061761570E+03  0.12567142907E+03  0.43911261142E+03  0.00000000000E+00 0.  1.
         22    1    1    2    0    0  0.53185856307E+03  0.24214499973E+03  0.20235211623E+04  0.21062159496E+04  0.00000000000E+00 0. -1.
<mgrwt>
<rscale>  0 0.16589029E+04</rscale>
<asrwt>0</asrwt>
<pdfrwt beam="1">  1        2 0.37330811E+00 0.16589029E+04</pdfrwt>
<pdfrwt beam="2">  1       -2 0.43620216E-01 0.16589029E+04</pdfrwt>
<totfact> 0.18288818E+01</totfact>
</mgrwt>
</event>
<event>
 6    1  0.1072514E-005  0.1943881E+04  0.7818608E-02  0.8633317E-01
         -2   -1    0    0    0  501 -0.00000000000E+00  0.00000000000E+00  0.79267782690E+03  0.79267782690E+03  0.00000000000E+00 0.  1.
          2   -1    0    0  501    0  0.00000000000E+00 -0.00000000000E+00 -0.11917433522E+04  0.11917433522E+04  0.00000000000E+00 0. -1.
         23    2    1    2    0    0 -0.74872235965E+03  0.47166229800E+03  0.20565630431E+03  0.91262876151E+03  0.86869129314E+02 0.  0.
         13    1    3    3    0    0 -0.53711387144E+03  0.33732467827E+03  0.10677014191E+03  0.64317891186E+03  0.00000000000E+00 0. -1.
        -13    1    3    3    0    0 -0.21160848822E+03  0.13433761973E+03  0.98886162397E+02  0.26944984964E+03  0.00000000000E+00 0.  1.
         22    1    1    2    0    0  0.74872235965E+03 -0.47166229800E+03 -0.60472182959E+03  0.10717924176E+04  0.00000000000E+00 0. -1.
<mgrwt>
<rscale>  0 0.19438812E+04</rscale>
<asrwt>0</asrwt>
<pdfrwt beam="1">  1        2 0.18334513E+00 0.19438812E+04</pdfrwt>
<pdfrwt beam="2">  1       -2 0.12195044E+00 0.19438812E+04</pdfrwt>
<totfact> 0.91214453E+00</totfact>
</mgrwt>
</event>
<event>
 6    1  0.1072514E-005  0.2690447E+04  0.7818608E-02  0.8338111E-01
         -2   -1    0    0    0  501 -0.00000000000E+00  0.00000000000E+00  0.67046274587E+03  0.67046274587E+03  0.00000000000E+00 0.  1.
          2   -1    0    0  501    0  0.00000000000E+00 -0.00000000000E+00 -0.26990713906E+04  0.26990713906E+04  0.00000000000E+00 0. -1.
         23    2    1    2    0    0 -0.12966264343E+04 -0.17849771685E+03 -0.63460749128E+03  0.14573780861E+04  0.90125871548E+02 0.  0.
         13    1    3    3    0    0 -0.50426370603E+03 -0.10970567559E+03 -0.27043130733E+03  0.58262364565E+03  0.00000000000E+00 0.  1.
        -13    1    3    3    0    0 -0.79236272830E+03 -0.68792041257E+02 -0.36417618395E+03  0.87475444046E+03  0.00000000000E+00 0. -1.
         22    1    1    2    0    0  0.12966264343E+04  0.17849771685E+03 -0.13940011534E+04  0.19121560503E+04  0.00000000000E+00 0. -1.
<mgrwt>
<rscale>  0 0.26904474E+04</rscale>
<asrwt>0</asrwt>
<pdfrwt beam="1">  1        2 0.41524175E+00 0.26904474E+04</pdfrwt>
<pdfrwt beam="2">  1       -2 0.10314811E+00 0.26904474E+04</pdfrwt>
<totfact> 0.17903077E+00</totfact>
</mgrwt>
</event>
<event>
 6    1  0.1072514E-005  0.3001284E+04  0.7818608E-02  0.8243364E-01
          2   -1    0    0  501    0  0.00000000000E+00  0.00000000000E+00  0.14423053618E+04  0.14423053618E+04  0.00000000000E+00 0. -1.
         -2   -1    0    0    0  501 -0.00000000000E+00 -0.00000000000E+00 -0.15613381737E+04  0.15613381737E+04  0.00000000000E+00 0.  1.
         23    2    1    2    0    0 -0.71636602663E+03  0.10554730811E+04  0.72880600583E+03  0.14719665559E+04  0.91233976803E+02 0.  0.
         11    1    3    3    0    0 -0.39022840731E+03  0.61241098335E+03  0.46048086292E+03  0.85986513333E+03  0.00000000000E+00 0.  1.
        -11    1    3    3    0    0 -0.32613761931E+03  0.44306209777E+03  0.26832514291E+03  0.61210142259E+03  0.00000000000E+00 0. -1.
         22    1    1    2    0    0  0.71636602663E+03 -0.10554730811E+04 -0.84783881772E+03  0.15316769796E+04  0.00000000000E+00 0.  1.
<mgrwt>
<rscale>  0 0.30012840E+04</rscale>
<asrwt>0</asrwt>
<pdfrwt beam="1">  1        2 0.22189313E+00 0.30012840E+04</pdfrwt>
<pdfrwt beam="2">  1       -2 0.24020587E+00 0.30012840E+04</pdfrwt>
<totfact> 0.86531175E-01</totfact>
</mgrwt>
</event>
<event>
 6    1  0.1072514E-005  0.2401705E+04  0.7818608E-02  0.8438866E-01
         -2   -1    0    0    0  501 -0.00000000000E+00  0.00000000000E+00  0.99974500216E+03  0.99974500216E+03  0.00000000000E+00 0.  1.
          2   -1    0    0  501    0  0.00000000000E+00 -0.00000000000E+00 -0.14424145358E+04  0.14424145358E+04  0.00000000000E+00 0. -1.
         23    2    1    2    0    0  0.38860676136E+03 -0.54746215825E+02 -0.13738571266E+04  0.14316533794E+04  0.90197734748E+02 0.  0.
         13    1    3    3    0    0  0.28279149909E+03 -0.68596397698E+02 -0.10970567307E+04  0.11349933780E+04  0.00000000000E+00 0.  1.
        -13    1    3    3    0    0  0.10581526227E+03  0.13850181874E+02 -0.27680039593E+03  0.29666000144E+03  0.00000000000E+00 0. -1.
         22    1    1    2    0    0 -0.38860676136E+03  0.54746215825E+02  0.93118759297E+03  0.10105061585E+04  0.00000000000E+00 0.  1.
<mgrwt>
<rscale>  0 0.24017050E+04</rscale>
<asrwt>0</asrwt>
<pdfrwt beam="1">  1        2 0.22190993E+00 0.24017050E+04</pdfrwt>
<pdfrwt beam="2">  1       -2 0.15380692E+00 0.24017050E+04</pdfrwt>
<totfact> 0.34491247E+00</totfact>
</mgrwt>
</event>
<event>
 6    1  0.1072514E-005  0.3217164E+04  0.7818608E-02  0.8184299E-01
          2   -1    0    0  501    0  0.00000000000E+00  0.00000000000E+00  0.48032415256E+04  0.48032415256E+04  0.00000000000E+00 0. -1.
         -2   -1    0    0    0  501 -0.00000000000E+00 -0.00000000000E+00 -0.53870628123E+03  0.53870628123E+03  0.00000000000E+00 0.  1.
         23    2    1    2    0    0 -0.94083807593E+03  0.75159129388E+02 -0.26217846103E+02  0.94861339397E+03  0.91404682115E+02 0.  0.
         13    1    3    3    0    0 -0.69235104377E+03  0.32380514591E+02 -0.52564478032E+02  0.69509818723E+03  0.00000000000E+00 0.  1.
        -13    1    3    3    0    0 -0.24848703216E+03  0.42778614797E+02  0.26346631929E+02  0.25351520674E+03  0.00000000000E+00 0. -1.
         22    1    1    2    0    0  0.94083807593E+03 -0.75159129388E+02  0.42907530905E+04  0.43933344129E+04  0.00000000000E+00 0. -1.
<mgrwt>
<rscale>  0 0.32171642E+04</rscale>
<asrwt>0</asrwt>
<pdfrwt beam="1">  1        2 0.73896021E+00 0.32171642E+04</pdfrwt>
<pdfrwt beam="2">  1       -2 0.82877892E-01 0.32171642E+04</pdfrwt>
<totfact> 0.63112876E-02</totfact>
</mgrwt>
</event>
<event>
 6    1  0.1072514E-005  0.1871279E+04  0.7818608E-02  0.8669286E-01
          2   -1    0    0  501    0  0.00000000000E+00  0.00000000000E+00  0.40389242127E+03  0.40389242127E+03  0.00000000000E+00 0. -1.
         -2   -1    0    0    0  501 -0.00000000000E+00 -0.00000000000E+00 -0.21674612232E+04  0.21674612232E+04  0.00000000000E+00 0.  1.
         23    2    1    2    0    0  0.61201013666E+03  0.70465210179E+03 -0.86803564343E+03  0.12778813294E+04  0.91672361156E+02 0.  0.
         13    1    3    3    0    0  0.41271627266E+03  0.42349084681E+03 -0.50929661912E+03  0.78042441357E+03  0.00000000000E+00 0.  1.
        -13    1    3    3    0    0  0.19929386399E+03  0.28116125498E+03 -0.35873902431E+03  0.49745691581E+03  0.00000000000E+00 0. -1.
         22    1    1    2    0    0 -0.61201013666E+03 -0.70465210179E+03 -0.89553315855E+03  0.12934723151E+04  0.00000000000E+00 0.  1.
<mgrwt>
<rscale>  0 0.18712789E+04</rscale>
<asrwt>0</asrwt>
<pdfrwt beam="1">  1        2 0.62137294E-01 0.18712789E+04</pdfrwt>
<pdfrwt beam="2">  1       -2 0.33345558E+00 0.18712789E+04</pdfrwt>
<totfact> 0.14624461E+00</totfact>
</mgrwt>
</event>
<event>
 6    1  0.1072514E-005  0.9506478E+03  0.7818608E-02  0.9364394E-01
          2   -1    0    0  501    0  0.00000000000E+00  0.00000000000E+00  0.27182336547E+04  0.27182336547E+04  0.00000000000E+00 0. -1.
         -2   -1    0    0    0  501 -0.00000000000E+00 -0.00000000000E+00 -0.83117501733E+02  0.83117501733E+02  0.00000000000E+00 0.  1.
         23    2    1    2    0    0  0.13232230209E+03 -0.21143110837E+03  0.25068189347E+04  0.25208650045E+04  0.91689116927E+02 0.  0.
         13    1    3    3    0    0  0.16934870343E+01 -0.32262386001E+02  0.65876047940E+03  0.65955219556E+03  0.00000000000E+00 0. -1.
        -13    1    3    3    0    0  0.13062881505E+03 -0.17916872237E+03  0.18480584553E+04  0.18613128089E+04  0.00000000000E+00 0.  1.
         22    1    1    2    0    0 -0.13232230209E+03  0.21143110837E+03  0.12829721823E+03  0.28048615192E+03  0.00000000000E+00 0.  1.
<mgrwt>
<rscale>  0 0.95064776E+03</rscale>
<asrwt>0</asrwt>
<pdfrwt beam="1">  1        2 0.41818972E+00 0.95064776E+03</pdfrwt>
<pdfrwt beam="2">  1       -2 0.12787310E-01 0.95064776E+03</pdfrwt>
<totfact> 0.12139232E+02</totfact>
</mgrwt>
</event>
<event>
 6    1  0.1072514E-005  0.2524250E+04  0.7818608E-02  0.8394397E-01
          1   -1    0    0  501    0  0.00000000000E+00  0.00000000000E+00  0.21713828192E+04  0.21713828192E+04  0.00000000000E+00 0. -1.
         -1   -1    0    0    0  501 -0.00000000000E+00 -0.00000000000E+00 -0.73361508274E+03  0.73361508274E+03  0.00000000000E+00 0.  1.
         23    2    1    2    0    0 -0.10640890624E+04  0.65398739729E+03  0.52465660485E+03  0.13578207992E+04  0.91802621233E+02 0.  0.
         11    1    3    3    0    0 -0.64222516038E+03  0.37344583397E+03  0.35646072992E+03  0.82400194145E+03  0.00000000000E+00 0. -1.
        -11    1    3    3    0    0 -0.42186390200E+03  0.28054156331E+03  0.16819587493E+03  0.53381885776E+03  0.00000000000E+00 0.  1.
         22    1    1    2    0    0  0.10640890624E+04 -0.65398739729E+03  0.91311113158E+03  0.15471771027E+04  0.00000000000E+00 0. -1.
<mgrwt>
<rscale>  0 0.25242497E+04</rscale>
<asrwt>0</asrwt>
<pdfrwt beam="1">  1        1 0.33405889E+00 0.25242497E+04</pdfrwt>
<pdfrwt beam="2">  1       -1 0.11286386E+00 0.25242497E+04</pdfrwt>
<totfact> 0.14499412E+00</totfact>
</mgrwt>
</event>
<event>
 6    1  0.1072514E-005  0.9057683E+03  0.7818608E-02  0.9418399E-01
         -1   -1    0    0    0  501 -0.00000000000E+00  0.00000000000E+00  0.16555510927E+03  0.16555510927E+03  0.00000000000E+00 0.  1.
          1   -1    0    0  501    0  0.00000000000E+00 -0.00000000000E+00 -0.12388867669E+04  0.12388867669E+04  0.00000000000E+00 0. -1.
         23    2    1    2    0    0 -0.19797627920E+02 -0.32145097801E+03 -0.10256488560E+04  0.10788711052E+04  0.91019824511E+02 0.  0.
         11    1    3    3    0    0  0.31642834317E+02 -0.19709020953E+03 -0.58397647826E+03  0.61715018174E+03  0.00000000000E+00 0. -1.
        -11    1    3    3    0    0 -0.51440462237E+02 -0.12436076848E+03 -0.44167237771E+03  0.46172092343E+03  0.00000000000E+00 0.  1.
         22    1    1    2    0    0  0.19797627920E+02  0.32145097801E+03 -0.47682801618E+02  0.32557077097E+03  0.00000000000E+00 0.  1.
<mgrwt>
<rscale>  0 0.90576826E+03</rscale>
<asrwt>0</asrwt>
<pdfrwt beam="1">  1        1 0.19059796E+00 0.90576826E+03</pdfrwt>
<pdfrwt beam="2">  1       -1 0.25470017E-01 0.90576826E+03</pdfrwt>
<totfact> 0.13668275E+02</totfact>
</mgrwt>
</event>
<event>
 6    1  0.1072514E-005  0.7605350E+03  0.7818608E-02  0.9618966E-01
         -1   -1    0    0    0  501 -0.00000000000E+00  0.00000000000E+00  0.11407203229E+03  0.11407203229E+03  0.00000000000E+00 0.  1.
          1   -1    0    0  501    0  0.00000000000E+00 -0.00000000000E+00 -0.12676497229E+04  0.12676497229E+04  0.00000000000E+00 0. -1.
         23    2    1    2    0    0  0.84889694102E+02 -0.60964397796E+02 -0.12389350233E+04  0.12467817973E+04  0.92638761007E+02 0.  0.
         11    1    3    3    0    0 -0.18309391058E+00  0.18478410149E+02 -0.31534036514E+03  0.31588135597E+03  0.00000000000E+00 0. -1.
        -11    1    3    3    0    0  0.85072788013E+02 -0.79442807945E+02 -0.92359465821E+03  0.93090044133E+03  0.00000000000E+00 0.  1.
         22    1    1    2    0    0 -0.84889694102E+02  0.60964397796E+02  0.85357332784E+02  0.13493995785E+03  0.00000000000E+00 0.  1.
<mgrwt>
<rscale>  0 0.76053502E+03</rscale>
<asrwt>0</asrwt>
<pdfrwt beam="1">  1        1 0.19502304E+00 0.76053502E+03</pdfrwt>
<pdfrwt beam="2">  1       -1 0.17549543E-01 0.76053502E+03</pdfrwt>
<totfact> 0.24595465E+02</totfact>
</mgrwt>
</event>
<event>
 6    1  0.1072514E-005  0.6415484E+03  0.7818608E-02  0.9822769E-01
          1   -1    0    0  501    0  0.00000000000E+00  0.00000000000E+00  0.12331178658E+04  0.12331178658E+04  0.00000000000E+00 0. -1.
         -1   -1    0    0    0  501 -0.00000000000E+00 -0.00000000000E+00 -0.83443828640E+02  0.83443828640E+02  0.00000000000E+00 0.  1.
         23    2    1    2    0    0 -0.20447135655E+03 -0.15762500933E+03  0.21159184146E+03  0.34360106568E+03  0.81464137839E+02 0.  0.
         11    1    3    3    0    0 -0.16460299483E+03 -0.16020759375E+03  0.16874991857E+03  0.28502132205E+03  0.00000000000E+00 0. -1.
        -11    1    3    3    0    0 -0.39868361712E+02  0.25825844209E+01  0.42841922891E+02  0.58579743640E+02  0.00000000000E+00 0.  1.
         22    1    1    2    0    0  0.20447135655E+03  0.15762500933E+03  0.93808219568E+03  0.97296062873E+03  0.00000000000E+00 0. -1.
<mgrwt>
<rscale>  0 0.64154836E+03</rscale>
<asrwt>0</asrwt>
<pdfrwt beam="1">  1        1 0.18971043E+00 0.64154836E+03</pdfrwt>
<pdfrwt beam="2">  1       -1 0.12837513E-01 0.64154836E+03</pdfrwt>
<totfact> 0.43579774E+02</totfact>
</mgrwt>
</event>
<event>
 6    1  0.1072514E-005  0.1920159E+04  0.7818608E-02  0.8644886E-01
          1   -1    0    0  501    0  0.00000000000E+00  0.00000000000E+00  0.36048040268E+04  0.36048040268E+04  0.00000000000E+00 0. -1.
         -1   -1    0    0    0  501 -0.00000000000E+00 -0.00000000000E+00 -0.25570128510E+03  0.25570128510E+03  0.00000000000E+00 0.  1.
         23    2    1    2    0    0 -0.86440035106E+03  0.41180377329E+03  0.17679900387E+04  0.20120768729E+04  0.76774024291E+02 0.  0.
         13    1    3    3    0    0 -0.16333886925E+03  0.63383690670E+02  0.27026119933E+03  0.32208414167E+03  0.00000000000E+00 0. -1.
        -13    1    3    3    0    0 -0.70106148182E+03  0.34842008262E+03  0.14977288394E+04  0.16899927312E+04  0.00000000000E+00 0.  1.
         22    1    1    2    0    0  0.86440035106E+03 -0.41180377329E+03  0.15811127030E+04  0.18484284390E+04  0.00000000000E+00 0. -1.
<mgrwt>
<rscale>  0 0.19201594E+04</rscale>
<asrwt>0</asrwt>
<pdfrwt beam="1">  1        1 0.55458520E+00 0.19201594E+04</pdfrwt>
<pdfrwt beam="2">  1       -1 0.39338662E-01 0.19201594E+04</pdfrwt>
<totfact> 0.12165369E+00</totfact>
</mgrwt>
</event>
<event>
 6    1  0.1072514E-005  0.2698280E+04  0.7818608E-02  0.8335563E-01
         -2   -1    0    0    0  501 -0.00000000000E+00  0.00000000000E+00  0.14230297668E+04  0.14230297668E+04  0.00000000000E+00 0.  1.
          2   -1    0    0  501    0  0.00000000000E+00 -0.00000000000E+00 -0.12790870075E+04  0.12790870075E+04  0.00000000000E+00 0. -1.
         23    2    1    2    0    0  0.13288809548E+04  0.21572676590E+03  0.12933085894E+03  0.13557601584E+04  0.94321293411E+02 0.  0.
         13    1    3    3    0    0  0.35169556219E+03  0.70928847937E+02  0.74191553097E+02  0.36636737912E+03  0.00000000000E+00 0. -1.
        -13    1    3    3    0    0  0.97718539263E+03  0.14479791796E+03  0.55139305845E+02  0.98939277927E+03  0.00000000000E+00 0.  1.
         22    1    1    2    0    0 -0.13288809548E+04 -0.21572676590E+03  0.14611900359E+02  0.13463566159E+04  0.00000000000E+00 0. -1.
<mgrwt>
<rscale>  0 0.26982801E+04</rscale>
<asrwt>0</asrwt>
<pdfrwt beam="1">  1        2 0.19678262E+00 0.26982801E+04</pdfrwt>
<pdfrwt beam="2">  1       -2 0.21892766E+00 0.26982801E+04</pdfrwt>
<totfact> 0.14978910E+00</totfact>
</mgrwt>
</event>
<event>
 6    1  0.1072514E-005  0.1407036E+04  0.7818608E-02  0.8948741E-01
          2   -1    0    0  501    0  0.00000000000E+00  0.00000000000E+00  0.76178686938E+03  0.76178686938E+03  0.00000000000E+00 0. -1.
         -2   -1    0    0    0  501 -0.00000000000E+00 -0.00000000000E+00 -0.64970611208E+03  0.64970611208E+03  0.00000000000E+00 0.  1.
         23    2    1    2    0    0 -0.58713027853E+03  0.43643858445E+02 -0.32464168733E+03  0.67844916014E+03  0.90963110116E+02 0.  0.
         11    1    3    3    0    0 -0.19363644969E+03 -0.13961587696E+02 -0.14368317169E+03  0.24152609467E+03  0.00000000000E+00 0. -1.
        -11    1    3    3    0    0 -0.39349382884E+03  0.57605446141E+02 -0.18095851563E+03  0.43692306547E+03  0.00000000000E+00 0.  1.
         22    1    1    2    0    0  0.58713027853E+03 -0.43643858445E+02  0.43672244463E+03  0.73304382133E+03  0.00000000000E+00 0. -1.
<mgrwt>
<rscale>  0 0.14070360E+04</rscale>
<asrwt>0</asrwt>
<pdfrwt beam="1">  1        2 0.11719798E+00 0.14070360E+04</pdfrwt>
<pdfrwt beam="2">  1       -2 0.99954786E-01 0.14070360E+04</pdfrwt>
<totfact> 0.29565598E+01</totfact>
</mgrwt>
</event>
<event>
 6    1  0.1072514E-005  0.6681444E+03  0.7818608E-02  0.9773316E-01
         -1   -1    0    0    0  501 -0.00000000000E+00  0.00000000000E+00  0.31013488795E+03  0.31013488795E+03  0.00000000000E+00 0.  1.
          1   -1    0    0  501    0  0.00000000000E+00 -0.00000000000E+00 -0.35985709702E+03  0.35985709702E+03  0.00000000000E+00 0. -1.
         23    2    1    2    0    0  0.21442022944E+03  0.32008826530E+02  0.22167526510E+03  0.32263454837E+03  0.89176952592E+02 0.  0.
         13    1    3    3    0    0  0.93209889420E+02 -0.24916143805E+02  0.64056451701E+02  0.11581073660E+03  0.00000000000E+00 0.  1.
        -13    1    3    3    0    0  0.12121034002E+03  0.56924970335E+02  0.15761881340E+03  0.20682381177E+03  0.00000000000E+00 0. -1.
         22    1    1    2    0    0 -0.21442022944E+03 -0.32008826530E+02 -0.27139747417E+03  0.34735743659E+03  0.00000000000E+00 0. -1.
<mgrwt>
<rscale>  0 0.66814442E+03</rscale>
<asrwt>0</asrwt>
<pdfrwt beam="1">  1        1 0.55362630E-01 0.66814442E+03</pdfrwt>
<pdfrwt beam="2">  1       -1 0.47713060E-01 0.66814442E+03</pdfrwt>
<totfact> 0.30699957E+02</totfact>
</mgrwt>
</event>
<event>
 6    1  0.1072514E-005  0.3169612E+04  0.7818608E-02  0.8196889E-01
         -1   -1    0    0    0  501 -0.00000000000E+00  0.00000000000E+00  0.12473674431E+04  0.12473674431E+04  0.00000000000E+00 0.  1.
          1   -1    0    0  501    0  0.00000000000E+00 -0.00000000000E+00 -0.20135288607E+04  0.20135288607E+04  0.00000000000E+00 0. -1.
         23    2    1    2    0    0 -0.11990339656E+04  0.10341305511E+04 -0.40217056643E+03  0.16362124000E+04  0.91331298424E+02 0.  0.
         13    1    3    3    0    0 -0.64211876407E+03  0.51165802811E+03 -0.17470952239E+03  0.83942472093E+03  0.00000000000E+00 0.  1.
        -13    1    3    3    0    0 -0.55691520152E+03  0.52247252303E+03 -0.22746104404E+03  0.79678767910E+03  0.00000000000E+00 0. -1.
         22    1    1    2    0    0  0.11990339656E+04 -0.10341305511E+04 -0.36399085112E+03  0.16246839038E+04  0.00000000000E+00 0.  1.
<mgrwt>
<rscale>  0 0.31696122E+04</rscale>
<asrwt>0</asrwt>
<pdfrwt beam="1">  1        1 0.30977367E+00 0.31696122E+04</pdfrwt>
<pdfrwt beam="2">  1       -1 0.19190268E+00 0.31696122E+04</pdfrwt>
<totfact> 0.41937710E-01</totfact>
</mgrwt>
</event>
<event>
 6    1  0.1072514E-005  0.4694312E+04  0.7818608E-02  0.7877474E-01
          2   -1    0    0  501    0  0.00000000000E+00  0.00000000000E+00  0.28251013778E+04  0.28251013778E+04  0.00000000000E+00 0. -1.
         -2   -1    0    0    0  501 -0.00000000000E+00 -0.00000000000E+00 -0.19500686213E+04  0.19500686213E+04  0.00000000000E+00 0.  1.
         23    2    1    2    0    0 -0.17151132065E+04  0.16011068748E+04  0.43539398510E+03  0.23880297046E+04  0.89226745356E+02 0.  0.
         11    1    3    3    0    0 -0.11484565210E+04  0.10809243556E+04  0.33464804931E+03  0.16122466189E+04  0.00000000000E+00 0. -1.
        -11    1    3    3    0    0 -0.56665668552E+03  0.52018251922E+03  0.10074593579E+03  0.77578308574E+03  0.00000000000E+00 0.  1.
         22    1    1    2    0    0  0.17151132065E+04 -0.16011068748E+04  0.43963877140E+03  0.23871402944E+04  0.00000000000E+00 0.  1.
<mgrwt>
<rscale>  0 0.46943121E+04</rscale>
<asrwt>0</asrwt>
<pdfrwt beam="1">  1        2 0.43463098E+00 0.46943121E+04</pdfrwt>
<pdfrwt beam="2">  1       -2 0.30001056E+00 0.46943121E+04</pdfrwt>
<totfact> 0.52912768E-02</totfact>
</mgrwt>
</event>
<event>
 6    1  0.1072514E-005  0.1844269E+04  0.7818608E-02  0.8683106E-01
          1   -1    0    0  501    0  0.00000000000E+00  0.00000000000E+00  0.11143812469E+04  0.11143812469E+04  0.00000000000E+00 0. -1.
         -1   -1    0    0    0  501 -0.00000000000E+00 -0.00000000000E+00 -0.76305267369E+03  0.76305267369E+03  0.00000000000E+00 0.  1.
         23    2    1    2    0    0 -0.20299290363E+03 -0.19217408113E+03  0.10682625928E+04  0.11079331832E+04  0.90520576418E+02 0.  0.
         11    1    3    3    0    0 -0.16993707646E+02 -0.27382517188E+02  0.26919516660E+03  0.27111736586E+03  0.00000000000E+00 0.  1.
        -11    1    3    3    0    0 -0.18599919599E+03 -0.16479156394E+03  0.79906742622E+03  0.83681581731E+03  0.00000000000E+00 0. -1.
         22    1    1    2    0    0  0.20299290363E+03  0.19217408113E+03 -0.71693401962E+03  0.76950073741E+03  0.00000000000E+00 0.  1.
<mgrwt>
<rscale>  0 0.18442685E+04</rscale>
<asrwt>0</asrwt>
<pdfrwt beam="1">  1        1 0.17144327E+00 0.18442685E+04</pdfrwt>
<pdfrwt beam="2">  1       -1 0.11739272E+00 0.18442685E+04</pdfrwt>
<totfact> 0.75941644E+00</totfact>
</mgrwt>
</event>
<event>
 6    1  0.1072514E-005  0.9871857E+03  0.7818608E-02  0.9322712E-01
          2   -1    0    0  501    0  0.00000000000E+00  0.00000000000E+00  0.15511703150E+04  0.15511703150E+04  0.00000000000E+00 0.  1.
         -2   -1    0    0    0  501 -0.00000000000E+00 -0.00000000000E+00 -0.15706456513E+03  0.15706456513E+03  0.00000000000E+00 0. -1.
         23    2    1    2    0    0  0.45020662336E+03 -0.17090557548E+03  0.85117261720E+03  0.98251378633E+03  0.94571648003E+02 0.  0.
         13    1    3    3    0    0  0.43781522421E+03 -0.14376423577E+03  0.80404727492E+03  0.92673747434E+03  0.00000000000E+00 0. -1.
        -13    1    3    3    0    0  0.12391399151E+02 -0.27141339711E+02  0.47125342278E+02  0.55776311989E+02  0.00000000000E+00 0.  1.
         22    1    1    2    0    0 -0.45020662336E+03  0.17090557548E+03  0.54293313272E+03  0.72572109384E+03  0.00000000000E+00 0.  1.
<mgrwt>
<rscale>  0 0.98718568E+03</rscale>
<asrwt>0</asrwt>
<pdfrwt beam="1">  1        2 0.23864158E+00 0.98718568E+03</pdfrwt>
<pdfrwt beam="2">  1       -2 0.24163780E-01 0.98718568E+03</pdfrwt>
<totfact> 0.18096249E+02</totfact>
</mgrwt>
</event>
<event>
 6    1  0.1072514E-005  0.1838474E+04  0.7818608E-02  0.8686103E-01
         -2   -1    0    0    0  501 -0.00000000000E+00  0.00000000000E+00  0.14036424193E+04  0.14036424193E+04  0.00000000000E+00 0.  1.
          2   -1    0    0  501    0  0.00000000000E+00 -0.00000000000E+00 -0.60200290604E+03  0.60200290604E+03  0.00000000000E+00 0. -1.
         23    2    1    2    0    0 -0.32419911021E+03 -0.44002866703E+03  0.12050108600E+04  0.13263525062E+04  0.91812347659E+02 0.  0.
         11    1    3    3    0    0 -0.11754805104E+03 -0.20297603667E+03  0.42690047430E+03  0.48709427293E+03  0.00000000000E+00 0.  1.
        -11    1    3    3    0    0 -0.20665105917E+03 -0.23705263036E+03  0.77811038567E+03  0.83925823327E+03  0.00000000000E+00 0. -1.
         22    1    1    2    0    0  0.32419911021E+03  0.44002866703E+03 -0.40337134667E+03  0.67929281918E+03  0.00000000000E+00 0. -1.
<mgrwt>
<rscale>  0 0.18384742E+04</rscale>
<asrwt>0</asrwt>
<pdfrwt beam="1">  1        2 0.92615832E-01 0.18384742E+04</pdfrwt>
<pdfrwt beam="2">  1       -2 0.21594499E+00 0.18384742E+04</pdfrwt>
<totfact> 0.48726253E+00</totfact>
</mgrwt>
</event>
<event>
 6    1  0.1072514E-005  0.1427354E+04  0.7818608E-02  0.8934253E-01
          3   -1    0    0  501    0  0.00000000000E+00  0.00000000000E+00  0.39763450961E+03  0.39763450961E+03  0.00000000000E+00 0.  1.
         -3   -1    0    0    0  501 -0.00000000000E+00 -0.00000000000E+00 -0.12809113169E+04  0.12809113169E+04  0.00000000000E+00 0. -1.
         23    2    1    2    0    0 -0.44451697567E+03 -0.70082656777E+02  0.20367136825E+03  0.50212614937E+03  0.90231497817E+02 0.  0.
         11    1    3    3    0    0 -0.22157372393E+03 -0.68822407195E+02  0.13690605518E+03  0.26939693171E+03  0.00000000000E+00 0. -1.
        -11    1    3    3    0    0 -0.22294325173E+03 -0.12602495823E+01  0.66765313067E+02  0.23272921766E+03  0.00000000000E+00 0.  1.
         22    1    1    2    0    0  0.44451697567E+03  0.70082656777E+02 -0.10869481755E+04  0.11764196771E+04  0.00000000000E+00 0. -1.
<mgrwt>
<rscale>  0 0.14273536E+04</rscale>
<asrwt>0</asrwt>
<pdfrwt beam="1">  1        3 0.61174540E-01 0.14273536E+04</pdfrwt>
<pdfrwt beam="2">  1       -3 0.19706328E+00 0.14273536E+04</pdfrwt>
<totfact> 0.10142986E+00</totfact>
</mgrwt>
</event>
<event>
 6    1  0.1072514E-005  0.2068890E+04  0.7818608E-02  0.8575073E-01
          2   -1    0    0  501    0  0.00000000000E+00  0.00000000000E+00  0.10537982685E+04  0.10537982685E+04  0.00000000000E+00 0. -1.
         -2   -1    0    0    0  501 -0.00000000000E+00 -0.00000000000E+00 -0.10154474184E+04  0.10154474184E+04  0.00000000000E+00 0.  1.
         23    2    1    2    0    0  0.23496443323E+03  0.29612483237E+03  0.97975618067E+03  0.10547792273E+04  0.98685579083E+02 0.  0.
         11    1    3    3    0    0  0.89802116332E+02  0.17326199339E+03  0.40898389650E+03  0.45315777169E+03  0.00000000000E+00 0. -1.
        -11    1    3    3    0    0  0.14516231690E+03  0.12286283899E+03  0.57077228417E+03  0.60162145559E+03  0.00000000000E+00 0.  1.
         22    1    1    2    0    0 -0.23496443323E+03 -0.29612483237E+03 -0.94140533062E+03  0.10144664597E+04  0.00000000000E+00 0.  1.
<mgrwt>
<rscale>  0 0.20688903E+04</rscale>
<asrwt>0</asrwt>
<pdfrwt beam="1">  1        2 0.16212281E+00 0.20688903E+04</pdfrwt>
<pdfrwt beam="2">  1       -2 0.15622268E+00 0.20688903E+04</pdfrwt>
<totfact> 0.57802036E+00</totfact>
</mgrwt>
</event>
<event>
 6    1  0.1072514E-005  0.3452147E+03  0.7818608E-02  0.1064596E+00
          3   -1    0    0  501    0  0.00000000000E+00  0.00000000000E+00  0.21433823294E+03  0.21433823294E+03  0.00000000000E+00 0. -1.
         -3   -1    0    0    0  501 -0.00000000000E+00 -0.00000000000E+00 -0.13900130787E+03  0.13900130787E+03  0.00000000000E+00 0.  1.
         23    2    1    2    0    0  0.12896266114E+03  0.90477433649E+02  0.74612407052E+01  0.18180341490E+03  0.90439358624E+02 0.  0.
         11    1    3    3    0    0  0.46632710584E+00  0.25653014294E+02  0.26195396940E+02  0.36667334566E+02  0.00000000000E+00 0. -1.
        -11    1    3    3    0    0  0.12849633403E+03  0.64824419355E+02 -0.18734156235E+02  0.14513608033E+03  0.00000000000E+00 0.  1.
         22    1    1    2    0    0 -0.12896266114E+03 -0.90477433649E+02  0.67875684361E+02  0.17153612592E+03  0.00000000000E+00 0.  1.
<mgrwt>
<rscale>  0 0.34521469E+03</rscale>
<asrwt>0</asrwt>
<pdfrwt beam="1">  1        3 0.32975113E-01 0.34521469E+03</pdfrwt>
<pdfrwt beam="2">  1       -3 0.21384817E-01 0.34521469E+03</pdfrwt>
<totfact> 0.46366105E+02</totfact>
</mgrwt>
</event>
<event>
 6    1  0.1072514E-005  0.7544916E+03  0.7818608E-02  0.9628330E-01
         -1   -1    0    0    0  501 -0.00000000000E+00  0.00000000000E+00  0.84286566667E+02  0.84286566667E+02  0.00000000000E+00 0.  1.
          1   -1    0    0  501    0  0.00000000000E+00 -0.00000000000E+00 -0.16884588352E+04  0.16884588352E+04  0.00000000000E+00 0. -1.
         23    2    1    2    0    0 -0.22161152906E+03  0.10152661914E+03 -0.15377871251E+03  0.30201062239E+03  0.90239677575E+02 0.  0.
         13    1    3    3    0    0 -0.14413485808E+03  0.76927220210E+02 -0.51376035495E+02  0.17126631760E+03  0.00000000000E+00 0. -1.
        -13    1    3    3    0    0 -0.77476670986E+02  0.24599398931E+02 -0.10240267702E+03  0.13074430479E+03  0.00000000000E+00 0.  1.
         22    1    1    2    0    0  0.22161152906E+03 -0.10152661914E+03 -0.14503935560E+04  0.14707347795E+04  0.00000000000E+00 0. -1.
<mgrwt>
<rscale>  0 0.75449161E+03</rscale>
<asrwt>0</asrwt>
<pdfrwt beam="1">  1        1 0.25976287E+00 0.75449161E+03</pdfrwt>
<pdfrwt beam="2">  1       -1 0.12967166E-01 0.75449161E+03</pdfrwt>
<totfact> 0.20660263E+02</totfact>
</mgrwt>
</event>
<event>
 6    1  0.1072514E-005  0.3541410E+04  0.7818608E-02  0.8104046E-01
          2   -1    0    0  501    0  0.00000000000E+00  0.00000000000E+00  0.18939496226E+04  0.18939496226E+04  0.00000000000E+00 0. -1.
         -2   -1    0    0    0  501 -0.00000000000E+00 -0.00000000000E+00 -0.16554806764E+04  0.16554806764E+04  0.00000000000E+00 0.  1.
         23    2    1    2    0    0  0.94110655398E+03 -0.96537664593E+03  0.12680457124E+04  0.18530630239E+04  0.90934193422E+02 0.  0.
         11    1    3    3    0    0  0.33963896820E+03 -0.32140815610E+03  0.49377223066E+03  0.68005062113E+03  0.00000000000E+00 0.  1.
        -11    1    3    3    0    0  0.60146758577E+03 -0.64396848984E+03  0.77427348174E+03  0.11730124028E+04  0.00000000000E+00 0. -1.
         22    1    1    2    0    0 -0.94110655398E+03  0.96537664593E+03 -0.10295767662E+04  0.16963672751E+04  0.00000000000E+00 0.  1.
<mgrwt>
<rscale>  0 0.35414105E+04</rscale>
<asrwt>0</asrwt>
<pdfrwt beam="1">  1        2 0.29137687E+00 0.35414105E+04</pdfrwt>
<pdfrwt beam="2">  1       -2 0.25468933E+00 0.35414105E+04</pdfrwt>
<totfact> 0.37688034E-01</totfact>
</mgrwt>
</event>
<event>
 6    1  0.1072514E-005  0.2378449E+04  0.7818608E-02  0.8447616E-01
         -1   -1    0    0    0  501 -0.00000000000E+00  0.00000000000E+00  0.15925840755E+04  0.15925840755E+04  0.00000000000E+00 0.  1.
          1   -1    0    0  501    0  0.00000000000E+00 -0.00000000000E+00 -0.88802500565E+03  0.88802500565E+03  0.00000000000E+00 0. -1.
         23    2    1    2    0    0  0.63025382591E+03  0.59204906955E+03 -0.49599390927E+03  0.10010586624E+04  0.91468583680E+02 0.  0.
         11    1    3    3    0    0  0.33036705689E+03  0.32318742481E+03 -0.21343674448E+03  0.50906556329E+03  0.00000000000E+00 0.  1.
        -11    1    3    3    0    0  0.29988676902E+03  0.26886164474E+03 -0.28255716479E+03  0.49199309916E+03  0.00000000000E+00 0. -1.
         22    1    1    2    0    0 -0.63025382591E+03 -0.59204906955E+03  0.12005529791E+04  0.14795504187E+04  0.00000000000E+00 0.  1.
<mgrwt>
<rscale>  0 0.23784486E+04</rscale>
<asrwt>0</asrwt>
<pdfrwt beam="1">  1        1 0.13661923E+00 0.23784486E+04</pdfrwt>
<pdfrwt beam="2">  1       -1 0.24501293E+00 0.23784486E+04</pdfrwt>
<totfact> 0.12560211E+00</totfact>
</mgrwt>
</event>
<event>
 6    1  0.1072514E-005  0.1887976E+04  0.7818608E-02  0.8660865E-01
         -2   -1    0    0    0  501 -0.00000000000E+00  0.00000000000E+00  0.20891508722E+04  0.20891508722E+04  0.00000000000E+00 0.  1.
          2   -1    0    0  501    0  0.00000000000E+00 -0.00000000000E+00 -0.42654320961E+03  0.42654320961E+03  0.00000000000E+00 0. -1.
         23    2    1    2    0    0 -0.60109027051E+03 -0.68922095784E+03  0.11344896246E+04  0.14596430868E+04  0.84594270324E+02 0.  0.
         13    1    3    3    0    0 -0.16178114502E+03 -0.16852198219E+03  0.34777126784E+03  0.41894826900E+03  0.00000000000E+00 0.  1.
        -13    1    3    3    0    0 -0.43930912550E+03 -0.52069897565E+03  0.78671835671E+03  0.10406948178E+04  0.00000000000E+00 0. -1.
         22    1    1    2    0    0  0.60109027051E+03  0.68922095784E+03  0.52811803807E+03  0.10560509951E+04  0.00000000000E+00 0. -1.
<mgrwt>
<rscale>  0 0.18879758E+04</rscale>
<asrwt>0</asrwt>
<pdfrwt beam="1">  1        2 0.65622033E-01 0.18879758E+04</pdfrwt>
<pdfrwt beam="2">  1       -2 0.32140782E+00 0.18879758E+04</pdfrwt>
<totfact> 0.16300605E+00</totfact>
</mgrwt>
</event>
<event>
 6    1  0.1072514E-005  0.2576460E+04  0.7818608E-02  0.8376241E-01
          1   -1    0    0  501    0  0.00000000000E+00  0.00000000000E+00  0.71924320294E+03  0.71924320294E+03  0.00000000000E+00 0. -1.
         -1   -1    0    0    0  501 -0.00000000000E+00 -0.00000000000E+00 -0.23073379776E+04  0.23073379776E+04  0.00000000000E+00 0.  1.
         23    2    1    2    0    0 -0.10753544577E+03 -0.75976846994E+03 -0.20081910315E+04  0.21517709925E+04  0.92060768465E+02 0.  0.
         13    1    3    3    0    0 -0.88091068200E+02 -0.53202752578E+03 -0.12932440002E+04  0.14011757094E+04  0.00000000000E+00 0. -1.
        -13    1    3    3    0    0 -0.19444377565E+02 -0.22774094417E+03 -0.71494703128E+03  0.75059528310E+03  0.00000000000E+00 0.  1.
         22    1    1    2    0    0  0.10753544577E+03  0.75976846994E+03  0.42009625687E+03  0.87481018801E+03  0.00000000000E+00 0. -1.
<mgrwt>
<rscale>  0 0.25764605E+04</rscale>
<asrwt>0</asrwt>
<pdfrwt beam="1">  1        1 0.11065280E+00 0.25764605E+04</pdfrwt>
<pdfrwt beam="2">  1       -1 0.35497507E+00 0.25764605E+04</pdfrwt>
<totfact> 0.33218859E-01</totfact>
</mgrwt>
</event>
<event>
 6    1  0.1072514E-005  0.2215172E+04  0.7818608E-02  0.8512140E-01
         -2   -1    0    0    0  501 -0.00000000000E+00  0.00000000000E+00  0.68182379492E+03  0.68182379492E+03  0.00000000000E+00 0.  1.
          2   -1    0    0  501    0  0.00000000000E+00 -0.00000000000E+00 -0.17992138436E+04  0.17992138436E+04  0.00000000000E+00 0. -1.
         23    2    1    2    0    0  0.76066780800E+03 -0.59597966047E+02  0.33671392852E+03  0.83890920013E+03  0.90691480886E+02 0.  0.
         13    1    3    3    0    0  0.10050013288E+03  0.10890818707E+02  0.72254881223E+02  0.12425640628E+03  0.00000000000E+00 0. -1.
        -13    1    3    3    0    0  0.66016767512E+03 -0.70488784754E+02  0.26445904730E+03  0.71465279384E+03  0.00000000000E+00 0.  1.
         22    1    1    2    0    0 -0.76066780800E+03  0.59597966047E+02 -0.14541039772E+04  0.16421284384E+04  0.00000000000E+00 0. -1.
<mgrwt>
<rscale>  0 0.22151721E+04</rscale>
<asrwt>0</asrwt>
<pdfrwt beam="1">  1        2 0.27680213E+00 0.22151721E+04</pdfrwt>
<pdfrwt beam="2">  1       -2 0.10489597E+00 0.22151721E+04</pdfrwt>
<totfact> 0.58102113E+00</totfact>
</mgrwt>
</event>
<event>
 6    1  0.1072514E-005  0.4597689E+03  0.7818608E-02  0.1024848E+00
          2   -1    0    0  501    0  0.00000000000E+00  0.00000000000E+00  0.58008427815E+03  0.58008427815E+03  0.00000000000E+00 0. -1.
         -2   -1    0    0    0  501 -0.00000000000E+00 -0.00000000000E+00 -0.91102020263E+02  0.91102020263E+02  0.00000000000E+00 0.  1.
         23    2    1    2    0    0  0.18339844231E+03 -0.46971665622E+02  0.41972278397E+03  0.46959711036E+03  0.92265403363E+02 0.  0.
         13    1    3    3    0    0  0.68333886221E+02  0.53319769360E+01  0.71049743278E+02  0.98721912481E+02  0.00000000000E+00 0. -1.
        -13    1    3    3    0    0  0.11506455609E+03 -0.52303642558E+02  0.34867304070E+03  0.37087519788E+03  0.00000000000E+00 0.  1.
         22    1    1    2    0    0 -0.18339844231E+03  0.46971665622E+02  0.69259473916E+02  0.20158918806E+03  0.00000000000E+00 0.  1.
<mgrwt>
<rscale>  0 0.45976885E+03</rscale>
<asrwt>0</asrwt>
<pdfrwt beam="1">  1        2 0.89243733E-01 0.45976885E+03</pdfrwt>
<pdfrwt beam="2">  1       -2 0.14015696E-01 0.45976885E+03</pdfrwt>
<totfact> 0.20222079E+03</totfact>
</mgrwt>
</event>
<event>
 6    1  0.1072514E-005  0.1715994E+04  0.7818608E-02  0.8752295E-01
         -2   -1    0    0    0  501 -0.00000000000E+00  0.00000000000E+00  0.10729472070E+04  0.10729472070E+04  0.00000000000E+00 0.  1.
          2   -1    0    0  501    0  0.00000000000E+00 -0.00000000000E+00 -0.68610891962E+03  0.68610891962E+03  0.00000000000E+00 0. -1.
         23    2    1    2    0    0 -0.75099302787E+03  0.25232879955E+03 -0.13716385168E+03  0.80919371935E+03  0.91215142593E+02 0.  0.
         13    1    3    3    0    0 -0.45137745813E+03  0.19516184681E+03 -0.68133143311E+02  0.49645934514E+03  0.00000000000E+00 0.  1.
        -13    1    3    3    0    0 -0.29961556974E+03  0.57166952740E+02 -0.69030708372E+02  0.31273437421E+03  0.00000000000E+00 0. -1.
         22    1    1    2    0    0  0.75099302787E+03 -0.25232879955E+03  0.52400213907E+03  0.94986240727E+03  0.00000000000E+00 0.  1.
<mgrwt>
<rscale>  0 0.17159938E+04</rscale>
<asrwt>0</asrwt>
<pdfrwt beam="1">  1        2 0.10555522E+00 0.17159938E+04</pdfrwt>
<pdfrwt beam="2">  1       -2 0.16506880E+00 0.17159938E+04</pdfrwt>
<totfact> 0.92294203E+00</totfact>
</mgrwt>
</event>
<event>
 6    1  0.1072514E-005  0.3449601E+04  0.7818608E-02  0.8125839E-01
          2   -1    0    0  501    0  0.00000000000E+00  0.00000000000E+00  0.23812782405E+04  0.23812782405E+04  0.00000000000E+00 0. -1.
         -2   -1    0    0    0  501 -0.00000000000E+00 -0.00000000000E+00 -0.12493024148E+04  0.12493024148E+04  0.00000000000E+00 0.  1.
         23    2    1    2    0    0 -0.10995016195E+04 -0.59248338390E+03 -0.68371225456E+03  0.14267967330E+04  0.91356985170E+02 0.  0.
         11    1    3    3    0    0 -0.28956673033E+03 -0.20270081731E+03 -0.19423147809E+03  0.40331424440E+03  0.00000000000E+00 0.  1.
        -11    1    3    3    0    0 -0.80993488917E+03 -0.38978256659E+03 -0.48948077647E+03  0.10234824886E+04  0.00000000000E+00 0. -1.
         22    1    1    2    0    0  0.10995016195E+04  0.59248338390E+03  0.18156880802E+04  0.22037839223E+04  0.00000000000E+00 0. -1.
<mgrwt>
<rscale>  0 0.34496009E+04</rscale>
<asrwt>0</asrwt>
<pdfrwt beam="1">  1        2 0.36635050E+00 0.34496009E+04</pdfrwt>
<pdfrwt beam="2">  1       -2 0.19220037E+00 0.34496009E+04</pdfrwt>
<totfact> 0.50372147E-01</totfact>
</mgrwt>
</event>
<event>
 6    1  0.1072514E-005  0.3444295E+04  0.7818608E-02  0.8127120E-01
         -1   -1    0    0    0  501 -0.00000000000E+00  0.00000000000E+00  0.14850447488E+04  0.14850447488E+04  0.00000000000E+00 0.  1.
          1   -1    0    0  501    0  0.00000000000E+00 -0.00000000000E+00 -0.19971061657E+04  0.19971061657E+04  0.00000000000E+00 0. -1.
         23    2    1    2    0    0 -0.33365091402E+03  0.12608636778E+04 -0.13913210629E+04  0.19091926596E+04  0.90233945487E+02 0.  0.
         13    1    3    3    0    0 -0.31100784605E+03  0.12268055983E+04 -0.13590740495E+04  0.18571106936E+04  0.00000000000E+00 0. -1.
        -13    1    3    3    0    0 -0.22643067977E+02  0.34058079553E+02 -0.32247013468E+02  0.52081966052E+02  0.00000000000E+00 0.  1.
         22    1    1    2    0    0  0.33365091402E+03 -0.12608636778E+04  0.87925964600E+03  0.15729582549E+04  0.00000000000E+00 0.  1.
<mgrwt>
<rscale>  0 0.34442950E+04</rscale>
<asrwt>0</asrwt>
<pdfrwt beam="1">  1        1 0.30724710E+00 0.34442950E+04</pdfrwt>
<pdfrwt beam="2">  1       -1 0.22846842E+00 0.34442950E+04</pdfrwt>
<totfact> 0.23711168E-01</totfact>
</mgrwt>
</event>
<event>
 6    1  0.1072514E-005  0.2701853E+04  0.7818608E-02  0.8334404E-01
         -2   -1    0    0    0  501 -0.00000000000E+00  0.00000000000E+00  0.59673520188E+03  0.59673520188E+03  0.00000000000E+00 0.  1.
          2   -1    0    0  501    0  0.00000000000E+00 -0.00000000000E+00 -0.30583119870E+04  0.30583119870E+04  0.00000000000E+00 0. -1.
         23    2    1    2    0    0 -0.74915593406E+03  0.55283348427E+03 -0.25535142603E+04  0.27194660998E+04  0.90561113992E+02 0.  0.
         13    1    3    3    0    0 -0.41295215953E+02  0.57891494692E+02 -0.22156729876E+03  0.23269892113E+03  0.00000000000E+00 0. -1.
        -13    1    3    3    0    0 -0.70786071810E+03  0.49494198958E+03 -0.23319469616E+04  0.24867671787E+04  0.00000000000E+00 0.  1.
         22    1    1    2    0    0  0.74915593406E+03 -0.55283348427E+03  0.91937475235E+02  0.93558108907E+03  0.00000000000E+00 0.  1.
<mgrwt>
<rscale>  0 0.27018530E+04</rscale>
<asrwt>0</asrwt>
<pdfrwt beam="1">  1        2 0.47050952E+00 0.27018530E+04</pdfrwt>
<pdfrwt beam="2">  1       -2 0.91805418E-01 0.27018530E+04</pdfrwt>
<totfact> 0.14159423E+00</totfact>
</mgrwt>
</event>
<event>
 6    1  0.1072514E-005  0.1254198E+04  0.7818608E-02  0.9066697E-01
          2   -1    0    0  501    0  0.00000000000E+00  0.00000000000E+00  0.21102367778E+04  0.21102367778E+04  0.00000000000E+00 0. -1.
         -2   -1    0    0    0  501 -0.00000000000E+00 -0.00000000000E+00 -0.18635484993E+03  0.18635484993E+03  0.00000000000E+00 0.  1.
         23    2    1    2    0    0  0.22105819530E+03  0.50515506419E+03  0.43362196396E+03  0.70759095919E+03  0.92782505433E+02 0.  0.
         13    1    3    3    0    0  0.18901479971E+03  0.39393431544E+03  0.38386697469E+03  0.58160527306E+03  0.00000000000E+00 0. -1.
        -13    1    3    3    0    0  0.32043395585E+02  0.11122074875E+03  0.49754989269E+02  0.12598568613E+03  0.00000000000E+00 0.  1.
         22    1    1    2    0    0 -0.22105819530E+03 -0.50515506419E+03  0.14902599639E+04  0.15890006685E+04  0.00000000000E+00 0. -1.
<mgrwt>
<rscale>  0 0.12541975E+04</rscale>
<asrwt>0</asrwt>
<pdfrwt beam="1">  1        2 0.32465180E+00 0.12541975E+04</pdfrwt>
<pdfrwt beam="2">  1       -2 0.28669978E-01 0.12541975E+04</pdfrwt>
<totfact> 0.63729619E+01</totfact>
</mgrwt>
</event>
<event>
 6    1  0.1072514E-005  0.3576085E+04  0.7818608E-02  0.8095992E-01
         -2   -1    0    0    0  501 -0.00000000000E+00  0.00000000000E+00  0.13433672973E+04  0.13433672973E+04  0.00000000000E+00 0.  1.
          2   -1    0    0  501    0  0.00000000000E+00 -0.00000000000E+00 -0.23799113683E+04  0.23799113683E+04  0.00000000000E+00 0. -1.
         23    2    1    2    0    0 -0.14381644886E+03  0.14000030024E+04 -0.16652715676E+04  0.21818540509E+04  0.81646357745E+02 0.  0.
         11    1    3    3    0    0 -0.78660612837E+02  0.79827775661E+03 -0.88638742617E+03  0.11954570415E+04  0.00000000000E+00 0. -1.
        -11    1    3    3    0    0 -0.65155836022E+02  0.60172524581E+03 -0.77888414146E+03  0.98639700944E+03  0.00000000000E+00 0.  1.
         22    1    1    2    0    0  0.14381644886E+03 -0.14000030024E+04  0.62872749668E+03  0.15414246147E+04  0.00000000000E+00 0.  1.
<mgrwt>
<rscale>  0 0.35760845E+04</rscale>
<asrwt>0</asrwt>
<pdfrwt beam="1">  1        2 0.36614021E+00 0.35760845E+04</pdfrwt>
<pdfrwt beam="2">  1       -2 0.20667189E+00 0.35760845E+04</pdfrwt>
<totfact> 0.40108692E-01</totfact>
</mgrwt>
</event>
<event>
 6    1  0.1072514E-005  0.6928021E+03  0.7818608E-02  0.9729621E-01
         -2   -1    0    0    0  501 -0.00000000000E+00  0.00000000000E+00  0.27475446258E+03  0.27475446258E+03  0.00000000000E+00 0.  1.
          2   -1    0    0  501    0  0.00000000000E+00 -0.00000000000E+00 -0.43673064993E+03  0.43673064993E+03  0.00000000000E+00 0. -1.
         23    2    1    2    0    0  0.89996044307E+01  0.18339920154E+03 -0.37600781489E+03  0.42948192531E+03  0.96729454146E+02 0.  0.
         13    1    3    3    0    0 -0.20422479030E+02  0.17081316273E+03 -0.28368311927E+03  0.33176848308E+03  0.00000000000E+00 0. -1.
        -13    1    3    3    0    0  0.29422083461E+02  0.12586038805E+02 -0.92324695630E+02  0.97713442223E+02  0.00000000000E+00 0.  1.
         22    1    1    2    0    0 -0.89996044307E+01 -0.18339920154E+03  0.21403162754E+03  0.28200318720E+03  0.00000000000E+00 0.  1.
<mgrwt>
<rscale>  0 0.69280212E+03</rscale>
<asrwt>0</asrwt>
<pdfrwt beam="1">  1        2 0.67189330E-01 0.69280212E+03</pdfrwt>
<pdfrwt beam="2">  1       -2 0.42269918E-01 0.69280212E+03</pdfrwt>
<totfact> 0.38498606E+02</totfact>
</mgrwt>
</event>
<event>
 6    1  0.1072514E-005  0.2845210E+04  0.7818608E-02  0.8289368E-01
         -2   -1    0    0    0  501 -0.00000000000E+00  0.00000000000E+00  0.69521893397E+03  0.69521893397E+03  0.00000000000E+00 0.  1.
          2   -1    0    0  501    0  0.00000000000E+00 -0.00000000000E+00 -0.29110331488E+04  0.29110331488E+04  0.00000000000E+00 0. -1.
         23    2    1    2    0    0  0.49808816239E+03  0.10520233518E+04 -0.21424515705E+04  0.24399643705E+04  0.92100200548E+02 0.  0.
         13    1    3    3    0    0  0.72784598564E+02  0.14810373114E+03 -0.37565050506E+03  0.41029942106E+03  0.00000000000E+00 0. -1.
        -13    1    3    3    0    0  0.42530356382E+03  0.90391962065E+03 -0.17668010655E+04  0.20296649494E+04  0.00000000000E+00 0.  1.
         22    1    1    2    0    0 -0.49808816239E+03 -0.10520233518E+04 -0.73362644306E+02  0.11662877123E+04  0.00000000000E+00 0.  1.
<mgrwt>
<rscale>  0 0.28452103E+04</rscale>
<asrwt>0</asrwt>
<pdfrwt beam="1">  1        2 0.44785124E+00 0.28452103E+04</pdfrwt>
<pdfrwt beam="2">  1       -2 0.10695676E+00 0.28452103E+04</pdfrwt>
<totfact> 0.12051003E+00</totfact>
</mgrwt>
</event>
<event>
 6    1  0.1072514E-005  0.1524776E+04  0.7818608E-02  0.8868142E-01
          1   -1    0    0  501    0  0.00000000000E+00  0.00000000000E+00  0.88688996149E+03  0.88688996149E+03  0.00000000000E+00 0. -1.
         -1   -1    0    0    0  501 -0.00000000000E+00 -0.00000000000E+00 -0.65536366621E+03  0.65536366621E+03  0.00000000000E+00 0.  1.
         23    2    1    2    0    0 -0.74623189095E+03  0.36930988325E+02 -0.24297584364E+02  0.75252469295E+03  0.86470271901E+02 0.  0.
         13    1    3    3    0    0 -0.27531458773E+03  0.54925701612E+02 -0.15873735787E+02  0.28118842508E+03  0.00000000000E+00 0. -1.
        -13    1    3    3    0    0 -0.47091730322E+03 -0.17994713286E+02 -0.84238485766E+01  0.47133626787E+03  0.00000000000E+00 0.  1.
         22    1    1    2    0    0  0.74623189095E+03 -0.36930988325E+02  0.25582387964E+03  0.78972893474E+03  0.00000000000E+00 0. -1.
<mgrwt>
<rscale>  0 0.15247760E+04</rscale>
<asrwt>0</asrwt>
<pdfrwt beam="1">  1        1 0.13644461E+00 0.15247760E+04</pdfrwt>
<pdfrwt beam="2">  1       -1 0.10082518E+00 0.15247760E+04</pdfrwt>
<totfact> 0.16849833E+01</totfact>
</mgrwt>
</event>
<event>
 6    1  0.1072514E-005  0.2205515E+04  0.7818608E-02  0.8516136E-01
         -1   -1    0    0    0  501 -0.00000000000E+00  0.00000000000E+00  0.53938046332E+03  0.53938046332E+03  0.00000000000E+00 0.  1.
          1   -1    0    0  501    0  0.00000000000E+00 -0.00000000000E+00 -0.22545756948E+04  0.22545756948E+04  0.00000000000E+00 0. -1.
         23    2    1    2    0    0  0.10879512550E+04 -0.72198547916E+02 -0.66585737647E+03  0.12806946151E+04  0.89230532498E+02 0.  0.
         13    1    3    3    0    0  0.64427153543E+03 -0.26237028501E+02 -0.34564337179E+03  0.73160339905E+03  0.00000000000E+00 0.  1.
        -13    1    3    3    0    0  0.44367971954E+03 -0.45961519415E+02 -0.32021400468E+03  0.54909121610E+03  0.00000000000E+00 0. -1.
         22    1    1    2    0    0 -0.10879512550E+04  0.72198547916E+02 -0.10493378550E+04  0.15132615430E+04  0.00000000000E+00 0. -1.
<mgrwt>
<rscale>  0 0.22055150E+04</rscale>
<asrwt>0</asrwt>
<pdfrwt beam="1">  1        1 0.34685780E+00 0.22055150E+04</pdfrwt>
<pdfrwt beam="2">  1       -1 0.82981608E-01 0.22055150E+04</pdfrwt>
<totfact> 0.26272111E+00</totfact>
</mgrwt>
</event>
<event>
 6    1  0.1072514E-005  0.2495923E+04  0.7818608E-02  0.8404439E-01
          1   -1    0    0  501    0  0.00000000000E+00  0.00000000000E+00  0.14180617743E+04  0.14180617743E+04  0.00000000000E+00 0. -1.
         -1   -1    0    0    0  501 -0.00000000000E+00 -0.00000000000E+00 -0.10982654584E+04  0.10982654584E+04  0.00000000000E+00 0.  1.
         23    2    1    2    0    0 -0.75108388011E+03  0.76858276443E+03  0.79652824413E+03  0.13406913230E+04  0.90274686531E+02 0.  0.
         11    1    3    3    0    0 -0.47515392278E+03  0.47715676635E+03  0.55211458029E+03  0.87079293737E+03  0.00000000000E+00 0.  1.
        -11    1    3    3    0    0 -0.27592995733E+03  0.29142599808E+03  0.24441366384E+03  0.46989838560E+03  0.00000000000E+00 0. -1.
         22    1    1    2    0    0  0.75108388011E+03 -0.76858276443E+03 -0.47673192823E+03  0.11756359097E+04  0.00000000000E+00 0.  1.
<mgrwt>
<rscale>  0 0.24959233E+04</rscale>
<asrwt>0</asrwt>
<pdfrwt beam="1">  1        1 0.21816335E+00 0.24959233E+04</pdfrwt>
<pdfrwt beam="2">  1       -1 0.16896392E+00 0.24959233E+04</pdfrwt>
<totfact> 0.16607810E+00</totfact>
</mgrwt>
</event>
<event>
 6    1  0.1072514E-005  0.2426579E+04  0.7818608E-02  0.8429619E-01
          1   -1    0    0  501    0  0.00000000000E+00  0.00000000000E+00  0.19902011592E+04  0.19902011592E+04  0.00000000000E+00 0. -1.
         -1   -1    0    0    0  501 -0.00000000000E+00 -0.00000000000E+00 -0.73965951899E+03  0.73965951899E+03  0.00000000000E+00 0.  1.
         23    2    1    2    0    0 -0.13942548864E+02  0.90627034110E+03 -0.27832535115E+03  0.95251585991E+03  0.91110572645E+02 0.  0.
         13    1    3    3    0    0  0.37299338998E+02  0.49286336134E+03 -0.15813393574E+03  0.51895267151E+03  0.00000000000E+00 0. -1.
        -13    1    3    3    0    0 -0.51241887862E+02  0.41340697977E+03 -0.12019141541E+03  0.43356318839E+03  0.00000000000E+00 0.  1.
         22    1    1    2    0    0  0.13942548864E+02 -0.90627034110E+03  0.15288669914E+04  0.17773448183E+04  0.00000000000E+00 0. -1.
<mgrwt>
<rscale>  0 0.24265789E+04</rscale>
<asrwt>0</asrwt>
<pdfrwt beam="1">  1        1 0.30618479E+00 0.24265789E+04</pdfrwt>
<pdfrwt beam="2">  1       -1 0.11379377E+00 0.24265789E+04</pdfrwt>
<totfact> 0.19042365E+00</totfact>
</mgrwt>
</event>
<event>
 6    1  0.1072514E-005  0.1264061E+04  0.7818608E-02  0.9058561E-01
          2   -1    0    0  501    0  0.00000000000E+00  0.00000000000E+00  0.17939454849E+04  0.17939454849E+04  0.00000000000E+00 0. -1.
         -2   -1    0    0    0  501 -0.00000000000E+00 -0.00000000000E+00 -0.22267247537E+03  0.22267247537E+03  0.00000000000E+00 0.  1.
         23    2    1    2    0    0  0.49685552011E+03 -0.29908515813E+03  0.11772332058E+04  0.13154869407E+04  0.91162111965E+02 0.  0.
         11    1    3    3    0    0  0.31889867361E+03 -0.15940845461E+03  0.79580955716E+03  0.87202079717E+03  0.00000000000E+00 0.  1.
        -11    1    3    3    0    0  0.17795684650E+03 -0.13967670352E+03  0.38142364866E+03  0.44346614355E+03  0.00000000000E+00 0. -1.
         22    1    1    2    0    0 -0.49685552011E+03  0.29908515813E+03  0.39403980373E+03  0.70113101956E+03  0.00000000000E+00 0.  1.
<mgrwt>
<rscale>  0 0.12640606E+04</rscale>
<asrwt>0</asrwt>
<pdfrwt beam="1">  1        2 0.27599160E+00 0.12640606E+04</pdfrwt>
<pdfrwt beam="2">  1       -2 0.34257305E-01 0.12640606E+04</pdfrwt>
<totfact> 0.68203137E+01</totfact>
</mgrwt>
</event>
<event>
 6    1  0.1072514E-005  0.2390969E+04  0.7818608E-02  0.8442893E-01
          2   -1    0    0  501    0  0.00000000000E+00  0.00000000000E+00  0.95286250791E+03  0.95286250791E+03  0.00000000000E+00 0. -1.
         -2   -1    0    0    0  501 -0.00000000000E+00 -0.00000000000E+00 -0.14998833759E+04  0.14998833759E+04  0.00000000000E+00 0.  1.
         23    2    1    2    0    0  0.11822958950E+04  0.23797977872E+02 -0.44149753122E+03  0.12655116602E+04  0.90607753592E+02 0.  0.
         11    1    3    3    0    0  0.16553192171E+03  0.34925343831E+02 -0.63369865247E+02  0.18065529765E+03  0.00000000000E+00 0.  1.
        -11    1    3    3    0    0  0.10167639733E+04 -0.11127365959E+02 -0.37812766597E+03  0.10848563626E+04  0.00000000000E+00 0. -1.
         22    1    1    2    0    0 -0.11822958950E+04 -0.23797977872E+02 -0.10552333675E+03  0.11872342236E+04  0.00000000000E+00 0. -1.
<mgrwt>
<rscale>  0 0.23909685E+04</rscale>
<asrwt>0</asrwt>
<pdfrwt beam="1">  1        2 0.14659423E+00 0.23909685E+04</pdfrwt>
<pdfrwt beam="2">  1       -2 0.23075129E+00 0.23909685E+04</pdfrwt>
<totfact> 0.20570288E+00</totfact>
</mgrwt>
</event>
<event>
 6    1  0.1072514E-005  0.2559593E+04  0.7818608E-02  0.8382058E-01
         -1   -1    0    0    0  501 -0.00000000000E+00  0.00000000000E+00  0.49545540341E+03  0.49545540341E+03  0.00000000000E+00 0.  1.
          1   -1    0    0  501    0  0.00000000000E+00 -0.00000000000E+00 -0.33058049943E+04  0.33058049943E+04  0.00000000000E+00 0. -1.
         23    2    1    2    0    0  0.11042873470E+04 -0.49911291280E+03 -0.80347156114E+03  0.14568790996E+04  0.91465386100E+02 0.  0.
         11    1    3    3    0    0  0.59521474463E+03 -0.25783257640E+03 -0.37655302537E+03  0.75003360630E+03  0.00000000000E+00 0. -1.
        -11    1    3    3    0    0  0.50907260238E+03 -0.24128033640E+03 -0.42691853577E+03  0.70684549331E+03  0.00000000000E+00 0.  1.
         22    1    1    2    0    0 -0.11042873470E+04  0.49911291280E+03 -0.20068780297E+04  0.23443812981E+04  0.00000000000E+00 0. -1.
<mgrwt>
<rscale>  0 0.25595929E+04</rscale>
<asrwt>0</asrwt>
<pdfrwt beam="1">  1        1 0.50858540E+00 0.25595929E+04</pdfrwt>
<pdfrwt beam="2">  1       -1 0.76223906E-01 0.25595929E+04</pdfrwt>
<totfact> 0.54006921E-01</totfact>
</mgrwt>
</event>
<event>
 6    1  0.1671537E-005  0.2481431E+04  0.7818608E-02  0.8409631E-01
         -2   -1    0    0    0  501 -0.00000000000E+00  0.00000000000E+00  0.76213709382E+03  0.76213709382E+03  0.00000000000E+00 0.  1.
          2   -1    0    0  501    0  0.00000000000E+00 -0.00000000000E+00 -0.20198137470E+04  0.20198137470E+04  0.00000000000E+00 0. -1.
         23    2    1    2    0    0 -0.74873394665E+03 -0.54290422218E+03 -0.15541079639E+04  0.18107561954E+04  0.90768487365E+02 0.  0.
         13    1    3    3    0    0 -0.33925680179E+03 -0.23896150107E+03 -0.61073517697E+03  0.73837336961E+03  0.00000000000E+00 0. -1.
        -13    1    3    3    0    0 -0.40947714485E+03 -0.30394272111E+03 -0.94337278698E+03  0.10723828258E+04  0.00000000000E+00 0.  1.
         22    1    1    2    0    0  0.74873394665E+03  0.54290422218E+03  0.29643131075E+03  0.97119464543E+03  0.00000000000E+00 0.  1.
<mgrwt>
<rscale>  0 0.24814310E+04</rscale>
<asrwt>0</asrwt>
<pdfrwt beam="1">  1        2 0.31074057E+00 0.24814310E+04</pdfrwt>
<pdfrwt beam="2">  1       -2 0.11725186E+00 0.24814310E+04</pdfrwt>
<totfact> 0.32715786E+00</totfact>
</mgrwt>
</event>
<event>
 6    1  0.1072514E-005  0.1405486E+04  0.7818608E-02  0.8949857E-01
         -2   -1    0    0    0  501 -0.00000000000E+00  0.00000000000E+00  0.37738490632E+03  0.37738490632E+03  0.00000000000E+00 0.  1.
          2   -1    0    0  501    0  0.00000000000E+00 -0.00000000000E+00 -0.13086041155E+04  0.13086041155E+04  0.00000000000E+00 0. -1.
         23    2    1    2    0    0  0.19677241144E+03 -0.58763094887E+03 -0.77147166862E+02  0.63077882123E+03  0.88886005548E+02 0.  0.
         13    1    3    3    0    0  0.11301540209E+03 -0.34311982396E+03 -0.70834505213E+00  0.36125364560E+03  0.00000000000E+00 0. -1.
        -13    1    3    3    0    0  0.83757009352E+02 -0.24451112491E+03 -0.76438821810E+02  0.26952517563E+03  0.00000000000E+00 0.  1.
         22    1    1    2    0    0 -0.19677241144E+03  0.58763094887E+03 -0.85407204232E+03  0.10552102006E+04  0.00000000000E+00 0. -1.
<mgrwt>
<rscale>  0 0.14054856E+04</rscale>
<asrwt>0</asrwt>
<pdfrwt beam="1">  1        2 0.20132371E+00 0.14054856E+04</pdfrwt>
<pdfrwt beam="2">  1       -2 0.58059216E-01 0.14054856E+04</pdfrwt>
<totfact> 0.44131693E+01</totfact>
</mgrwt>
</event>
<event>
 6    1  0.1072514E-005  0.1294929E+04  0.7818608E-02  0.9033596E-01
          1   -1    0    0  501    0  0.00000000000E+00  0.00000000000E+00  0.41724346232E+03  0.41724346232E+03  0.00000000000E+00 0. -1.
         -1   -1    0    0    0  501 -0.00000000000E+00 -0.00000000000E+00 -0.10047138023E+04  0.10047138023E+04  0.00000000000E+00 0.  1.
         23    2    1    2    0    0 -0.61064425222E+03  0.77462949675E+02 -0.50547785283E+03  0.80098248308E+03  0.84724064896E+02 0.  0.
         11    1    3    3    0    0 -0.41928764888E+03  0.27028278335E+02 -0.30422232052E+03  0.51873295696E+03  0.00000000000E+00 0. -1.
        -11    1    3    3    0    0 -0.19135660333E+03  0.50434671340E+02 -0.20125553231E+03  0.28224952612E+03  0.00000000000E+00 0.  1.
         22    1    1    2    0    0  0.61064425222E+03 -0.77462949675E+02 -0.81992487150E+02  0.62097478152E+03  0.00000000000E+00 0. -1.
<mgrwt>
<rscale>  0 0.12949290E+04</rscale>
<asrwt>0</asrwt>
<pdfrwt beam="1">  1        1 0.64191302E-01 0.12949290E+04</pdfrwt>
<pdfrwt beam="2">  1       -1 0.15457135E+00 0.12949290E+04</pdfrwt>
<totfact> 0.17921320E+01</totfact>
</mgrwt>
</event>
<event>
 6    1  0.1072514E-005  0.5330236E+04  0.7818608E-02  0.7779491E-01
          2   -1    0    0  501    0  0.00000000000E+00  0.00000000000E+00  0.30132315157E+04  0.30132315157E+04  0.00000000000E+00 0. -1.
         -2   -1    0    0    0  501 -0.00000000000E+00 -0.00000000000E+00 -0.23572218827E+04  0.23572218827E+04  0.00000000000E+00 0.  1.
         23    2    1    2    0    0  0.13460924077E+04  0.17970574032E+04  0.17732157983E+04  0.28625599206E+04  0.92601032870E+02 0.  0.
         11    1    3    3    0    0  0.27833294284E+03  0.34997718411E+03  0.39804270370E+03  0.59865787428E+03  0.00000000000E+00 0.  1.
        -11    1    3    3    0    0  0.10677594648E+04  0.14470802191E+04  0.13751730946E+04  0.22639020463E+04  0.00000000000E+00 0. -1.
         22    1    1    2    0    0 -0.13460924077E+04 -0.17970574032E+04 -0.11172061653E+04  0.25078934778E+04  0.00000000000E+00 0.  1.
<mgrwt>
<rscale>  0 0.53302365E+04</rscale>
<asrwt>0</asrwt>
<pdfrwt beam="1">  1        2 0.46357408E+00 0.53302365E+04</pdfrwt>
<pdfrwt beam="2">  1       -2 0.36264952E+00 0.53302365E+04</pdfrwt>
<totfact> 0.15667006E-02</totfact>
</mgrwt>
</event>
<event>
 6    1  0.1072514E-005  0.3758541E+04  0.7818608E-02  0.8055111E-01
         -1   -1    0    0    0  501 -0.00000000000E+00  0.00000000000E+00  0.13504834173E+04  0.13504834173E+04  0.00000000000E+00 0.  1.
          1   -1    0    0  501    0  0.00000000000E+00 -0.00000000000E+00 -0.26151067966E+04  0.26151067966E+04  0.00000000000E+00 0. -1.
         23    2    1    2    0    0 -0.32265355957E+02 -0.11693483171E+04  0.91761231321E+03  0.14895915956E+04  0.91946856056E+02 0.  0.
         13    1    3    3    0    0 -0.85619869817E+01 -0.17479131524E+03  0.97736253092E+02  0.20044372445E+03  0.00000000000E+00 0. -1.
        -13    1    3    3    0    0 -0.23703368975E+02 -0.99455700188E+03  0.81987606012E+03  0.12891478711E+04  0.00000000000E+00 0.  1.
         22    1    1    2    0    0  0.32265355957E+02  0.11693483171E+04 -0.21822356926E+04  0.24759986183E+04  0.00000000000E+00 0. -1.
<mgrwt>
<rscale>  0 0.37585414E+04</rscale>
<asrwt>0</asrwt>
<pdfrwt beam="1">  1        1 0.40232412E+00 0.37585414E+04</pdfrwt>
<pdfrwt beam="2">  1       -1 0.20776668E+00 0.37585414E+04</pdfrwt>
<totfact> 0.11968139E-01</totfact>
</mgrwt>
</event>
<event>
 6    1  0.1072514E-005  0.1205534E+04  0.7818608E-02  0.9108026E-01
          2   -1    0    0  501    0  0.00000000000E+00  0.00000000000E+00  0.31156955610E+04  0.31156955610E+04  0.00000000000E+00 0. -1.
         -2   -1    0    0    0  501 -0.00000000000E+00 -0.00000000000E+00 -0.11661221944E+03  0.11661221944E+03  0.00000000000E+00 0.  1.
         23    2    1    2    0    0  0.25955405170E+02 -0.58829144368E+03  0.18059150838E+04  0.19017398577E+04  0.92329251300E+02 0.  0.
         13    1    3    3    0    0  0.51293693535E+02 -0.26743611688E+03  0.90360474611E+03  0.94374501683E+03  0.00000000000E+00 0. -1.
        -13    1    3    3    0    0 -0.25338288365E+02 -0.32085532680E+03  0.90231033773E+03  0.95799484088E+03  0.00000000000E+00 0.  1.
         22    1    1    2    0    0 -0.25955405170E+02  0.58829144368E+03  0.11931682578E+04  0.13305679228E+04  0.00000000000E+00 0.  1.
<mgrwt>
<rscale>  0 0.12055342E+04</rscale>
<asrwt>0</asrwt>
<pdfrwt beam="1">  1        2 0.47933772E+00 0.12055342E+04</pdfrwt>
<pdfrwt beam="2">  1       -2 0.17940344E-01 0.12055342E+04</pdfrwt>
<totfact> 0.38108427E+01</totfact>
</mgrwt>
</event>
<event>
 6    1  0.1072514E-005  0.1301228E+04  0.7818608E-02  0.9028592E-01
         -1   -1    0    0    0  501 -0.00000000000E+00  0.00000000000E+00  0.88085696192E+03  0.88085696192E+03  0.00000000000E+00 0.  1.
          1   -1    0    0  501    0  0.00000000000E+00 -0.00000000000E+00 -0.48055341194E+03  0.48055341194E+03  0.00000000000E+00 0. -1.
         23    2    1    2    0    0 -0.17315350641E+03  0.36415641534E+03 -0.32926067195E+03  0.52783015245E+03  0.87178254919E+02 0.  0.
         11    1    3    3    0    0 -0.98548966975E+02  0.14078688590E+03 -0.98306842530E+02  0.19798252807E+03  0.00000000000E+00 0.  1.
        -11    1    3    3    0    0 -0.74604539432E+02  0.22336952944E+03 -0.23095382942E+03  0.32984762438E+03  0.00000000000E+00 0. -1.
         22    1    1    2    0    0  0.17315350641E+03 -0.36415641534E+03  0.72956422193E+03  0.83358022142E+03  0.00000000000E+00 0.  1.
<mgrwt>
<rscale>  0 0.13012284E+04</rscale>
<asrwt>0</asrwt>
<pdfrwt beam="1">  1        1 0.73931294E-01 0.13012284E+04</pdfrwt>
<pdfrwt beam="2">  1       -1 0.13551646E+00 0.13012284E+04</pdfrwt>
<totfact> 0.20983046E+01</totfact>
</mgrwt>
</event>
<event>
 6    1  0.1072514E-005  0.3887951E+04  0.7818608E-02  0.8027540E-01
          2   -1    0    0  501    0  0.00000000000E+00  0.00000000000E+00  0.35123274027E+04  0.35123274027E+04  0.00000000000E+00 0. -1.
         -2   -1    0    0    0  501 -0.00000000000E+00 -0.00000000000E+00 -0.10759366021E+04  0.10759366021E+04  0.00000000000E+00 0.  1.
         23    2    1    2    0    0 -0.16475790133E+04 -0.53521174605E+03  0.18094291910E+03  0.17443207275E+04  0.94584576860E+02 0.  0.
         11    1    3    3    0    0 -0.96301274830E+03 -0.33083540957E+03  0.14982858554E+03  0.10292202032E+04  0.00000000000E+00 0. -1.
        -11    1    3    3    0    0 -0.68456626501E+03 -0.20437633648E+03  0.31114333560E+02  0.71510052430E+03  0.00000000000E+00 0.  1.
         22    1    1    2    0    0  0.16475790133E+04  0.53521174605E+03  0.22554478815E+04  0.28439432773E+04  0.00000000000E+00 0. -1.
<mgrwt>
<rscale>  0 0.38879514E+04</rscale>
<asrwt>0</asrwt>
<pdfrwt beam="1">  1        2 0.54035806E+00 0.38879514E+04</pdfrwt>
<pdfrwt beam="2">  1       -2 0.16552871E+00 0.38879514E+04</pdfrwt>
<totfact> 0.14531988E-01</totfact>
</mgrwt>
</event>
<event>
 6    1  0.1072514E-005  0.1181170E+04  0.7818608E-02  0.9129500E-01
         -4   -1    0    0    0  501 -0.00000000000E+00  0.00000000000E+00  0.74923348799E+03  0.74923348799E+03  0.00000000000E+00 0.  1.
          4   -1    0    0  501    0  0.00000000000E+00 -0.00000000000E+00 -0.46553019198E+03  0.46553019198E+03  0.00000000000E+00 0. -1.
         23    2    1    2    0    0 -0.19982020114E+03 -0.28187527498E+03  0.63103723703E+03  0.72484261488E+03  0.88357446815E+02 0.  0.
         13    1    3    3    0    0 -0.49307715380E+02 -0.30603292045E+02  0.15961685509E+03  0.16983919662E+03  0.00000000000E+00 0.  1.
        -13    1    3    3    0    0 -0.15051248576E+03 -0.25127198293E+03  0.47142038194E+03  0.55500341826E+03  0.00000000000E+00 0. -1.
         22    1    1    2    0    0  0.19982020114E+03  0.28187527498E+03 -0.34733394101E+03  0.48992106508E+03  0.00000000000E+00 0. -1.
<mgrwt>
<rscale>  0 0.11811703E+04</rscale>
<asrwt>0</asrwt>
<pdfrwt beam="1">  1        4 0.71620030E-01 0.11811703E+04</pdfrwt>
<pdfrwt beam="2">  1       -4 0.11526669E+00 0.11811703E+04</pdfrwt>
<totfact> 0.20499088E+00</totfact>
</mgrwt>
</event>
<event>
 6    1  0.1072514E-005  0.2086006E+04  0.7818608E-02  0.8567433E-01
         -2   -1    0    0    0  501 -0.00000000000E+00  0.00000000000E+00  0.95746622772E+03  0.95746622772E+03  0.00000000000E+00 0. -1.
          2   -1    0    0  501    0  0.00000000000E+00 -0.00000000000E+00 -0.11361814144E+04  0.11361814144E+04  0.00000000000E+00 0.  1.
         23    2    1    2    0    0  0.98892069620E+03 -0.81402652763E+02 -0.40564097590E+03  0.10757646189E+04  0.90190790293E+02 0.  0.
         13    1    3    3    0    0  0.35758206551E+03  0.12156413924E+02 -0.13239132376E+03  0.38149727991E+03  0.00000000000E+00 0.  1.
        -13    1    3    3    0    0  0.63133863069E+03 -0.93559066687E+02 -0.27324965214E+03  0.69426733896E+03  0.00000000000E+00 0. -1.
         22    1    1    2    0    0 -0.98892069620E+03  0.81402652763E+02  0.22692578920E+03  0.10178830233E+04  0.00000000000E+00 0. -1.
<mgrwt>
<rscale>  0 0.20860061E+04</rscale>
<asrwt>0</asrwt>
<pdfrwt beam="1">  1        2 0.17479714E+00 0.20860061E+04</pdfrwt>
<pdfrwt beam="2">  1       -2 0.14730250E+00 0.20860061E+04</pdfrwt>
<totfact> 0.60037297E+00</totfact>
</mgrwt>
</event>
<event>
 6    1  0.1072514E-005  0.1962318E+04  0.7818608E-02  0.8624444E-01
          1   -1    0    0  501    0  0.00000000000E+00  0.00000000000E+00  0.29249402487E+04  0.29249402487E+04  0.00000000000E+00 0. -1.
         -1   -1    0    0    0  501 -0.00000000000E+00 -0.00000000000E+00 -0.32912554910E+03  0.32912554910E+03  0.00000000000E+00 0.  1.
         23    2    1    2    0    0 -0.53976576505E+03 -0.52560180911E+02 -0.52815041733E+02  0.55048499441E+03  0.78323985487E+02 0.  0.
         13    1    3    3    0    0 -0.35136863638E+03 -0.34830517138E+01 -0.12132460347E+02  0.35159528847E+03  0.00000000000E+00 0.  1.
        -13    1    3    3    0    0 -0.18839712867E+03 -0.49077129197E+02 -0.40682581386E+02  0.19888970594E+03  0.00000000000E+00 0. -1.
         22    1    1    2    0    0  0.53976576505E+03  0.52560180911E+02  0.26486297413E+04  0.27035808034E+04  0.00000000000E+00 0. -1.
<mgrwt>
<rscale>  0 0.19623176E+04</rscale>
<asrwt>0</asrwt>
<pdfrwt beam="1">  1        1 0.44999079E+00 0.19623176E+04</pdfrwt>
<pdfrwt beam="2">  1       -1 0.50634702E-01 0.19623176E+04</pdfrwt>
<totfact> 0.24760578E+00</totfact>
</mgrwt>
</event>
<event>
 6    1  0.1072514E-005  0.1473373E+04  0.7818608E-02  0.8902355E-01
         -1   -1    0    0    0  501 -0.00000000000E+00  0.00000000000E+00  0.50614915732E+03  0.50614915732E+03  0.00000000000E+00 0.  1.
          1   -1    0    0  501    0  0.00000000000E+00 -0.00000000000E+00 -0.10722274936E+04  0.10722274936E+04  0.00000000000E+00 0. -1.
         23    2    1    2    0    0  0.25704883649E+03  0.53904996601E+03  0.17275662612E+03  0.62836292898E+03  0.91357257237E+02 0.  0.
         13    1    3    3    0    0  0.19161157057E+03  0.33947736326E+03  0.14762897598E+03  0.41683832441E+03  0.00000000000E+00 0.  1.
        -13    1    3    3    0    0  0.65437265921E+02  0.19957260275E+03  0.25127650141E+02  0.21152460457E+03  0.00000000000E+00 0. -1.
         22    1    1    2    0    0 -0.25704883649E+03 -0.53904996601E+03 -0.73883496237E+03  0.95001372191E+03  0.00000000000E+00 0. -1.
<mgrwt>
<rscale>  0 0.14733731E+04</rscale>
<asrwt>0</asrwt>
<pdfrwt beam="1">  1        1 0.16495807E+00 0.14733731E+04</pdfrwt>
<pdfrwt beam="2">  1       -1 0.77869102E-01 0.14733731E+04</pdfrwt>
<totfact> 0.21316578E+01</totfact>
</mgrwt>
</event>
<event>
 6    1  0.1072514E-005  0.2249627E+04  0.7818608E-02  0.8498052E-01
          1   -1    0    0  501    0  0.00000000000E+00  0.00000000000E+00  0.14921652133E+04  0.14921652133E+04  0.00000000000E+00 0. -1.
         -1   -1    0    0    0  501 -0.00000000000E+00 -0.00000000000E+00 -0.84789908806E+03  0.84789908806E+03  0.00000000000E+00 0.  1.
         23    2    1    2    0    0  0.49507039022E+03  0.52745180456E+03 -0.57078706184E+03  0.92597295181E+03  0.91257548227E+02 0.  0.
         11    1    3    3    0    0  0.16002880725E+03  0.23471079843E+03 -0.21367107170E+03  0.35546266321E+03  0.00000000000E+00 0.  1.
        -11    1    3    3    0    0  0.33504158298E+03  0.29274100613E+03 -0.35711599014E+03  0.57051028860E+03  0.00000000000E+00 0. -1.
         22    1    1    2    0    0 -0.49507039022E+03 -0.52745180456E+03  0.12150531871E+04  0.14140913495E+04  0.00000000000E+00 0.  1.
<mgrwt>
<rscale>  0 0.22496271E+04</rscale>
<asrwt>0</asrwt>
<pdfrwt beam="1">  1        1 0.22956388E+00 0.22496271E+04</pdfrwt>
<pdfrwt beam="2">  1       -1 0.13044601E+00 0.22496271E+04</pdfrwt>
<totfact> 0.30234135E+00</totfact>
</mgrwt>
</event>
<event>
 6    1  0.1072514E-005  0.1347211E+04  0.7818608E-02  0.8992942E-01
          1   -1    0    0  501    0  0.00000000000E+00  0.00000000000E+00  0.63579717844E+03  0.63579717844E+03  0.00000000000E+00 0. -1.
         -1   -1    0    0    0  501 -0.00000000000E+00 -0.00000000000E+00 -0.71366252383E+03  0.71366252383E+03  0.00000000000E+00 0.  1.
         23    2    1    2    0    0  0.53637143418E+03 -0.40066831621E+03 -0.52148417741E+02  0.67946658635E+03  0.10356625645E+03 0.  0.
         11    1    3    3    0    0  0.38949075737E+03 -0.27935456861E+03  0.89777195563E+01  0.47939818995E+03  0.00000000000E+00 0.  1.
        -11    1    3    3    0    0  0.14688067680E+03 -0.12131374760E+03 -0.61126137297E+02  0.20006839639E+03  0.00000000000E+00 0. -1.
         22    1    1    2    0    0 -0.53637143418E+03  0.40066831621E+03 -0.25716927651E+02  0.66999311592E+03  0.00000000000E+00 0.  1.
<mgrwt>
<rscale>  0 0.13472114E+04</rscale>
<asrwt>0</asrwt>
<pdfrwt beam="1">  1        1 0.97814950E-01 0.13472114E+04</pdfrwt>
<pdfrwt beam="2">  1       -1 0.10979423E+00 0.13472114E+04</pdfrwt>
<totfact> 0.23627688E+01</totfact>
</mgrwt>
</event>
<event>
 6    1  0.1072514E-005  0.1047919E+04  0.7818608E-02  0.9257496E-01
         -1   -1    0    0    0  501 -0.00000000000E+00  0.00000000000E+00  0.14104517888E+04  0.14104517888E+04  0.00000000000E+00 0.  1.
          1   -1    0    0  501    0  0.00000000000E+00 -0.00000000000E+00 -0.19464214932E+03  0.19464214932E+03  0.00000000000E+00 0. -1.
         23    2    1    2    0    0  0.26781831722E+03 -0.15426861364E+03  0.12532943652E+04  0.12937572059E+04  0.86807175739E+02 0.  0.
         11    1    3    3    0    0  0.37404254105E+02 -0.59692139641E+02  0.22739707518E+03  0.23805810123E+03  0.00000000000E+00 0. -1.
        -11    1    3    3    0    0  0.23041406311E+03 -0.94576473995E+02  0.10258972900E+04  0.10556991046E+04  0.00000000000E+00 0.  1.
         22    1    1    2    0    0 -0.26781831722E+03  0.15426861364E+03 -0.37484725700E+02  0.31133673225E+03  0.00000000000E+00 0. -1.
<mgrwt>
<rscale>  0 0.10479186E+04</rscale>
<asrwt>0</asrwt>
<pdfrwt beam="1">  1        1 0.29944947E-01 0.10479186E+04</pdfrwt>
<pdfrwt beam="2">  1       -1 0.21699258E+00 0.10479186E+04</pdfrwt>
<totfact> 0.17808823E+01</totfact>
</mgrwt>
</event>
<event>
 6    1  0.1072514E-005  0.1257342E+04  0.7818608E-02  0.9064095E-01
          1   -1    0    0  501    0  0.00000000000E+00  0.00000000000E+00  0.73792386270E+03  0.73792386270E+03  0.00000000000E+00 0. -1.
         -1   -1    0    0    0  501 -0.00000000000E+00 -0.00000000000E+00 -0.53559342038E+03  0.53559342038E+03  0.00000000000E+00 0.  1.
         23    2    1    2    0    0  0.27886564357E+03  0.34636173043E+03  0.54705829005E+03  0.71087193788E+03  0.91288793842E+02 0.  0.
         13    1    3    3    0    0  0.19000451455E+03  0.18540895704E+03  0.27248623637E+03  0.38042994876E+03  0.00000000000E+00 0. -1.
        -13    1    3    3    0    0  0.88861129022E+02  0.16095277338E+03  0.27457205368E+03  0.33044198912E+03  0.00000000000E+00 0.  1.
         22    1    1    2    0    0 -0.27886564357E+03 -0.34636173043E+03 -0.34472784773E+03  0.56264534520E+03  0.00000000000E+00 0.  1.
<mgrwt>
<rscale>  0 0.12573419E+04</rscale>
<asrwt>0</asrwt>
<pdfrwt beam="1">  1        1 0.11352675E+00 0.12573419E+04</pdfrwt>
<pdfrwt beam="2">  1       -1 0.82398987E-01 0.12573419E+04</pdfrwt>
<totfact> 0.36269997E+01</totfact>
</mgrwt>
</event>
<event>
 6    1  0.1072514E-005  0.2487848E+04  0.7818608E-02  0.8407327E-01
          2   -1    0    0  501    0  0.00000000000E+00  0.00000000000E+00  0.10245728898E+04  0.10245728898E+04  0.00000000000E+00 0. -1.
         -2   -1    0    0    0  501 -0.00000000000E+00 -0.00000000000E+00 -0.15102366561E+04  0.15102366561E+04  0.00000000000E+00 0.  1.
         23    2    1    2    0    0  0.74278036177E+03  0.86155312804E+03  0.26567253138E+03  0.11715404271E+04  0.89042799155E+02 0.  0.
         11    1    3    3    0    0  0.41857199677E+03  0.54503835067E+03  0.13987667279E+03  0.70130934955E+03  0.00000000000E+00 0. -1.
        -11    1    3    3    0    0  0.32420836501E+03  0.31651477737E+03  0.12579585860E+03  0.47023107753E+03  0.00000000000E+00 0.  1.
         22    1    1    2    0    0 -0.74278036177E+03 -0.86155312804E+03 -0.75133629764E+03  0.13632691189E+04  0.00000000000E+00 0.  1.
<mgrwt>
<rscale>  0 0.24878485E+04</rscale>
<asrwt>0</asrwt>
<pdfrwt beam="1">  1        2 0.15762660E+00 0.24878485E+04</pdfrwt>
<pdfrwt beam="2">  1       -2 0.23234410E+00 0.24878485E+04</pdfrwt>
<totfact> 0.17924478E+00</totfact>
</mgrwt>
</event>
<event>
 6    1  0.1072514E-005  0.2013341E+04  0.7818608E-02  0.8600409E-01
          1   -1    0    0  501    0  0.00000000000E+00  0.00000000000E+00  0.14641388405E+04  0.14641388405E+04  0.00000000000E+00 0. -1.
         -1   -1    0    0    0  501 -0.00000000000E+00 -0.00000000000E+00 -0.69213736558E+03  0.69213736558E+03  0.00000000000E+00 0.  1.
         23    2    1    2    0    0  0.88039676881E+03  0.35537246775E+03  0.73837906510E+03  0.12062664546E+04  0.92125210374E+02 0.  0.
         11    1    3    3    0    0  0.20259857730E+03  0.12468720520E+03  0.18318534973E+03  0.30024982101E+03  0.00000000000E+00 0.  1.
        -11    1    3    3    0    0  0.67779819151E+03  0.23068526255E+03  0.55519371538E+03  0.90601663360E+03  0.00000000000E+00 0. -1.
         22    1    1    2    0    0 -0.88039676881E+03 -0.35537246775E+03  0.33622409768E+02  0.95000975142E+03  0.00000000000E+00 0.  1.
<mgrwt>
<rscale>  0 0.20133407E+04</rscale>
<asrwt>0</asrwt>
<pdfrwt beam="1">  1        1 0.22525213E+00 0.20133407E+04</pdfrwt>
<pdfrwt beam="2">  1       -1 0.10648267E+00 0.20133407E+04</pdfrwt>
<totfact> 0.52890882E+00</totfact>
</mgrwt>
</event>
<event>
 6    1  0.1072514E-005  0.1064095E+04  0.7818608E-02  0.9240912E-01
          2   -1    0    0  501    0  0.00000000000E+00  0.00000000000E+00  0.38452278891E+03  0.38452278891E+03  0.00000000000E+00 0. -1.
         -2   -1    0    0    0  501 -0.00000000000E+00 -0.00000000000E+00 -0.73617094168E+03  0.73617094168E+03  0.00000000000E+00 0.  1.
         23    2    1    2    0    0  0.18216519761E+03  0.30873692926E+03 -0.58594033157E+03  0.69244675074E+03  0.87485883081E+02 0.  0.
         13    1    3    3    0    0  0.15829988401E+03  0.19889528734E+03 -0.44113272252E+03  0.50913285838E+03  0.00000000000E+00 0.  1.
        -13    1    3    3    0    0  0.23865313603E+02  0.10984164192E+03 -0.14480760905E+03  0.18331389236E+03  0.00000000000E+00 0. -1.
         22    1    1    2    0    0 -0.18216519761E+03 -0.30873692926E+03  0.23429217879E+03  0.42824697985E+03  0.00000000000E+00 0. -1.
<mgrwt>
<rscale>  0 0.10640949E+04</rscale>
<asrwt>0</asrwt>
<pdfrwt beam="1">  1        2 0.59157353E-01 0.10640949E+04</pdfrwt>
<pdfrwt beam="2">  1       -2 0.11325707E+00 0.10640949E+04</pdfrwt>
<totfact> 0.50617810E+01</totfact>
</mgrwt>
</event>
<event>
 6    1  0.1072514E-005  0.6292626E+03  0.7818608E-02  0.9846489E-01
         -2   -1    0    0    0  501 -0.00000000000E+00  0.00000000000E+00  0.23018638022E+03  0.23018638022E+03  0.00000000000E+00 0. -1.
          2   -1    0    0  501    0  0.00000000000E+00 -0.00000000000E+00 -0.43005520683E+03  0.43005520683E+03  0.00000000000E+00 0.  1.
         23    2    1    2    0    0 -0.28587029815E+02 -0.19320019910E+03 -0.35197190623E+03  0.41269586999E+03  0.91050113300E+02 0.  0.
         11    1    3    3    0    0  0.31319390797E+02 -0.48906782218E+02 -0.11540606276E+03  0.12919495698E+03  0.00000000000E+00 0. -1.
        -11    1    3    3    0    0 -0.59906420612E+02 -0.14429341688E+03 -0.23656584346E+03  0.28350091301E+03  0.00000000000E+00 0.  1.
         22    1    1    2    0    0  0.28587029815E+02  0.19320019910E+03  0.15210307962E+03  0.24754571706E+03  0.00000000000E+00 0. -1.
<mgrwt>
<rscale>  0 0.62926259E+03</rscale>
<asrwt>0</asrwt>
<pdfrwt beam="1">  1        2 0.66162339E-01 0.62926259E+03</pdfrwt>
<pdfrwt beam="2">  1       -2 0.35413289E-01 0.62926259E+03</pdfrwt>
<totfact> 0.55251745E+02</totfact>
</mgrwt>
</event>
<event>
 6    1  0.1072514E-005  0.3945191E+04  0.7818608E-02  0.8015695E-01
         -1   -1    0    0    0  501 -0.00000000000E+00  0.00000000000E+00  0.15461213187E+04  0.15461213187E+04  0.00000000000E+00 0.  1.
          1   -1    0    0  501    0  0.00000000000E+00 -0.00000000000E+00 -0.25167066098E+04  0.25167066098E+04  0.00000000000E+00 0. -1.
         23    2    1    2    0    0  0.12459529993E+04  0.12099669970E+04  0.47529436841E+03  0.18029635521E+04  0.91399253578E+02 0.  0.
         11    1    3    3    0    0  0.75715784417E+03  0.75665669231E+03  0.33600836349E+03  0.11219264554E+04  0.00000000000E+00 0. -1.
        -11    1    3    3    0    0  0.48879515510E+03  0.45331030466E+03  0.13928600492E+03  0.68103709673E+03  0.00000000000E+00 0.  1.
         22    1    1    2    0    0 -0.12459529993E+04 -0.12099669970E+04 -0.14458796595E+04  0.22598643764E+04  0.00000000000E+00 0. -1.
<mgrwt>
<rscale>  0 0.39451914E+04</rscale>
<asrwt>0</asrwt>
<pdfrwt beam="1">  1        1 0.38718563E+00 0.39451914E+04</pdfrwt>
<pdfrwt beam="2">  1       -1 0.23786482E+00 0.39451914E+04</pdfrwt>
<totfact> 0.86833552E-02</totfact>
</mgrwt>
</event>
<event>
 6    1  0.1072514E-005  0.3208314E+04  0.7818608E-02  0.8186625E-01
          2   -1    0    0  501    0  0.00000000000E+00  0.00000000000E+00  0.17398959512E+04  0.17398959512E+04  0.00000000000E+00 0. -1.
         -2   -1    0    0    0  501 -0.00000000000E+00 -0.00000000000E+00 -0.14790075296E+04  0.14790075296E+04  0.00000000000E+00 0.  1.
         23    2    1    2    0    0 -0.90230672335E+03 -0.97688817699E+03 -0.76732190196E+03  0.15379262641E+04  0.89254463854E+02 0.  0.
         13    1    3    3    0    0 -0.38562209014E+03 -0.38826591201E+03 -0.36106787067E+03  0.65561026689E+03  0.00000000000E+00 0. -1.
        -13    1    3    3    0    0 -0.51668463322E+03 -0.58862226498E+03 -0.40625403130E+03  0.88231599724E+03  0.00000000000E+00 0.  1.
         22    1    1    2    0    0  0.90230672335E+03  0.97688817699E+03  0.10282103236E+04  0.16809772166E+04  0.00000000000E+00 0. -1.
<mgrwt>
<rscale>  0 0.32083137E+04</rscale>
<asrwt>0</asrwt>
<pdfrwt beam="1">  1        2 0.26767630E+00 0.32083137E+04</pdfrwt>
<pdfrwt beam="2">  1       -2 0.22753962E+00 0.32083137E+04</pdfrwt>
<totfact> 0.69470381E-01</totfact>
</mgrwt>
</event>
<event>
 6    1  0.1072514E-005  0.1789374E+04  0.7818608E-02  0.8711971E-01
          1   -1    0    0  501    0  0.00000000000E+00  0.00000000000E+00  0.22068822024E+04  0.22068822024E+04  0.00000000000E+00 0. -1.
         -1   -1    0    0    0  501 -0.00000000000E+00 -0.00000000000E+00 -0.36271293514E+03  0.36271293514E+03  0.00000000000E+00 0.  1.
         23    2    1    2    0    0  0.61852015476E+03  0.63088287210E+03  0.74372443742E+03  0.11583690027E+04  0.90068459731E+02 0.  0.
         11    1    3    3    0    0  0.17623262163E+03  0.12553003564E+03  0.17217842907E+03  0.27651607225E+03  0.00000000000E+00 0.  1.
        -11    1    3    3    0    0  0.44228753313E+03  0.50535283646E+03  0.57154600835E+03  0.88185293045E+03  0.00000000000E+00 0. -1.
         22    1    1    2    0    0 -0.61852015476E+03 -0.63088287210E+03  0.11004448299E+04  0.14112261349E+04  0.00000000000E+00 0. -1.
<mgrwt>
<rscale>  0 0.17893739E+04</rscale>
<asrwt>0</asrwt>
<pdfrwt beam="1">  1        1 0.33952033E+00 0.17893739E+04</pdfrwt>
<pdfrwt beam="2">  1       -1 0.55801991E-01 0.17893739E+04</pdfrwt>
<totfact> 0.66144129E+00</totfact>
</mgrwt>
</event>
<event>
 6    1  0.1072514E-005  0.5116200E+03  0.7818608E-02  0.1010790E+00
          2   -1    0    0  501    0  0.00000000000E+00  0.00000000000E+00  0.12544447110E+04  0.12544447110E+04  0.00000000000E+00 0. -1.
         -2   -1    0    0    0  501 -0.00000000000E+00 -0.00000000000E+00 -0.52165517475E+02  0.52165517475E+02  0.00000000000E+00 0.  1.
         23    2    1    2    0    0 -0.74178030770E+02  0.15181880689E+03  0.10824466385E+04  0.10994601099E+04  0.92576874472E+02 0.  0.
         13    1    3    3    0    0 -0.19264456839E+02  0.12269835474E+03  0.84192106329E+03  0.85103295023E+03  0.00000000000E+00 0. -1.
        -13    1    3    3    0    0 -0.54913573931E+02  0.29120452150E+02  0.24052557521E+03  0.24842715968E+03  0.00000000000E+00 0.  1.
         22    1    1    2    0    0  0.74178030770E+02 -0.15181880689E+03  0.11983255498E+03  0.20715011853E+03  0.00000000000E+00 0.  1.
<mgrwt>
<rscale>  0 0.51162001E+03</rscale>
<asrwt>0</asrwt>
<pdfrwt beam="1">  1        2 0.19299147E+00 0.51162001E+03</pdfrwt>
<pdfrwt beam="2">  1       -2 0.80254651E-02 0.51162001E+03</pdfrwt>
<totfact> 0.17429928E+03</totfact>
</mgrwt>
</event>
<event>
 6    1  0.1072514E-005  0.2607857E+04  0.7818608E-02  0.8365537E-01
         -2   -1    0    0    0  501 -0.00000000000E+00  0.00000000000E+00  0.66605660656E+03  0.66605660656E+03  0.00000000000E+00 0.  1.
          2   -1    0    0  501    0  0.00000000000E+00 -0.00000000000E+00 -0.25526803771E+04  0.25526803771E+04  0.00000000000E+00 0. -1.
         23    2    1    2    0    0  0.76455911098E+03 -0.22906445023E+03 -0.22146300221E+04  0.23558295393E+04  0.91244324720E+02 0.  0.
         13    1    3    3    0    0  0.22252757260E+03 -0.93446791375E+02 -0.76872157287E+03  0.80571935560E+03  0.00000000000E+00 0. -1.
        -13    1    3    3    0    0  0.54203153838E+03 -0.13561765886E+03 -0.14459084492E+04  0.15501101837E+04  0.00000000000E+00 0.  1.
         22    1    1    2    0    0 -0.76455911098E+03  0.22906445023E+03  0.32800625155E+03  0.86290744440E+03  0.00000000000E+00 0.  1.
<mgrwt>
<rscale>  0 0.26078571E+04</rscale>
<asrwt>0</asrwt>
<pdfrwt beam="1">  1        2 0.39272005E+00 0.26078571E+04</pdfrwt>
<pdfrwt beam="2">  1       -2 0.10247025E+00 0.26078571E+04</pdfrwt>
<totfact> 0.22342137E+00</totfact>
</mgrwt>
</event>
<event>
 6    1  0.1072514E-005  0.8808862E+03  0.7818608E-02  0.9449795E-01
          2   -1    0    0  501    0  0.00000000000E+00  0.00000000000E+00  0.65840651916E+03  0.65840651916E+03  0.00000000000E+00 0.  1.
         -2   -1    0    0    0  501 -0.00000000000E+00 -0.00000000000E+00 -0.29463576015E+03  0.29463576015E+03  0.00000000000E+00 0. -1.
         23    2    1    2    0    0 -0.36121801215E+03 -0.23926345928E+03  0.23801694902E+03  0.50188878440E+03  0.86688111286E+02 0.  0.
         11    1    3    3    0    0 -0.11970956678E+03 -0.40766711706E+02  0.43671592966E+02  0.13378906231E+03  0.00000000000E+00 0. -1.
        -11    1    3    3    0    0 -0.24150844537E+03 -0.19849674758E+03  0.19434535606E+03  0.36809972209E+03  0.00000000000E+00 0.  1.
         22    1    1    2    0    0  0.36121801215E+03  0.23926345928E+03  0.12575380998E+03  0.45115349491E+03  0.00000000000E+00 0.  1.
<mgrwt>
<rscale>  0 0.88088616E+03</rscale>
<asrwt>0</asrwt>
<pdfrwt beam="1">  1        2 0.10129331E+00 0.88088616E+03</pdfrwt>
<pdfrwt beam="2">  1       -2 0.45328579E-01 0.88088616E+03</pdfrwt>
<totfact> 0.20499096E+02</totfact>
</mgrwt>
</event>
<event>
 6    1  0.1072514E-005  0.4684567E+04  0.7818608E-02  0.7879098E-01
          2   -1    0    0  501    0  0.00000000000E+00  0.00000000000E+00  0.26056328522E+04  0.26056328522E+04  0.00000000000E+00 0. -1.
         -2   -1    0    0    0  501 -0.00000000000E+00 -0.00000000000E+00 -0.21055510462E+04  0.21055510462E+04  0.00000000000E+00 0.  1.
         23    2    1    2    0    0 -0.13627263007E+04  0.10783006710E+03 -0.16614782696E+04  0.21536475341E+04  0.95065066101E+02 0.  0.
         11    1    3    3    0    0 -0.85020440017E+03  0.41185915954E+02 -0.97330513210E+03  0.12930068375E+04  0.00000000000E+00 0. -1.
        -11    1    3    3    0    0 -0.51252190051E+03  0.66644151145E+02 -0.68817313752E+03  0.86064069657E+03  0.00000000000E+00 0.  1.
         22    1    1    2    0    0  0.13627263007E+04 -0.10783006710E+03  0.21615600756E+04  0.25575363642E+04  0.00000000000E+00 0. -1.
<mgrwt>
<rscale>  0 0.46845674E+04</rscale>
<asrwt>0</asrwt>
<pdfrwt beam="1">  1        2 0.40086659E+00 0.46845674E+04</pdfrwt>
<pdfrwt beam="2">  1       -2 0.32393093E+00 0.46845674E+04</pdfrwt>
<totfact> 0.51040258E-02</totfact>
</mgrwt>
</event>
<event>
 6    1  0.1072514E-005  0.3290312E+04  0.7818608E-02  0.8165365E-01
          2   -1    0    0  501    0  0.00000000000E+00  0.00000000000E+00  0.22343100115E+04  0.22343100115E+04  0.00000000000E+00 0. -1.
         -2   -1    0    0    0  501 -0.00000000000E+00 -0.00000000000E+00 -0.12113532738E+04  0.12113532738E+04  0.00000000000E+00 0.  1.
         23    2    1    2    0    0  0.14601975201E+04 -0.26938385463E+03  0.12506448701E+04  0.19434694414E+04  0.90644468963E+02 0.  0.
         13    1    3    3    0    0  0.76767396650E+03 -0.14098678235E+03  0.71641633066E+03  0.10594588007E+04  0.00000000000E+00 0. -1.
        -13    1    3    3    0    0  0.69252355361E+03 -0.12839707228E+03  0.53422853945E+03  0.88401064068E+03  0.00000000000E+00 0.  1.
         22    1    1    2    0    0 -0.14601975201E+04  0.26938385463E+03 -0.22768813242E+03  0.15021938439E+04  0.00000000000E+00 0.  1.
<mgrwt>
<rscale>  0 0.32903123E+04</rscale>
<asrwt>0</asrwt>
<pdfrwt beam="1">  1        2 0.34374000E+00 0.32903123E+04</pdfrwt>
<pdfrwt beam="2">  1       -2 0.18636204E+00 0.32903123E+04</pdfrwt>
<totfact> 0.67710384E-01</totfact>
</mgrwt>
</event>
<event>
 6    1  0.1072514E-005  0.4868995E+04  0.7818608E-02  0.7849040E-01
         -2   -1    0    0    0  501 -0.00000000000E+00  0.00000000000E+00  0.38009112809E+04  0.38009112809E+04  0.00000000000E+00 0.  1.
          2   -1    0    0  501    0  0.00000000000E+00 -0.00000000000E+00 -0.15593045071E+04  0.15593045071E+04  0.00000000000E+00 0. -1.
         23    2    1    2    0    0  0.47793925621E+03 -0.19606790357E+04 -0.37622486282E+03  0.20548064804E+04  0.89422093492E+02 0.  0.
         13    1    3    3    0    0  0.42618962068E+03 -0.17768591377E+04 -0.36611617763E+03  0.18635737290E+04  0.00000000000E+00 0.  1.
        -13    1    3    3    0    0  0.51749635529E+02 -0.18381989802E+03 -0.10108685187E+02  0.19123275139E+03  0.00000000000E+00 0. -1.
         22    1    1    2    0    0 -0.47793925621E+03  0.19606790357E+04  0.26178316366E+04  0.33054093076E+04  0.00000000000E+00 0.  1.
<mgrwt>
<rscale>  0 0.48689950E+04</rscale>
<asrwt>0</asrwt>
<pdfrwt beam="1">  1        2 0.23989300E+00 0.48689950E+04</pdfrwt>
<pdfrwt beam="2">  1       -2 0.58475558E+00 0.48689950E+04</pdfrwt>
<totfact> 0.51147017E-03</totfact>
</mgrwt>
</event>
<event>
 6    1  0.1072514E-005  0.3262522E+04  0.7818608E-02  0.8172498E-01
         -1   -1    0    0    0  501 -0.00000000000E+00  0.00000000000E+00  0.95899807180E+03  0.95899807180E+03  0.00000000000E+00 0.  1.
          1   -1    0    0  501    0  0.00000000000E+00 -0.00000000000E+00 -0.27747831319E+04  0.27747831319E+04  0.00000000000E+00 0. -1.
         23    2    1    2    0    0  0.29550925329E+03 -0.36675837462E+03  0.87661264106E+03  0.10004969511E+04  0.10347464734E+03 0.  0.
         11    1    3    3    0    0  0.19575061393E+03 -0.22685322391E+03  0.45052506456E+03  0.54106702159E+03  0.00000000000E+00 0.  1.
        -11    1    3    3    0    0  0.99758639360E+02 -0.13990515071E+03  0.42608757650E+03  0.45942992955E+03  0.00000000000E+00 0. -1.
         22    1    1    2    0    0 -0.29550925329E+03  0.36675837462E+03 -0.26923977011E+04  0.27332842525E+04  0.00000000000E+00 0. -1.
<mgrwt>
<rscale>  0 0.32625215E+04</rscale>
<asrwt>0</asrwt>
<pdfrwt beam="1">  1        1 0.42688972E+00 0.32625215E+04</pdfrwt>
<pdfrwt beam="2">  1       -1 0.14753816E+00 0.32625215E+04</pdfrwt>
<totfact> 0.26353782E-01</totfact>
</mgrwt>
</event>
<event>
 6    1  0.1072514E-005  0.9681761E+03  0.7818608E-02  0.9344154E-01
          2   -1    0    0  501    0  0.00000000000E+00  0.00000000000E+00  0.43915751040E+03  0.43915751040E+03  0.00000000000E+00 0. -1.
         -2   -1    0    0    0  501 -0.00000000000E+00 -0.00000000000E+00 -0.53361544079E+03  0.53361544079E+03  0.00000000000E+00 0.  1.
         23    2    1    2    0    0 -0.70025128216E+02 -0.31557605173E+03  0.30883630602E+03  0.45591900264E+03  0.89389652891E+02 0.  0.
         11    1    3    3    0    0  0.19591978975E+02 -0.73519039953E+02  0.54823338093E+02  0.93778959663E+02  0.00000000000E+00 0. -1.
        -11    1    3    3    0    0 -0.89617107191E+02 -0.24205701178E+03  0.25401296793E+03  0.36214004298E+03  0.00000000000E+00 0.  1.
         22    1    1    2    0    0  0.70025128216E+02  0.31557605173E+03 -0.40329423641E+03  0.51685394855E+03  0.00000000000E+00 0.  1.
<mgrwt>
<rscale>  0 0.96817608E+03</rscale>
<asrwt>0</asrwt>
<pdfrwt beam="1">  1        2 0.67562694E-01 0.96817608E+03</pdfrwt>
<pdfrwt beam="2">  1       -2 0.82094683E-01 0.96817608E+03</pdfrwt>
<totfact> 0.93320411E+01</totfact>
</mgrwt>
</event>
<event>
 6    1  0.1072514E-005  0.1724295E+04  0.7818608E-02  0.8747628E-01
         -2   -1    0    0    0  501 -0.00000000000E+00  0.00000000000E+00  0.78870229628E+03  0.78870229628E+03  0.00000000000E+00 0.  1.
          2   -1    0    0  501    0  0.00000000000E+00 -0.00000000000E+00 -0.94243166917E+03  0.94243166917E+03  0.00000000000E+00 0. -1.
         23    2    1    2    0    0 -0.83936091895E+03 -0.17029387118E+03 -0.11220243905E+01  0.86118238194E+03  0.90039331456E+02 0.  0.
         11    1    3    3    0    0 -0.55799166762E+03 -0.15366296901E+03  0.13793406765E+02  0.57892768740E+03  0.00000000000E+00 0. -1.
        -11    1    3    3    0    0 -0.28136925133E+03 -0.16630902177E+02 -0.14915431155E+02  0.28225469454E+03  0.00000000000E+00 0.  1.
         22    1    1    2    0    0  0.83936091895E+03  0.17029387118E+03 -0.15260734850E+03  0.86995158350E+03  0.00000000000E+00 0.  1.
<mgrwt>
<rscale>  0 0.17242947E+04</rscale>
<asrwt>0</asrwt>
<pdfrwt beam="1">  1        2 0.14498949E+00 0.17242947E+04</pdfrwt>
<pdfrwt beam="2">  1       -2 0.12133882E+00 0.17242947E+04</pdfrwt>
<totfact> 0.13473303E+01</totfact>
</mgrwt>
</event>
<event>
 6    1  0.1072514E-005  0.3209214E+04  0.7818608E-02  0.8186388E-01
         -1   -1    0    0    0  501 -0.00000000000E+00  0.00000000000E+00  0.14499023831E+04  0.14499023831E+04  0.00000000000E+00 0.  1.
          1   -1    0    0  501    0  0.00000000000E+00 -0.00000000000E+00 -0.17758182283E+04  0.17758182283E+04  0.00000000000E+00 0. -1.
         23    2    1    2    0    0  0.13459480049E+04  0.67867202252E+03 -0.71148456846E+03  0.16698173412E+04  0.99538512910E+02 0.  0.
         13    1    3    3    0    0  0.47239090345E+03  0.19863249169E+03 -0.20730662138E+03  0.55279658798E+03  0.00000000000E+00 0. -1.
        -13    1    3    3    0    0  0.87355710149E+03  0.48003953083E+03 -0.50417794708E+03  0.11170207532E+04  0.00000000000E+00 0.  1.
         22    1    1    2    0    0 -0.13459480049E+04 -0.67867202252E+03  0.38556872327E+03  0.15559032703E+04  0.00000000000E+00 0.  1.
<mgrwt>
<rscale>  0 0.32092137E+04</rscale>
<asrwt>0</asrwt>
<pdfrwt beam="1">  1        1 0.27320280E+00 0.32092137E+04</pdfrwt>
<pdfrwt beam="2">  1       -1 0.22306191E+00 0.32092137E+04</pdfrwt>
<totfact> 0.37137181E-01</totfact>
</mgrwt>
</event>
<event>
 6    1  0.1072514E-005  0.1253166E+04  0.7818608E-02  0.9067553E-01
         -2   -1    0    0    0  501 -0.00000000000E+00  0.00000000000E+00  0.97348899007E+03  0.97348899007E+03  0.00000000000E+00 0. -1.
          2   -1    0    0  501    0  0.00000000000E+00 -0.00000000000E+00 -0.40329781189E+03  0.40329781189E+03  0.00000000000E+00 0.  1.
         23    2    1    2    0    0  0.46987622291E+03 -0.33512720068E+02 -0.16204226130E+03  0.50611316784E+03  0.89364853009E+02 0.  0.
         13    1    3    3    0    0  0.34886578275E+03  0.13115710999E+02 -0.10610463381E+03  0.36488018522E+03  0.00000000000E+00 0. -1.
        -13    1    3    3    0    0  0.12101044016E+03 -0.46628431067E+02 -0.55937627493E+02  0.14123298262E+03  0.00000000000E+00 0.  1.
         22    1    1    2    0    0 -0.46987622291E+03  0.33512720068E+02  0.73223343947E+03  0.87067363412E+03  0.00000000000E+00 0. -1.
<mgrwt>
<rscale>  0 0.12531656E+04</rscale>
<asrwt>0</asrwt>
<pdfrwt beam="1">  1        2 0.62045818E-01 0.12531656E+04</pdfrwt>
<pdfrwt beam="2">  1       -2 0.14976754E+00 0.12531656E+04</pdfrwt>
<totfact> 0.23282486E+01</totfact>
</mgrwt>
</event>
<event>
 6    1  0.1072514E-005  0.1237064E+04  0.7818608E-02  0.9081019E-01
          2   -1    0    0  501    0  0.00000000000E+00  0.00000000000E+00  0.10281535648E+04  0.10281535648E+04  0.00000000000E+00 0. -1.
         -2   -1    0    0    0  501 -0.00000000000E+00 -0.00000000000E+00 -0.37210580740E+03  0.37210580740E+03  0.00000000000E+00 0.  1.
         23    2    1    2    0    0  0.54928158345E+03 -0.11962874680E+03  0.48225096500E+02  0.57232840764E+03  0.95983599025E+02 0.  0.
         13    1    3    3    0    0  0.92467505660E+02 -0.58232556062E+02  0.13368927880E+02  0.11009086439E+03  0.00000000000E+00 0. -1.
        -13    1    3    3    0    0  0.45681407779E+03 -0.61396190743E+02  0.34856168620E+02  0.46223754325E+03  0.00000000000E+00 0.  1.
         22    1    1    2    0    0 -0.54928158345E+03  0.11962874680E+03  0.60782266087E+03  0.82793096454E+03  0.00000000000E+00 0. -1.
<mgrwt>
<rscale>  0 0.12370641E+04</rscale>
<asrwt>0</asrwt>
<pdfrwt beam="1">  1        2 0.15817747E+00 0.12370641E+04</pdfrwt>
<pdfrwt beam="2">  1       -2 0.57247048E-01 0.12370641E+04</pdfrwt>
<totfact> 0.68019253E+01</totfact>
</mgrwt>
</event>
<event>
 6    1  0.1072514E-005  0.4353966E+04  0.7818608E-02  0.7936714E-01
          2   -1    0    0  501    0  0.00000000000E+00  0.00000000000E+00  0.23204135516E+04  0.23204135516E+04  0.00000000000E+00 0. -1.
         -2   -1    0    0    0  501 -0.00000000000E+00 -0.00000000000E+00 -0.20424178598E+04  0.20424178598E+04  0.00000000000E+00 0.  1.
         23    2    1    2    0    0  0.36346054799E+03  0.14625404985E+04  0.17119625732E+04  0.22825936132E+04  0.91046535561E+02 0.  0.
         13    1    3    3    0    0  0.29106923520E+03  0.10019098403E+04  0.11679363555E+04  0.15660842756E+04  0.00000000000E+00 0.  1.
        -13    1    3    3    0    0  0.72391312795E+02  0.46063065821E+03  0.54402621762E+03  0.71650933763E+03  0.00000000000E+00 0. -1.
         22    1    1    2    0    0 -0.36346054799E+03 -0.14625404985E+04 -0.14339668814E+04  0.20802377981E+04  0.00000000000E+00 0.  1.
<mgrwt>
<rscale>  0 0.43539656E+04</rscale>
<asrwt>0</asrwt>
<pdfrwt beam="1">  1        2 0.35698670E+00 0.43539656E+04</pdfrwt>
<pdfrwt beam="2">  1       -2 0.31421813E+00 0.43539656E+04</pdfrwt>
<totfact> 0.87970806E-02</totfact>
</mgrwt>
</event>
<event>
 6    1  0.1072514E-005  0.2403249E+04  0.7818608E-02  0.8438288E-01
         -2   -1    0    0    0  501 -0.00000000000E+00  0.00000000000E+00  0.11847498244E+04  0.11847498244E+04  0.00000000000E+00 0.  1.
          2   -1    0    0  501    0  0.00000000000E+00 -0.00000000000E+00 -0.12187397875E+04  0.12187397875E+04  0.00000000000E+00 0. -1.
         23    2    1    2    0    0  0.10547056178E+04  0.44418768775E+02 -0.58757820528E+03  0.12115009756E+04  0.90052758297E+02 0.  0.
         13    1    3    3    0    0  0.29626122219E+03  0.27712977371E+02 -0.20928968833E+03  0.36378688065E+03  0.00000000000E+00 0. -1.
        -13    1    3    3    0    0  0.75844439559E+03  0.16705791404E+02 -0.37828851695E+03  0.84771409492E+03  0.00000000000E+00 0.  1.
         22    1    1    2    0    0 -0.10547056178E+04 -0.44418768775E+02  0.55358824216E+03  0.11919886363E+04  0.00000000000E+00 0.  1.
<mgrwt>
<rscale>  0 0.24032493E+04</rscale>
<asrwt>0</asrwt>
<pdfrwt beam="1">  1        2 0.18749843E+00 0.24032493E+04</pdfrwt>
<pdfrwt beam="2">  1       -2 0.18226920E+00 0.24032493E+04</pdfrwt>
<totfact> 0.29026693E+00</totfact>
</mgrwt>
</event>
<event>
 6    1  0.1072514E-005  0.9285502E+03  0.7818608E-02  0.9390580E-01
         -2   -1    0    0    0  501 -0.00000000000E+00  0.00000000000E+00  0.15183493865E+03  0.15183493865E+03  0.00000000000E+00 0.  1.
          2   -1    0    0  501    0  0.00000000000E+00 -0.00000000000E+00 -0.14196427741E+04  0.14196427741E+04  0.00000000000E+00 0. -1.
         23    2    1    2    0    0  0.41258738677E+03  0.77321236518E+02 -0.32170484779E+03  0.53643288831E+03  0.89773655574E+02 0.  0.
         13    1    3    3    0    0  0.11457718097E+03 -0.16838843399E+02 -0.10291596780E+03  0.15492957586E+03  0.00000000000E+00 0. -1.
        -13    1    3    3    0    0  0.29801020580E+03  0.94160079917E+02 -0.21878887999E+03  0.38150331246E+03  0.00000000000E+00 0.  1.
         22    1    1    2    0    0 -0.41258738677E+03 -0.77321236518E+02 -0.94610298769E+03  0.10350448245E+04  0.00000000000E+00 0.  1.
<mgrwt>
<rscale>  0 0.92855021E+03</rscale>
<asrwt>0</asrwt>
<pdfrwt beam="1">  1        2 0.21840658E+00 0.92855021E+03</pdfrwt>
<pdfrwt beam="2">  1       -2 0.23359221E-01 0.92855021E+03</pdfrwt>
<totfact> 0.22884806E+02</totfact>
</mgrwt>
</event>
<event>
 6    1  0.1072514E-005  0.2689032E+04  0.7818608E-02  0.8338572E-01
          1   -1    0    0  501    0  0.00000000000E+00  0.00000000000E+00  0.19674474844E+04  0.19674474844E+04  0.00000000000E+00 0. -1.
         -1   -1    0    0    0  501 -0.00000000000E+00 -0.00000000000E+00 -0.91881651007E+03  0.91881651007E+03  0.00000000000E+00 0.  1.
         23    2    1    2    0    0  0.17494551791E+03  0.12567247218E+04  0.99293100902E+03  0.16161988597E+04  0.12737270048E+03 0.  0.
         11    1    3    3    0    0  0.13029348187E+03  0.74512271889E+03  0.66250997887E+03  0.10055365382E+04  0.00000000000E+00 0. -1.
        -11    1    3    3    0    0  0.44652036044E+02  0.51160200288E+03  0.33042103015E+03  0.61066232145E+03  0.00000000000E+00 0.  1.
         22    1    1    2    0    0 -0.17494551791E+03 -0.12567247218E+04  0.55699965354E+02  0.12700651348E+04  0.00000000000E+00 0.  1.
<mgrwt>
<rscale>  0 0.26890320E+04</rscale>
<asrwt>0</asrwt>
<pdfrwt beam="1">  1        1 0.30268423E+00 0.26890320E+04</pdfrwt>
<pdfrwt beam="2">  1       -1 0.14135639E+00 0.26890320E+04</pdfrwt>
<totfact> 0.11198224E+00</totfact>
</mgrwt>
</event>
<event>
 6    1  0.1072514E-005  0.6412541E+04  0.7818608E-02  0.7641255E-01
         -2   -1    0    0    0  501 -0.00000000000E+00  0.00000000000E+00  0.33633731120E+04  0.33633731120E+04  0.00000000000E+00 0.  1.
          2   -1    0    0  501    0  0.00000000000E+00 -0.00000000000E+00 -0.30565063640E+04  0.30565063640E+04  0.00000000000E+00 0. -1.
         23    2    1    2    0    0 -0.24773145641E+04 -0.20220278941E+04  0.37772413178E+03  0.32213321460E+04  0.92849451485E+02 0.  0.
         11    1    3    3    0    0 -0.81233002567E+03 -0.71963721923E+03  0.12500873844E+03  0.10924216139E+04  0.00000000000E+00 0. -1.
        -11    1    3    3    0    0 -0.16649845385E+04 -0.13023906749E+04  0.25271539334E+03  0.21289105320E+04  0.00000000000E+00 0.  1.
         22    1    1    2    0    0  0.24773145641E+04  0.20220278941E+04 -0.70857383768E+02  0.31985473301E+04  0.00000000000E+00 0. -1.
<mgrwt>
<rscale>  0 0.64125413E+04</rscale>
<asrwt>0</asrwt>
<pdfrwt beam="1">  1        2 0.47023175E+00 0.64125413E+04</pdfrwt>
<pdfrwt beam="2">  1       -2 0.51744202E+00 0.64125413E+04</pdfrwt>
<totfact> 0.13737211E-03</totfact>
</mgrwt>
</event>
<event>
 6    1  0.1072514E-005  0.2561638E+04  0.7818608E-02  0.8381350E-01
          1   -1    0    0  501    0  0.00000000000E+00  0.00000000000E+00  0.10884011237E+04  0.10884011237E+04  0.00000000000E+00 0. -1.
         -1   -1    0    0    0  501 -0.00000000000E+00 -0.00000000000E+00 -0.15072544560E+04  0.15072544560E+04  0.00000000000E+00 0.  1.
         23    2    1    2    0    0  0.65469902737E+03  0.10786976487E+04  0.32726248932E+01  0.12650881229E+04  0.90652164264E+02 0.  0.
         11    1    3    3    0    0  0.29225015942E+03  0.45613846481E+03 -0.41490306792E+02  0.54331749495E+03  0.00000000000E+00 0.  1.
        -11    1    3    3    0    0  0.36244886796E+03  0.62255918385E+03  0.44762931685E+02  0.72177062792E+03  0.00000000000E+00 0. -1.
         22    1    1    2    0    0 -0.65469902737E+03 -0.10786976487E+04 -0.42212595720E+03  0.13305674569E+04  0.00000000000E+00 0.  1.
<mgrwt>
<rscale>  0 0.25616381E+04</rscale>
<asrwt>0</asrwt>
<pdfrwt beam="1">  1        1 0.16744633E+00 0.25616381E+04</pdfrwt>
<pdfrwt beam="2">  1       -1 0.23188530E+00 0.25616381E+04</pdfrwt>
<totfact> 0.10484629E+00</totfact>
</mgrwt>
</event>
<event>
 6    1  0.1072514E-005  0.3700918E+04  0.7818608E-02  0.8067758E-01
          2   -1    0    0  501    0  0.00000000000E+00  0.00000000000E+00  0.23293045463E+04  0.23293045463E+04  0.00000000000E+00 0. -1.
         -2   -1    0    0    0  501 -0.00000000000E+00 -0.00000000000E+00 -0.14700518868E+04  0.14700518868E+04  0.00000000000E+00 0.  1.
         23    2    1    2    0    0  0.18100884853E+04 -0.16720993167E+02  0.81899739567E+03  0.19887431661E+04  0.87422711796E+02 0.  0.
         11    1    3    3    0    0  0.12868797654E+04  0.19788631065E+02  0.60789788602E+03  0.14233730925E+04  0.00000000000E+00 0. -1.
        -11    1    3    3    0    0  0.52320871987E+03 -0.36509624231E+02  0.21109950965E+03  0.56537007365E+03  0.00000000000E+00 0.  1.
         22    1    1    2    0    0 -0.18100884853E+04  0.16720993167E+02  0.40255263873E+02  0.18106132669E+04  0.00000000000E+00 0. -1.
<mgrwt>
<rscale>  0 0.37009180E+04</rscale>
<asrwt>0</asrwt>
<pdfrwt beam="1">  1        2 0.35835455E+00 0.37009180E+04</pdfrwt>
<pdfrwt beam="2">  1       -2 0.22616183E+00 0.37009180E+04</pdfrwt>
<totfact> 0.31872520E-01</totfact>
</mgrwt>
</event>
<event>
 6    1  0.1072514E-005  0.3904215E+04  0.7818608E-02  0.8024153E-01
         -1   -1    0    0    0  501 -0.00000000000E+00  0.00000000000E+00  0.10882923453E+04  0.10882923453E+04  0.00000000000E+00 0.  1.
          1   -1    0    0  501    0  0.00000000000E+00 -0.00000000000E+00 -0.35015616284E+04  0.35015616284E+04  0.00000000000E+00 0. -1.
         23    2    1    2    0    0 -0.18842351064E+04  0.40087874824E+03 -0.15707355561E+04  0.24872582475E+04  0.90541127232E+02 0.  0.
         11    1    3    3    0    0 -0.31253302362E+03  0.84105364418E+02 -0.22707525901E+03  0.39536537080E+03  0.00000000000E+00 0.  1.
        -11    1    3    3    0    0 -0.15717020828E+04  0.31677338382E+03 -0.13436602971E+04  0.20918928767E+04  0.00000000000E+00 0. -1.
         22    1    1    2    0    0  0.18842351064E+04 -0.40087874824E+03 -0.84253372697E+03  0.21025957262E+04  0.00000000000E+00 0.  1.
<mgrwt>
<rscale>  0 0.39042145E+04</rscale>
<asrwt>0</asrwt>
<pdfrwt beam="1">  1        1 0.53870179E+00 0.39042145E+04</pdfrwt>
<pdfrwt beam="2">  1       -1 0.16742959E+00 0.39042145E+04</pdfrwt>
<totfact> 0.50445552E-02</totfact>
</mgrwt>
</event>
<event>
 6    1  0.1072514E-005  0.1500333E+04  0.7818608E-02  0.8884232E-01
          1   -1    0    0  501    0  0.00000000000E+00  0.00000000000E+00  0.24186193262E+04  0.24186193262E+04  0.00000000000E+00 0. -1.
         -1   -1    0    0    0  501 -0.00000000000E+00 -0.00000000000E+00 -0.23267387993E+03  0.23267387993E+03  0.00000000000E+00 0.  1.
         23    2    1    2    0    0  0.71564088443E+02 -0.67809129546E+03  0.16379628962E+04  0.17765280382E+04  0.90554943404E+02 0.  0.
         13    1    3    3    0    0 -0.19207408676E+02 -0.12191017613E+03  0.26090214009E+03  0.28861902622E+03  0.00000000000E+00 0.  1.
        -13    1    3    3    0    0  0.90771497119E+02 -0.55618111933E+03  0.13770607561E+04  0.14879090120E+04  0.00000000000E+00 0. -1.
         22    1    1    2    0    0 -0.71564088443E+02  0.67809129546E+03  0.54798255014E+03  0.87476516791E+03  0.00000000000E+00 0.  1.
<mgrwt>
<rscale>  0 0.15003327E+04</rscale>
<asrwt>0</asrwt>
<pdfrwt beam="1">  1        1 0.37209526E+00 0.15003327E+04</pdfrwt>
<pdfrwt beam="2">  1       -1 0.35795983E-01 0.15003327E+04</pdfrwt>
<totfact> 0.11143409E+01</totfact>
</mgrwt>
</event>
<event>
 6    1  0.1072514E-005  0.2375661E+04  0.7818608E-02  0.8448672E-01
          2   -1    0    0  501    0  0.00000000000E+00  0.00000000000E+00  0.30138771513E+04  0.30138771513E+04  0.00000000000E+00 0. -1.
         -2   -1    0    0    0  501 -0.00000000000E+00 -0.00000000000E+00 -0.46814820770E+03  0.46814820770E+03  0.00000000000E+00 0.  1.
         23    2    1    2    0    0  0.42909218693E+03  0.63792222682E+03 -0.52125261131E+02  0.77279828447E+03  0.58611204373E+02 0.  0.
         13    1    3    3    0    0  0.22269822414E+03  0.27944019300E+03 -0.29017914515E+02  0.35850154792E+03  0.00000000000E+00 0. -1.
        -13    1    3    3    0    0  0.20639396279E+03  0.35848203382E+03 -0.23107346617E+02  0.41429673655E+03  0.00000000000E+00 0.  1.
         22    1    1    2    0    0 -0.42909218693E+03 -0.63792222682E+03  0.25978542048E+04  0.27092270746E+04  0.00000000000E+00 0. -1.
<mgrwt>
<rscale>  0 0.23756609E+04</rscale>
<asrwt>0</asrwt>
<pdfrwt beam="1">  1        2 0.46367340E+00 0.23756609E+04</pdfrwt>
<pdfrwt beam="2">  1       -2 0.72022803E-01 0.23756609E+04</pdfrwt>
<totfact> 0.26867706E+00</totfact>
</mgrwt>
</event>
<event>
 6    1  0.1521318E-005  0.2823268E+04  0.7818608E-02  0.8296081E-01
         -2   -1    0    0    0  501 -0.00000000000E+00  0.00000000000E+00  0.16205528184E+04  0.16205528184E+04  0.00000000000E+00 0.  1.
          2   -1    0    0  501    0  0.00000000000E+00 -0.00000000000E+00 -0.12296487158E+04  0.12296487158E+04  0.00000000000E+00 0. -1.
         23    2    1    2    0    0 -0.35485731931E+03 -0.33316581894E+03 -0.11404305816E+04  0.12433695284E+04  0.91992895383E+02 0.  0.
         11    1    3    3    0    0 -0.20753919757E+03 -0.17704880550E+03 -0.52615408357E+03  0.59266931565E+03  0.00000000000E+00 0. -1.
        -11    1    3    3    0    0 -0.14731812174E+03 -0.15611701344E+03 -0.61427649801E+03  0.65070021276E+03  0.00000000000E+00 0.  1.
         22    1    1    2    0    0  0.35485731931E+03  0.33316581894E+03  0.15313346842E+04  0.16068320059E+04  0.00000000000E+00 0.  1.
<mgrwt>
<rscale>  0 0.28232681E+04</rscale>
<asrwt>0</asrwt>
<pdfrwt beam="1">  1        2 0.18917673E+00 0.28232681E+04</pdfrwt>
<pdfrwt beam="2">  1       -2 0.24931582E+00 0.28232681E+04</pdfrwt>
<totfact> 0.10248367E+00</totfact>
</mgrwt>
</event>
<event>
 6    1  0.1072514E-005  0.1501664E+04  0.7818608E-02  0.8883347E-01
          1   -1    0    0  501    0  0.00000000000E+00  0.00000000000E+00  0.43946804876E+03  0.43946804876E+03  0.00000000000E+00 0. -1.
         -1   -1    0    0    0  501 -0.00000000000E+00 -0.00000000000E+00 -0.12827981329E+04  0.12827981329E+04  0.00000000000E+00 0.  1.
         23    2    1    2    0    0  0.16553891990E+03  0.72029980477E+03 -0.29070523397E+03  0.79942861863E+03  0.91332581650E+02 0.  0.
         13    1    3    3    0    0  0.10348927432E+03  0.48708956201E+03 -0.24023974798E+03  0.55288462433E+03  0.00000000000E+00 0.  1.
        -13    1    3    3    0    0  0.62049645582E+02  0.23321024276E+03 -0.50465485988E+02  0.24654399430E+03  0.00000000000E+00 0. -1.
         22    1    1    2    0    0 -0.16553891990E+03 -0.72029980477E+03 -0.55262485021E+03  0.92283756308E+03  0.00000000000E+00 0.  1.
<mgrwt>
<rscale>  0 0.15016641E+04</rscale>
<asrwt>0</asrwt>
<pdfrwt beam="1">  1        1 0.67610470E-01 0.15016641E+04</pdfrwt>
<pdfrwt beam="2">  1       -1 0.19735355E+00 0.15016641E+04</pdfrwt>
<totfact> 0.80270619E+00</totfact>
</mgrwt>
</event>
<event>
 6    1  0.1072514E-005  0.1127833E+04  0.7818608E-02  0.9178481E-01
         -1   -1    0    0    0  501 -0.00000000000E+00  0.00000000000E+00  0.27510352152E+03  0.27510352152E+03  0.00000000000E+00 0.  1.
          1   -1    0    0  501    0  0.00000000000E+00 -0.00000000000E+00 -0.11559351141E+04  0.11559351141E+04  0.00000000000E+00 0. -1.
         23    2    1    2    0    0  0.25675931397E+03 -0.19933760299E+03 -0.10221890193E+04  0.10765774285E+04  0.92128948263E+02 0.  0.
         13    1    3    3    0    0  0.19382182893E+03 -0.19469380309E+03 -0.83654046431E+03  0.88049561428E+03  0.00000000000E+00 0. -1.
        -13    1    3    3    0    0  0.62937485039E+02 -0.46437999008E+01 -0.18564855498E+03  0.19608181421E+03  0.00000000000E+00 0.  1.
         22    1    1    2    0    0 -0.25675931397E+03  0.19933760299E+03  0.14135742670E+03  0.35446120713E+03  0.00000000000E+00 0.  1.
<mgrwt>
<rscale>  0 0.11278330E+04</rscale>
<asrwt>0</asrwt>
<pdfrwt beam="1">  1        1 0.17783617E+00 0.11278330E+04</pdfrwt>
<pdfrwt beam="2">  1       -1 0.42323619E-01 0.11278330E+04</pdfrwt>
<totfact> 0.62833035E+01</totfact>
</mgrwt>
</event>
<event>
 6    1  0.1072514E-005  0.1240058E+04  0.7818608E-02  0.9078498E-01
          2   -1    0    0  501    0  0.00000000000E+00  0.00000000000E+00  0.67687914356E+03  0.67687914356E+03  0.00000000000E+00 0. -1.
         -2   -1    0    0    0  501 -0.00000000000E+00 -0.00000000000E+00 -0.56795397813E+03  0.56795397813E+03  0.00000000000E+00 0.  1.
         23    2    1    2    0    0  0.84490532376E+02 -0.54287638693E+03  0.33591840047E+03  0.65037593206E+03  0.91072826263E+02 0.  0.
         11    1    3    3    0    0  0.33188276528E+02 -0.61289619531E+02  0.21442900815E+02  0.72922405038E+02  0.00000000000E+00 0. -1.
        -11    1    3    3    0    0  0.51302255848E+02 -0.48158676740E+03  0.31447549966E+03  0.57745352702E+03  0.00000000000E+00 0.  1.
         22    1    1    2    0    0 -0.84490532376E+02  0.54287638693E+03 -0.22699323505E+03  0.59445718963E+03  0.00000000000E+00 0.  1.
<mgrwt>
<rscale>  0 0.12400584E+04</rscale>
<asrwt>0</asrwt>
<pdfrwt beam="1">  1        2 0.10413525E+00 0.12400584E+04</pdfrwt>
<pdfrwt beam="2">  1       -2 0.87377535E-01 0.12400584E+04</pdfrwt>
<totfact> 0.47611921E+01</totfact>
</mgrwt>
</event>
<event>
 6    1  0.1072514E-005  0.1721535E+04  0.7818608E-02  0.8749177E-01
          1   -1    0    0  501    0  0.00000000000E+00  0.00000000000E+00  0.11726368239E+04  0.11726368239E+04  0.00000000000E+00 0. -1.
         -1   -1    0    0    0  501 -0.00000000000E+00 -0.00000000000E+00 -0.63184149466E+03  0.63184149466E+03  0.00000000000E+00 0.  1.
         23    2    1    2    0    0  0.64178408716E+03  0.60042730232E+02  0.86537349044E+03  0.10827838356E+04  0.89764205794E+02 0.  0.
         13    1    3    3    0    0  0.41292634915E+03  0.55898709252E+02  0.62205654944E+03  0.74872370486E+03  0.00000000000E+00 0. -1.
        -13    1    3    3    0    0  0.22885773800E+03  0.41440209802E+01  0.24331694101E+03  0.33406013072E+03  0.00000000000E+00 0.  1.
         22    1    1    2    0    0 -0.64178408716E+03 -0.60042730232E+02 -0.32457816123E+03  0.72169448296E+03  0.00000000000E+00 0.  1.
<mgrwt>
<rscale>  0 0.17215349E+04</rscale>
<asrwt>0</asrwt>
<pdfrwt beam="1">  1        1 0.18040566E+00 0.17215349E+04</pdfrwt>
<pdfrwt beam="2">  1       -1 0.97206384E-01 0.17215349E+04</pdfrwt>
<totfact> 0.10809872E+01</totfact>
</mgrwt>
</event>
<event>
 6    1  0.1072514E-005  0.4674165E+04  0.7818608E-02  0.7880835E-01
         -1   -1    0    0    0  501 -0.00000000000E+00  0.00000000000E+00  0.16559864348E+04  0.16559864348E+04  0.00000000000E+00 0.  1.
          1   -1    0    0  501    0  0.00000000000E+00 -0.00000000000E+00 -0.32983090384E+04  0.32983090384E+04  0.00000000000E+00 0. -1.
         23    2    1    2    0    0  0.10527654878E+04 -0.19420862106E+04 -0.16273667950E+04  0.27451694701E+04  0.87285239266E+02 0.  0.
         11    1    3    3    0    0  0.40837279597E+03 -0.80393052485E+03 -0.62019621461E+03  0.10944021080E+04  0.00000000000E+00 0.  1.
        -11    1    3    3    0    0  0.64439269180E+03 -0.11381556857E+04 -0.10071705803E+04  0.16507673622E+04  0.00000000000E+00 0. -1.
         22    1    1    2    0    0 -0.10527654878E+04  0.19420862106E+04 -0.14955808673E+02  0.22091260031E+04  0.00000000000E+00 0.  1.
<mgrwt>
<rscale>  0 0.46741652E+04</rscale>
<asrwt>0</asrwt>
<pdfrwt beam="1">  1        1 0.50743216E+00 0.46741652E+04</pdfrwt>
<pdfrwt beam="2">  1       -1 0.25476714E+00 0.46741652E+04</pdfrwt>
<totfact> 0.17210001E-02</totfact>
</mgrwt>
</event>
<event>
 6    1  0.1072514E-005  0.1234602E+04  0.7818608E-02  0.9083097E-01
          1   -1    0    0  501    0  0.00000000000E+00  0.00000000000E+00  0.98491190327E+03  0.98491190327E+03  0.00000000000E+00 0. -1.
         -1   -1    0    0    0  501 -0.00000000000E+00 -0.00000000000E+00 -0.38689791100E+03  0.38689791100E+03  0.00000000000E+00 0.  1.
         23    2    1    2    0    0 -0.62522149448E+02  0.54372801455E+03  0.60964585791E+03  0.82437536771E+03  0.91528694067E+02 0.  0.
         13    1    3    3    0    0  0.37370177229E+01  0.20088921644E+03  0.27624207808E+03  0.34158473075E+03  0.00000000000E+00 0.  1.
        -13    1    3    3    0    0 -0.66259167171E+02  0.34283879811E+03  0.33340377983E+03  0.48279063695E+03  0.00000000000E+00 0. -1.
         22    1    1    2    0    0  0.62522149448E+02 -0.54372801455E+03 -0.11631865645E+02  0.54743444656E+03  0.00000000000E+00 0.  1.
<mgrwt>
<rscale>  0 0.12346017E+04</rscale>
<asrwt>0</asrwt>
<pdfrwt beam="1">  1        1 0.15152491E+00 0.12346017E+04</pdfrwt>
<pdfrwt beam="2">  1       -1 0.59522756E-01 0.12346017E+04</pdfrwt>
<totfact> 0.43927397E+01</totfact>
</mgrwt>
</event>
<event>
 6    1  0.1072514E-005  0.3533318E+04  0.7818608E-02  0.8105939E-01
         -1   -1    0    0    0  501 -0.00000000000E+00  0.00000000000E+00  0.16933815999E+04  0.16933815999E+04  0.00000000000E+00 0.  1.
          1   -1    0    0  501    0  0.00000000000E+00 -0.00000000000E+00 -0.18431074248E+04  0.18431074248E+04  0.00000000000E+00 0. -1.
         23    2    1    2    0    0  0.32415655051E+03  0.79749704872E+03 -0.16176425298E+04  0.18347668193E+04  0.92319634203E+02 0.  0.
         11    1    3    3    0    0  0.21027001583E+03  0.46807844317E+03 -0.10494793844E+04  0.11682114050E+04  0.00000000000E+00 0. -1.
        -11    1    3    3    0    0  0.11388653468E+03  0.32941860554E+03 -0.56816314539E+03  0.66655541423E+03  0.00000000000E+00 0.  1.
         22    1    1    2    0    0 -0.32415655051E+03 -0.79749704872E+03  0.14679167049E+04  0.17017222055E+04  0.00000000000E+00 0.  1.
<mgrwt>
<rscale>  0 0.35333181E+04</rscale>
<asrwt>0</asrwt>
<pdfrwt beam="1">  1        1 0.28355499E+00 0.35333181E+04</pdfrwt>
<pdfrwt beam="2">  1       -1 0.26052025E+00 0.35333181E+04</pdfrwt>
<totfact> 0.18446624E-01</totfact>
</mgrwt>
</event>
<event>
 6    1  0.1072514E-005  0.3566259E+04  0.7818608E-02  0.8098264E-01
          1   -1    0    0  501    0  0.00000000000E+00  0.00000000000E+00  0.28290039874E+04  0.28290039874E+04  0.00000000000E+00 0. -1.
         -1   -1    0    0    0  501 -0.00000000000E+00 -0.00000000000E+00 -0.11239120455E+04  0.11239120455E+04  0.00000000000E+00 0.  1.
         23    2    1    2    0    0 -0.20556272712E+03 -0.86223791210E+03 -0.86053107271E+03  0.12384857603E+04  0.87309790503E+02 0.  0.
         11    1    3    3    0    0 -0.14886666078E+03 -0.48156291600E+03 -0.52639941554E+03  0.72880756681E+03  0.00000000000E+00 0.  1.
        -11    1    3    3    0    0 -0.56696066333E+02 -0.38067499610E+03 -0.33413165717E+03  0.50967819349E+03  0.00000000000E+00 0. -1.
         22    1    1    2    0    0  0.20556272712E+03  0.86223791210E+03  0.25656230146E+04  0.27144302726E+04  0.00000000000E+00 0. -1.
<mgrwt>
<rscale>  0 0.35662595E+04</rscale>
<asrwt>0</asrwt>
<pdfrwt beam="1">  1        1 0.43523138E+00 0.35662595E+04</pdfrwt>
<pdfrwt beam="2">  1       -1 0.17290955E+00 0.35662595E+04</pdfrwt>
<totfact> 0.15094843E-01</totfact>
</mgrwt>
</event>
<event>
 6    1  0.1072514E-005  0.1769071E+04  0.7818608E-02  0.8722923E-01
         -2   -1    0    0    0  501 -0.00000000000E+00  0.00000000000E+00  0.68530089393E+03  0.68530089393E+03  0.00000000000E+00 0. -1.
          2   -1    0    0  501    0  0.00000000000E+00 -0.00000000000E+00 -0.11416921775E+04  0.11416921775E+04  0.00000000000E+00 0.  1.
         23    2    1    2    0    0 -0.18210313306E+03  0.29866325831E+03 -0.10652038674E+04  0.11248434754E+04  0.90842017387E+02 0.  0.
         13    1    3    3    0    0 -0.77625345431E+02  0.20700031892E+03 -0.70025501470E+03  0.73432411911E+03  0.00000000000E+00 0. -1.
        -13    1    3    3    0    0 -0.10447778763E+03  0.91662939390E+02 -0.36494885272E+03  0.39051935633E+03  0.00000000000E+00 0.  1.
         22    1    1    2    0    0  0.18210313306E+03 -0.29866325831E+03  0.60881258384E+03  0.70214959601E+03  0.00000000000E+00 0. -1.
<mgrwt>
<rscale>  0 0.17690706E+04</rscale>
<asrwt>0</asrwt>
<pdfrwt beam="1">  1        2 0.17564495E+00 0.17690706E+04</pdfrwt>
<pdfrwt beam="2">  1       -2 0.10543091E+00 0.17690706E+04</pdfrwt>
<totfact> 0.14151745E+01</totfact>
</mgrwt>
</event>
<event>
 6    1  0.1072514E-005  0.9795009E+03  0.7818608E-02  0.9331318E-01
          1   -1    0    0  501    0  0.00000000000E+00  0.00000000000E+00  0.94311243357E+03  0.94311243357E+03  0.00000000000E+00 0. -1.
         -1   -1    0    0    0  501 -0.00000000000E+00 -0.00000000000E+00 -0.25432333242E+03  0.25432333242E+03  0.00000000000E+00 0.  1.
         23    2    1    2    0    0  0.10031792355E+03  0.36491487499E+03 -0.25151292975E+02  0.38939032288E+03  0.88123119779E+02 0.  0.
         11    1    3    3    0    0  0.51754230712E+02  0.13137763713E+03 -0.49473776544E+02  0.14962031446E+03  0.00000000000E+00 0.  1.
        -11    1    3    3    0    0  0.48563692838E+02  0.23353723786E+03  0.24322483569E+02  0.23977000841E+03  0.00000000000E+00 0. -1.
         22    1    1    2    0    0 -0.10031792355E+03 -0.36491487499E+03  0.71394039413E+03  0.80804544312E+03  0.00000000000E+00 0. -1.
<mgrwt>
<rscale>  0 0.97950089E+03</rscale>
<asrwt>0</asrwt>
<pdfrwt beam="1">  1        1 0.14509422E+00 0.97950089E+03</pdfrwt>
<pdfrwt beam="2">  1       -1 0.39126667E-01 0.97950089E+03</pdfrwt>
<totfact> 0.10675383E+02</totfact>
</mgrwt>
</event>
<event>
 6    1  0.1072514E-005  0.4632497E+04  0.7818608E-02  0.7887842E-01
         -2   -1    0    0    0  501 -0.00000000000E+00  0.00000000000E+00  0.12004405317E+04  0.12004405317E+04  0.00000000000E+00 0.  1.
          2   -1    0    0  501    0  0.00000000000E+00 -0.00000000000E+00 -0.44691989416E+04  0.44691989416E+04  0.00000000000E+00 0. -1.
         23    2    1    2    0    0 -0.10002158205E+04  0.94380730911E+03 -0.39147389941E+04  0.41502663000E+04  0.91241682249E+02 0.  0.
         11    1    3    3    0    0 -0.69463122312E+03  0.61415709757E+03 -0.25432913053E+04  0.27070338270E+04  0.00000000000E+00 0.  1.
        -11    1    3    3    0    0 -0.30558459742E+03  0.32965021154E+03 -0.13714476888E+04  0.14432324730E+04  0.00000000000E+00 0. -1.
         22    1    1    2    0    0  0.10002158205E+04 -0.94380730911E+03  0.64598058420E+03  0.15193731732E+04  0.00000000000E+00 0.  1.
<mgrwt>
<rscale>  0 0.46324972E+04</rscale>
<asrwt>0</asrwt>
<pdfrwt beam="1">  1        2 0.68756906E+00 0.46324972E+04</pdfrwt>
<pdfrwt beam="2">  1       -2 0.18468316E+00 0.46324972E+04</pdfrwt>
<totfact> 0.16502993E-02</totfact>
</mgrwt>
</event>
<event>
 6    1  0.1072514E-005  0.2778766E+04  0.7818608E-02  0.8309891E-01
         -2   -1    0    0    0  501 -0.00000000000E+00  0.00000000000E+00  0.99710018266E+03  0.99710018266E+03  0.00000000000E+00 0.  1.
          2   -1    0    0  501    0  0.00000000000E+00 -0.00000000000E+00 -0.19359998413E+04  0.19359998413E+04  0.00000000000E+00 0. -1.
         23    2    1    2    0    0  0.70017107510E+03  0.32970198399E+03 -0.16860240061E+04  0.18573966618E+04  0.91117932157E+02 0.  0.
         13    1    3    3    0    0  0.22000095787E+03  0.14059875472E+03 -0.50348645324E+03  0.56715697994E+03  0.00000000000E+00 0. -1.
        -13    1    3    3    0    0  0.48017011723E+03  0.18910322927E+03 -0.11825375528E+04  0.12902396819E+04  0.00000000000E+00 0.  1.
         22    1    1    2    0    0 -0.70017107510E+03 -0.32970198399E+03  0.74712434748E+03  0.10757033621E+04  0.00000000000E+00 0.  1.
<mgrwt>
<rscale>  0 0.27787665E+04</rscale>
<asrwt>0</asrwt>
<pdfrwt beam="1">  1        2 0.29784613E+00 0.27787665E+04</pdfrwt>
<pdfrwt beam="2">  1       -2 0.15340003E+00 0.27787665E+04</pdfrwt>
<totfact> 0.17843669E+00</totfact>
</mgrwt>
</event>
<event>
 6    1  0.1072514E-005  0.3187392E+03  0.7818608E-02  0.1076231E+00
         -1   -1    0    0    0  501 -0.00000000000E+00  0.00000000000E+00  0.26127564451E+02  0.26127564451E+02  0.00000000000E+00 0.  1.
          1   -1    0    0  501    0  0.00000000000E+00 -0.00000000000E+00 -0.97210249637E+03  0.97210249637E+03  0.00000000000E+00 0. -1.
         23    2    1    2    0    0 -0.13531871437E+03 -0.45301424775E+02 -0.37684508102E+03  0.41148295965E+03  0.83322490658E+02 0.  0.
         13    1    3    3    0    0 -0.56067826962E+02 -0.27651909567E+02 -0.27081351143E+03  0.27793558120E+03  0.00000000000E+00 0. -1.
        -13    1    3    3    0    0 -0.79250887411E+02 -0.17649515208E+02 -0.10603156959E+03  0.13354737846E+03  0.00000000000E+00 0.  1.
         22    1    1    2    0    0  0.13531871437E+03  0.45301424775E+02 -0.56912985090E+03  0.58674710117E+03  0.00000000000E+00 0. -1.
<mgrwt>
<rscale>  0 0.31873921E+03</rscale>
<asrwt>0</asrwt>
<pdfrwt beam="1">  1        1 0.14955421E+00 0.31873921E+03</pdfrwt>
<pdfrwt beam="2">  1       -1 0.40196258E-02 0.31873921E+03</pdfrwt>
<totfact> 0.41079503E+03</totfact>
</mgrwt>
</event>
<event>
 6    1  0.1072514E-005  0.3146850E+04  0.7818608E-02  0.8202997E-01
         -2   -1    0    0    0  501 -0.00000000000E+00  0.00000000000E+00  0.14817075080E+04  0.14817075080E+04  0.00000000000E+00 0.  1.
          2   -1    0    0  501    0  0.00000000000E+00 -0.00000000000E+00 -0.16708192846E+04  0.16708192846E+04  0.00000000000E+00 0. -1.
         23    2    1    2    0    0 -0.39682055970E+03 -0.12247550061E+04 -0.99826327258E+03  0.16319290401E+04  0.95767682520E+02 0.  0.
         13    1    3    3    0    0 -0.31347203078E+03 -0.10687048931E+04 -0.84818406135E+03  0.13999325214E+04  0.00000000000E+00 0.  1.
        -13    1    3    3    0    0 -0.83348528918E+02 -0.15605011301E+03 -0.15007921123E+03  0.23199651870E+03  0.00000000000E+00 0. -1.
         22    1    1    2    0    0  0.39682055970E+03  0.12247550061E+04  0.80915149593E+03  0.15205977525E+04  0.00000000000E+00 0.  1.
<mgrwt>
<rscale>  0 0.31468495E+04</rscale>
<asrwt>0</asrwt>
<pdfrwt beam="1">  1        2 0.25704912E+00 0.31468495E+04</pdfrwt>
<pdfrwt beam="2">  1       -2 0.22795500E+00 0.31468495E+04</pdfrwt>
<totfact> 0.75830009E-01</totfact>
</mgrwt>
</event>
<event>
 6    1  0.1072514E-005  0.1871668E+04  0.7818608E-02  0.8669089E-01
          1   -1    0    0  501    0  0.00000000000E+00  0.00000000000E+00  0.11445323861E+04  0.11445323861E+04  0.00000000000E+00 0. -1.
         -1   -1    0    0    0  501 -0.00000000000E+00 -0.00000000000E+00 -0.76519030831E+03  0.76519030831E+03  0.00000000000E+00 0.  1.
         23    2    1    2    0    0  0.56469268287E+03 -0.22636833358E+03 -0.53241842802E+03  0.81362613457E+03  0.91638724457E+02 0.  0.
         13    1    3    3    0    0  0.17092001426E+03 -0.11331155364E+03 -0.19302751724E+03  0.28162525078E+03  0.00000000000E+00 0.  1.
        -13    1    3    3    0    0  0.39377266861E+03 -0.11305677995E+03 -0.33939091078E+03  0.53200088379E+03  0.00000000000E+00 0. -1.
         22    1    1    2    0    0 -0.56469268287E+03  0.22636833358E+03  0.91176050580E+03  0.10960965598E+04  0.00000000000E+00 0. -1.
<mgrwt>
<rscale>  0 0.18716678E+04</rscale>
<asrwt>0</asrwt>
<pdfrwt beam="1">  1        1 0.17608191E+00 0.18716678E+04</pdfrwt>
<pdfrwt beam="2">  1       -1 0.11772159E+00 0.18716678E+04</pdfrwt>
<totfact> 0.71449376E+00</totfact>
</mgrwt>
</event>
<event>
 6    1  0.1072514E-005  0.1762212E+04  0.7818608E-02  0.8726657E-01
         -1   -1    0    0    0  501 -0.00000000000E+00  0.00000000000E+00  0.10926098903E+04  0.10926098903E+04  0.00000000000E+00 0.  1.
          1   -1    0    0  501    0  0.00000000000E+00 -0.00000000000E+00 -0.71054464907E+03  0.71054464907E+03  0.00000000000E+00 0. -1.
         23    2    1    2    0    0  0.76196067720E+03 -0.53291499699E+02 -0.25245960960E+03  0.81015612854E+03  0.95880345166E+02 0.  0.
         13    1    3    3    0    0  0.45819578631E+03 -0.14420925544E+02 -0.10515411832E+03  0.47032832180E+03  0.00000000000E+00 0.  1.
        -13    1    3    3    0    0  0.30376489089E+03 -0.38870574155E+02 -0.14730549128E+03  0.33982780674E+03  0.00000000000E+00 0. -1.
         22    1    1    2    0    0 -0.76196067720E+03  0.53291499699E+02  0.63452485079E+03  0.99299841078E+03  0.00000000000E+00 0. -1.
<mgrwt>
<rscale>  0 0.17622124E+04</rscale>
<asrwt>0</asrwt>
<pdfrwt beam="1">  1        1 0.10931456E+00 0.17622124E+04</pdfrwt>
<pdfrwt beam="2">  1       -1 0.16809383E+00 0.17622124E+04</pdfrwt>
<totfact> 0.64067362E+00</totfact>
</mgrwt>
</event>
<event>
 6    1  0.1072514E-005  0.3179509E+04  0.7818608E-02  0.8194250E-01
          2   -1    0    0  501    0  0.00000000000E+00  0.00000000000E+00  0.17644716253E+04  0.17644716253E+04  0.00000000000E+00 0. -1.
         -2   -1    0    0    0  501 -0.00000000000E+00 -0.00000000000E+00 -0.14323373794E+04  0.14323373794E+04  0.00000000000E+00 0.  1.
         23    2    1    2    0    0  0.87141797029E+03  0.12053112985E+04 -0.39376191986E+03  0.15417954553E+04  0.99700406814E+02 0.  0.
         13    1    3    3    0    0  0.27109505130E+03  0.44093133077E+03 -0.10840815489E+03  0.52883389958E+03  0.00000000000E+00 0.  1.
        -13    1    3    3    0    0  0.60032291899E+03  0.76437996775E+03 -0.28535376497E+03  0.10129615557E+04  0.00000000000E+00 0. -1.
         22    1    1    2    0    0 -0.87141797029E+03 -0.12053112985E+04  0.72589616572E+03  0.16550135494E+04  0.00000000000E+00 0. -1.
<mgrwt>
<rscale>  0 0.31795086E+04</rscale>
<asrwt>0</asrwt>
<pdfrwt beam="1">  1        2 0.27145717E+00 0.31795086E+04</pdfrwt>
<pdfrwt beam="2">  1       -2 0.22035960E+00 0.31795086E+04</pdfrwt>
<totfact> 0.74890610E-01</totfact>
</mgrwt>
</event>
<event>
 6    1  0.1072514E-005  0.2611818E+04  0.7818608E-02  0.8364198E-01
         -1   -1    0    0    0  501 -0.00000000000E+00  0.00000000000E+00  0.24287159515E+04  0.24287159515E+04  0.00000000000E+00 0. -1.
          1   -1    0    0  501    0  0.00000000000E+00 -0.00000000000E+00 -0.70218119866E+03  0.70218119866E+03  0.00000000000E+00 0.  1.
         23    2    1    2    0    0  0.43921396583E+03 -0.35122273767E+03 -0.54680159523E+03  0.78903368900E+03  0.85532792548E+02 0.  0.
         13    1    3    3    0    0  0.11364565131E+03 -0.12594310733E+03 -0.12638177478E+03  0.21154042957E+03  0.00000000000E+00 0. -1.
        -13    1    3    3    0    0  0.32556831452E+03 -0.22527963034E+03 -0.42041982045E+03  0.57749325943E+03  0.00000000000E+00 0.  1.
         22    1    1    2    0    0 -0.43921396583E+03  0.35122273767E+03  0.22733363480E+04  0.23418634611E+04  0.00000000000E+00 0. -1.
<mgrwt>
<rscale>  0 0.26118183E+04</rscale>
<asrwt>0</asrwt>
<pdfrwt beam="1">  1        1 0.10802788E+00 0.26118183E+04</pdfrwt>
<pdfrwt beam="2">  1       -1 0.37364861E+00 0.26118183E+04</pdfrwt>
<totfact> 0.25762997E-01</totfact>
</mgrwt>
</event>
<event>
 6    1  0.1072514E-005  0.1815158E+04  0.7818608E-02  0.8698280E-01
          2   -1    0    0  501    0  0.00000000000E+00  0.00000000000E+00  0.13470894873E+04  0.13470894873E+04  0.00000000000E+00 0. -1.
         -2   -1    0    0    0  501 -0.00000000000E+00 -0.00000000000E+00 -0.61146592065E+03  0.61146592065E+03  0.00000000000E+00 0.  1.
         23    2    1    2    0    0  0.87714707407E+03 -0.16708615211E+03  0.20834520613E+03  0.92157554255E+03  0.92676771210E+02 0.  0.
         13    1    3    3    0    0  0.31016133336E+03 -0.10422794162E+03  0.71228636628E+02  0.33486868352E+03  0.00000000000E+00 0. -1.
        -13    1    3    3    0    0  0.56698574071E+03 -0.62858210487E+02  0.13711656951E+03  0.58670685902E+03  0.00000000000E+00 0.  1.
         22    1    1    2    0    0 -0.87714707407E+03  0.16708615211E+03  0.52727836050E+03  0.10369798654E+04  0.00000000000E+00 0. -1.
<mgrwt>
<rscale>  0 0.18151576E+04</rscale>
<asrwt>0</asrwt>
<pdfrwt beam="1">  1        2 0.20724454E+00 0.18151576E+04</pdfrwt>
<pdfrwt beam="2">  1       -2 0.94071681E-01 0.18151576E+04</pdfrwt>
<totfact> 0.13959261E+01</totfact>
</mgrwt>
</event>
<event>
 6    1  0.1072514E-005  0.5518776E+04  0.7818608E-02  0.7753111E-01
          1   -1    0    0  501    0  0.00000000000E+00  0.00000000000E+00  0.44550763328E+04  0.44550763328E+04  0.00000000000E+00 0. -1.
         -1   -1    0    0    0  501 -0.00000000000E+00 -0.00000000000E+00 -0.17091111943E+04  0.17091111943E+04  0.00000000000E+00 0.  1.
         23    2    1    2    0    0 -0.27194052267E+04 -0.12731028314E+03  0.87505942806E+03  0.28609072071E+04  0.87683235848E+02 0.  0.
         11    1    3    3    0    0 -0.16564674756E+04 -0.92575859047E+02  0.57522765130E+03  0.17559446570E+04  0.00000000000E+00 0.  1.
        -11    1    3    3    0    0 -0.10629377511E+04 -0.34734424094E+02  0.29983177676E+03  0.11049625501E+04  0.00000000000E+00 0. -1.
         22    1    1    2    0    0  0.27194052267E+04  0.12731028314E+03  0.18709057104E+04  0.33032803200E+04  0.00000000000E+00 0. -1.
<mgrwt>
<rscale>  0 0.55187755E+04</rscale>
<asrwt>0</asrwt>
<pdfrwt beam="1">  1        1 0.68539635E+00 0.55187755E+04</pdfrwt>
<pdfrwt beam="2">  1       -1 0.26294019E+00 0.55187755E+04</pdfrwt>
<totfact> 0.14137668E-03</totfact>
</mgrwt>
</event>
<event>
 6    1  0.1072514E-005  0.2681239E+04  0.7818608E-02  0.8341118E-01
          1   -1    0    0  501    0  0.00000000000E+00  0.00000000000E+00  0.16315091576E+04  0.16315091576E+04  0.00000000000E+00 0. -1.
         -1   -1    0    0    0  501 -0.00000000000E+00 -0.00000000000E+00 -0.11015939182E+04  0.11015939182E+04  0.00000000000E+00 0.  1.
         23    2    1    2    0    0  0.95750464182E+03  0.18894853146E+03 -0.66943105465E+03  0.11868339467E+04  0.88995469401E+02 0.  0.
         13    1    3    3    0    0  0.72618583817E+03  0.10403240019E+03 -0.50298603167E+03  0.88947375447E+03  0.00000000000E+00 0. -1.
        -13    1    3    3    0    0  0.23131880365E+03  0.84916131272E+02 -0.16644502298E+03  0.29736019227E+03  0.00000000000E+00 0.  1.
         22    1    1    2    0    0 -0.95750464182E+03 -0.18894853146E+03  0.11993462940E+04  0.15462691291E+04  0.00000000000E+00 0. -1.
<mgrwt>
<rscale>  0 0.26812389E+04</rscale>
<asrwt>0</asrwt>
<pdfrwt beam="1">  1        1 0.25100141E+00 0.26812389E+04</pdfrwt>
<pdfrwt beam="2">  1       -1 0.16947599E+00 0.26812389E+04</pdfrwt>
<totfact> 0.11527205E+00</totfact>
</mgrwt>
</event>
<event>
 6    1  0.1072514E-005  0.1679325E+04  0.7818608E-02  0.8773245E-01
         -2   -1    0    0    0  501 -0.00000000000E+00  0.00000000000E+00  0.17144994385E+04  0.17144994385E+04  0.00000000000E+00 0.  1.
          2   -1    0    0  501    0  0.00000000000E+00 -0.00000000000E+00 -0.41121814781E+03  0.41121814781E+03  0.00000000000E+00 0. -1.
         23    2    1    2    0    0 -0.92583107253E+02 -0.70477098167E+03  0.12142941199E+04  0.14093430440E+04  0.80397995410E+02 0.  0.
         13    1    3    3    0    0 -0.50909961790E+02 -0.44373206200E+03  0.68571279837E+03  0.81834712005E+03  0.00000000000E+00 0. -1.
        -13    1    3    3    0    0 -0.41673145462E+02 -0.26103891967E+03  0.52858132153E+03  0.59099592394E+03  0.00000000000E+00 0.  1.
         22    1    1    2    0    0  0.92583107253E+02  0.70477098167E+03  0.88987170808E+02  0.71637454235E+03  0.00000000000E+00 0. -1.
<mgrwt>
<rscale>  0 0.16793252E+04</rscale>
<asrwt>0</asrwt>
<pdfrwt beam="1">  1        2 0.63264331E-01 0.16793252E+04</pdfrwt>
<pdfrwt beam="2">  1       -2 0.26376914E+00 0.16793252E+04</pdfrwt>
<totfact> 0.38887840E+00</totfact>
</mgrwt>
</event>
<event>
 6    1  0.1072514E-005  0.4222132E+04  0.7818608E-02  0.7961176E-01
          2   -1    0    0  501    0  0.00000000000E+00  0.00000000000E+00  0.22319799758E+04  0.22319799758E+04  0.00000000000E+00 0. -1.
         -2   -1    0    0    0  501 -0.00000000000E+00 -0.00000000000E+00 -0.19967019855E+04  0.19967019855E+04  0.00000000000E+00 0.  1.
         23    2    1    2    0    0 -0.15443462973E+04 -0.27046944913E+03 -0.12967308644E+04  0.20366029619E+04  0.89897058081E+02 0.  0.
         11    1    3    3    0    0 -0.13128364193E+04 -0.22650086243E+03 -0.11418625550E+04  0.17546202436E+04  0.00000000000E+00 0.  1.
        -11    1    3    3    0    0 -0.23150987796E+03 -0.43968586701E+02 -0.15486830937E+03  0.28198271837E+03  0.00000000000E+00 0. -1.
         22    1    1    2    0    0  0.15443462973E+04  0.27046944913E+03  0.15320088547E+04  0.21920789994E+04  0.00000000000E+00 0. -1.
<mgrwt>
<rscale>  0 0.42221316E+04</rscale>
<asrwt>0</asrwt>
<pdfrwt beam="1">  1        2 0.34338154E+00 0.42221316E+04</pdfrwt>
<pdfrwt beam="2">  1       -2 0.30718492E+00 0.42221316E+04</pdfrwt>
<totfact> 0.11023662E-01</totfact>
</mgrwt>
</event>
<event>
 6    1  0.1299219E-005  0.2319131E+04  0.7818608E-02  0.8470416E-01
          2   -1    0    0  501    0  0.00000000000E+00  0.00000000000E+00  0.95350099635E+03  0.95350099635E+03  0.00000000000E+00 0.  1.
         -2   -1    0    0    0  501 -0.00000000000E+00 -0.00000000000E+00 -0.14101632088E+04  0.14101632088E+04  0.00000000000E+00 0. -1.
         23    2    1    2    0    0 -0.34868532468E+03 -0.62064324897E+03 -0.11593327373E+04  0.13634015574E+04  0.89620940144E+02 0.  0.
         13    1    3    3    0    0 -0.17146294312E+03 -0.37729069901E+03 -0.72165053466E+03  0.83218225564E+03  0.00000000000E+00 0.  1.
        -13    1    3    3    0    0 -0.17722238156E+03 -0.24335254996E+03 -0.43768220261E+03  0.53121930178E+03  0.00000000000E+00 0. -1.
         22    1    1    2    0    0  0.34868532468E+03  0.62064324897E+03  0.70267052478E+03  0.10002626478E+04  0.00000000000E+00 0.  1.
<mgrwt>
<rscale>  0 0.23191309E+04</rscale>
<asrwt>0</asrwt>
<pdfrwt beam="1">  1        2 0.14669246E+00 0.23191309E+04</pdfrwt>
<pdfrwt beam="2">  1       -2 0.21694819E+00 0.23191309E+04</pdfrwt>
<totfact> 0.25258212E+00</totfact>
</mgrwt>
</event>
<event>
 6    1  0.1072514E-005  0.2051610E+04  0.7818608E-02  0.8582864E-01
         -2   -1    0    0    0  501 -0.00000000000E+00  0.00000000000E+00  0.99713314001E+03  0.99713314001E+03  0.00000000000E+00 0.  1.
          2   -1    0    0  501    0  0.00000000000E+00 -0.00000000000E+00 -0.10553017997E+04  0.10553017997E+04  0.00000000000E+00 0. -1.
         23    2    1    2    0    0  0.42536860655E+03  0.43986680263E+03 -0.85029750032E+03  0.10514907077E+04  0.90584843109E+02 0.  0.
         11    1    3    3    0    0  0.36268739807E+02  0.68239138762E+02 -0.14591595529E+03  0.16511652720E+03  0.00000000000E+00 0.  1.
        -11    1    3    3    0    0  0.38909986674E+03  0.37162766387E+03 -0.70438154503E+03  0.88637418049E+03  0.00000000000E+00 0. -1.
         22    1    1    2    0    0 -0.42536860655E+03 -0.43986680263E+03  0.79212884062E+03  0.10009442320E+04  0.00000000000E+00 0. -1.
<mgrwt>
<rscale>  0 0.20516105E+04</rscale>
<asrwt>0</asrwt>
<pdfrwt beam="1">  1        2 0.16235412E+00 0.20516105E+04</pdfrwt>
<pdfrwt beam="2">  1       -2 0.15340510E+00 0.20516105E+04</pdfrwt>
<totfact> 0.60651843E+00</totfact>
</mgrwt>
</event>
<event>
 6    1  0.1072514E-005  0.6929088E+03  0.7818608E-02  0.9729437E-01
          1   -1    0    0  501    0  0.00000000000E+00  0.00000000000E+00  0.14575649313E+04  0.14575649313E+04  0.00000000000E+00 0. -1.
         -1   -1    0    0    0  501 -0.00000000000E+00 -0.00000000000E+00 -0.82350112714E+02  0.82350112714E+02  0.00000000000E+00 0.  1.
         23    2    1    2    0    0 -0.15735328161E+03  0.26531243267E+03  0.10202203463E+04  0.10696259654E+04  0.89996714263E+02 0.  0.
         11    1    3    3    0    0 -0.41465628877E+02  0.15384065533E+03  0.46167168309E+03  0.48839235106E+03  0.00000000000E+00 0.  1.
        -11    1    3    3    0    0 -0.11588765273E+03  0.11147177734E+03  0.55854866322E+03  0.58123361430E+03  0.00000000000E+00 0. -1.
         22    1    1    2    0    0  0.15735328161E+03 -0.26531243267E+03  0.35499447229E+03  0.47028907867E+03  0.00000000000E+00 0. -1.
<mgrwt>
<rscale>  0 0.69290876E+03</rscale>
<asrwt>0</asrwt>
<pdfrwt beam="1">  1        1 0.22424074E+00 0.69290876E+03</pdfrwt>
<pdfrwt beam="2">  1       -1 0.12669249E-01 0.69290876E+03</pdfrwt>
<totfact> 0.30912616E+02</totfact>
</mgrwt>
</event>
<event>
 6    1  0.1072514E-005  0.2610596E+04  0.7818608E-02  0.8364611E-01
         -1   -1    0    0    0  501 -0.00000000000E+00  0.00000000000E+00  0.14898909419E+04  0.14898909419E+04  0.00000000000E+00 0.  1.
          1   -1    0    0  501    0  0.00000000000E+00 -0.00000000000E+00 -0.11435753128E+04  0.11435753128E+04  0.00000000000E+00 0. -1.
         23    2    1    2    0    0  0.12222703782E+04  0.33768388186E+03 -0.13189200733E+03  0.12782327601E+04  0.92239935713E+02 0.  0.
         11    1    3    3    0    0  0.39061439881E+03  0.15228395144E+03 -0.36355288531E+02  0.42082266743E+03  0.00000000000E+00 0.  1.
        -11    1    3    3    0    0  0.83165597942E+03  0.18539993043E+03 -0.95536718797E+02  0.85741009263E+03  0.00000000000E+00 0. -1.
         22    1    1    2    0    0 -0.12222703782E+04 -0.33768388186E+03  0.47820763635E+03  0.13552334946E+04  0.00000000000E+00 0.  1.
<mgrwt>
<rscale>  0 0.26105957E+04</rscale>
<asrwt>0</asrwt>
<pdfrwt beam="1">  1        1 0.17593466E+00 0.26105957E+04</pdfrwt>
<pdfrwt beam="2">  1       -1 0.22921399E+00 0.26105957E+04</pdfrwt>
<totfact> 0.98863959E-01</totfact>
</mgrwt>
</event>
<event>
 6    1  0.1072514E-005  0.1166862E+04  0.7818608E-02  0.9142367E-01
         -2   -1    0    0    0  501 -0.00000000000E+00  0.00000000000E+00  0.41274340563E+03  0.41274340563E+03  0.00000000000E+00 0.  1.
          2   -1    0    0  501    0  0.00000000000E+00 -0.00000000000E+00 -0.82470600890E+03  0.82470600890E+03  0.00000000000E+00 0. -1.
         23    2    1    2    0    0 -0.56813205774E+03 -0.10676551895E+03 -0.16036762797E+03  0.60699486211E+03  0.92477432178E+02 0.  0.
         13    1    3    3    0    0 -0.26691076592E+03 -0.96323414910E+02 -0.86899758233E+02  0.29676779678E+03  0.00000000000E+00 0.  1.
        -13    1    3    3    0    0 -0.30122129182E+03 -0.10442104042E+02 -0.73467869740E+02  0.31022706533E+03  0.00000000000E+00 0. -1.
         22    1    1    2    0    0  0.56813205774E+03  0.10676551895E+03 -0.25159497530E+03  0.63045455242E+03  0.00000000000E+00 0. -1.
<mgrwt>
<rscale>  0 0.11668624E+04</rscale>
<asrwt>0</asrwt>
<pdfrwt beam="1">  1        2 0.12687785E+00 0.11668624E+04</pdfrwt>
<pdfrwt beam="2">  1       -2 0.63498986E-01 0.11668624E+04</pdfrwt>
<totfact> 0.75087606E+01</totfact>
</mgrwt>
</event>
<event>
 6    1  0.1072514E-005  0.1413591E+04  0.7818608E-02  0.8944039E-01
         -2   -1    0    0    0  501 -0.00000000000E+00  0.00000000000E+00  0.23780073620E+03  0.23780073620E+03  0.00000000000E+00 0.  1.
          2   -1    0    0  501    0  0.00000000000E+00 -0.00000000000E+00 -0.21007498367E+04  0.21007498367E+04  0.00000000000E+00 0. -1.
         23    2    1    2    0    0  0.58957231272E+03  0.21551726121E+03 -0.14622983742E+04  0.15938598947E+04  0.89608184158E+02 0.  0.
         13    1    3    3    0    0  0.30287636341E+03  0.70098336725E+02 -0.65994720988E+03  0.72950544080E+03  0.00000000000E+00 0. -1.
        -13    1    3    3    0    0  0.28669594932E+03  0.14541892449E+03 -0.80235116436E+03  0.86435445386E+03  0.00000000000E+00 0.  1.
         22    1    1    2    0    0 -0.58957231272E+03 -0.21551726121E+03 -0.40065072626E+03  0.74469067824E+03  0.00000000000E+00 0.  1.
<mgrwt>
<rscale>  0 0.14135910E+04</rscale>
<asrwt>0</asrwt>
<pdfrwt beam="1">  1        2 0.32319229E+00 0.14135910E+04</pdfrwt>
<pdfrwt beam="2">  1       -2 0.36584728E-01 0.14135910E+04</pdfrwt>
<totfact> 0.40197407E+01</totfact>
</mgrwt>
</event>
<event>
 6    1  0.1072514E-005  0.4325395E+04  0.7818608E-02  0.7941939E-01
         -1   -1    0    0    0  501 -0.00000000000E+00  0.00000000000E+00  0.14093568273E+04  0.14093568273E+04  0.00000000000E+00 0.  1.
          1   -1    0    0  501    0  0.00000000000E+00 -0.00000000000E+00 -0.33187200374E+04  0.33187200374E+04  0.00000000000E+00 0. -1.
         23    2    1    2    0    0 -0.17256182690E+04  0.12781601371E+04 -0.68336748871E+03  0.22553218717E+04  0.89631881350E+02 0.  0.
         13    1    3    3    0    0 -0.11062713320E+04  0.79026207358E+03 -0.47051245750E+03  0.14386564488E+04  0.00000000000E+00 0. -1.
        -13    1    3    3    0    0 -0.61934693701E+03  0.48789806349E+03 -0.21285503121E+03  0.81666542296E+03  0.00000000000E+00 0.  1.
         22    1    1    2    0    0  0.17256182690E+04 -0.12781601371E+04 -0.12259957215E+04  0.24727549930E+04  0.00000000000E+00 0.  1.
<mgrwt>
<rscale>  0 0.43253951E+04</rscale>
<asrwt>0</asrwt>
<pdfrwt beam="1">  1        1 0.51057232E+00 0.43253951E+04</pdfrwt>
<pdfrwt beam="2">  1       -1 0.21682413E+00 0.43253951E+04</pdfrwt>
<totfact> 0.30415525E-02</totfact>
</mgrwt>
</event>
<event>
 6    1  0.1072514E-005  0.5569622E+04  0.7818608E-02  0.7746181E-01
          2   -1    0    0  501    0  0.00000000000E+00  0.00000000000E+00  0.29437831230E+04  0.29437831230E+04  0.00000000000E+00 0. -1.
         -2   -1    0    0    0  501 -0.00000000000E+00 -0.00000000000E+00 -0.26344238825E+04  0.26344238825E+04  0.00000000000E+00 0.  1.
         23    2    1    2    0    0  0.32568226142E+03 -0.26893959905E+04  0.79771719044E+03  0.28254968470E+04  0.90332648022E+02 0.  0.
         13    1    3    3    0    0  0.26952669322E+03 -0.19915865049E+04  0.62047832564E+03  0.21033437184E+04  0.00000000000E+00 0.  1.
        -13    1    3    3    0    0  0.56155568194E+02 -0.69780948557E+03  0.17723886480E+03  0.72215312863E+03  0.00000000000E+00 0. -1.
         22    1    1    2    0    0 -0.32568226142E+03  0.26893959905E+04 -0.48835794992E+03  0.27527101584E+04  0.00000000000E+00 0. -1.
<mgrwt>
<rscale>  0 0.55696221E+04</rscale>
<asrwt>0</asrwt>
<pdfrwt beam="1">  1        2 0.45288971E+00 0.55696221E+04</pdfrwt>
<pdfrwt beam="2">  1       -2 0.40529598E+00 0.55696221E+04</pdfrwt>
<totfact> 0.90106411E-03</totfact>
</mgrwt>
</event>
<event>
 6    1  0.1072514E-005  0.3471062E+04  0.7818608E-02  0.8120682E-01
          2   -1    0    0  501    0  0.00000000000E+00  0.00000000000E+00  0.33714599104E+04  0.33714599104E+04  0.00000000000E+00 0. -1.
         -2   -1    0    0    0  501 -0.00000000000E+00 -0.00000000000E+00 -0.89340180787E+03  0.89340180787E+03  0.00000000000E+00 0.  1.
         23    2    1    2    0    0  0.38272511290E+03 -0.60307213393E+03  0.31817352435E+04  0.32621972533E+04  0.91198952146E+02 0.  0.
         11    1    3    3    0    0  0.72717482160E+02 -0.17556701674E+03  0.73995197001E+03  0.76396369515E+03  0.00000000000E+00 0.  1.
        -11    1    3    3    0    0  0.31000763075E+03 -0.42750511719E+03  0.24417832735E+04  0.24982335581E+04  0.00000000000E+00 0. -1.
         22    1    1    2    0    0 -0.38272511290E+03  0.60307213393E+03 -0.70367714092E+03  0.10026644650E+04  0.00000000000E+00 0.  1.
<mgrwt>
<rscale>  0 0.34710623E+04</rscale>
<asrwt>0</asrwt>
<pdfrwt beam="1">  1        2 0.51868613E+00 0.34710623E+04</pdfrwt>
<pdfrwt beam="2">  1       -2 0.13744643E+00 0.34710623E+04</pdfrwt>
<totfact> 0.30896390E-01</totfact>
</mgrwt>
</event>
<event>
 6    1  0.1072514E-005  0.1445523E+04  0.7818608E-02  0.8921510E-01
         -1   -1    0    0    0  501 -0.00000000000E+00  0.00000000000E+00  0.33757102571E+03  0.33757102571E+03  0.00000000000E+00 0.  1.
          1   -1    0    0  501    0  0.00000000000E+00 -0.00000000000E+00 -0.15474787819E+04  0.15474787819E+04  0.00000000000E+00 0. -1.
         23    2    1    2    0    0 -0.33378098799E+03 -0.18906102255E+03 -0.14017497336E+04  0.14561475315E+04  0.91156457189E+02 0.  0.
         11    1    3    3    0    0 -0.26800198462E+03 -0.15367549960E+03 -0.12412627578E+04  0.12791303518E+04  0.00000000000E+00 0. -1.
        -11    1    3    3    0    0 -0.65779003362E+02 -0.35385522951E+02 -0.16048697575E+03  0.17701717969E+03  0.00000000000E+00 0.  1.
         22    1    1    2    0    0  0.33378098799E+03  0.18906102255E+03  0.19184197738E+03  0.42890227613E+03  0.00000000000E+00 0.  1.
<mgrwt>
<rscale>  0 0.14455227E+04</rscale>
<asrwt>0</asrwt>
<pdfrwt beam="1">  1        1 0.23807367E+00 0.14455227E+04</pdfrwt>
<pdfrwt beam="2">  1       -1 0.51934003E-01 0.14455227E+04</pdfrwt>
<totfact> 0.21993883E+01</totfact>
</mgrwt>
</event>
<event>
 6    1  0.1072514E-005  0.1972301E+04  0.7818608E-02  0.8619682E-01
         -1   -1    0    0    0  501 -0.00000000000E+00  0.00000000000E+00  0.81452172758E+03  0.81452172758E+03  0.00000000000E+00 0.  1.
          1   -1    0    0  501    0  0.00000000000E+00 -0.00000000000E+00 -0.11939430605E+04  0.11939430605E+04  0.00000000000E+00 0. -1.
         23    2    1    2    0    0 -0.71132749182E+03 -0.62274641668E+03 -0.46793815247E+03  0.10589200933E+04  0.92443222153E+02 0.  0.
         11    1    3    3    0    0 -0.18313260279E+03 -0.21280414292E+03 -0.15496445035E+03  0.32068229499E+03  0.00000000000E+00 0. -1.
        -11    1    3    3    0    0 -0.52819488903E+03 -0.40994227376E+03 -0.31297370212E+03  0.73823779830E+03  0.00000000000E+00 0.  1.
         22    1    1    2    0    0  0.71132749182E+03  0.62274641668E+03  0.88516819521E+02  0.94954469481E+03  0.00000000000E+00 0.  1.
<mgrwt>
<rscale>  0 0.19723008E+04</rscale>
<asrwt>0</asrwt>
<pdfrwt beam="1">  1        1 0.18368355E+00 0.19723008E+04</pdfrwt>
<pdfrwt beam="2">  1       -1 0.12531103E+00 0.19723008E+04</pdfrwt>
<totfact> 0.55835167E+00</totfact>
</mgrwt>
</event>
<event>
 6    1  0.1072514E-005  0.1064435E+04  0.7818608E-02  0.9240566E-01
          2   -1    0    0  501    0  0.00000000000E+00  0.00000000000E+00  0.17211899898E+04  0.17211899898E+04  0.00000000000E+00 0. -1.
         -2   -1    0    0    0  501 -0.00000000000E+00 -0.00000000000E+00 -0.16456963564E+03  0.16456963564E+03  0.00000000000E+00 0.  1.
         23    2    1    2    0    0 -0.29033292471E+03  0.30076969809E+03  0.21103910115E+03  0.47673708236E+03  0.89359526742E+02 0.  0.
         11    1    3    3    0    0 -0.77714905404E+02  0.41424077927E+02  0.18336481346E+02  0.89954362330E+02  0.00000000000E+00 0. -1.
        -11    1    3    3    0    0 -0.21261801930E+03  0.25934562017E+03  0.19270261980E+03  0.38678272003E+03  0.00000000000E+00 0.  1.
         22    1    1    2    0    0  0.29033292471E+03 -0.30076969809E+03  0.13455812530E+04  0.14090225431E+04  0.00000000000E+00 0. -1.
<mgrwt>
<rscale>  0 0.10644353E+04</rscale>
<asrwt>0</asrwt>
<pdfrwt beam="1">  1        2 0.26479845E+00 0.10644353E+04</pdfrwt>
<pdfrwt beam="2">  1       -2 0.25318407E-01 0.10644353E+04</pdfrwt>
<totfact> 0.13315420E+02</totfact>
</mgrwt>
</event>
<event>
 6    1  0.1072514E-005  0.2084931E+04  0.7818608E-02  0.8567911E-01
          1   -1    0    0  501    0  0.00000000000E+00  0.00000000000E+00  0.17263053345E+04  0.17263053345E+04  0.00000000000E+00 0. -1.
         -1   -1    0    0    0  501 -0.00000000000E+00 -0.00000000000E+00 -0.62951459943E+03  0.62951459943E+03  0.00000000000E+00 0.  1.
         23    2    1    2    0    0 -0.70382010476E+03 -0.11671093795E+03  0.14052277516E+04  0.15785699252E+04  0.90740243981E+02 0.  0.
         11    1    3    3    0    0 -0.23209390541E+03 -0.39605971240E+02  0.56127574539E+03  0.60865973766E+03  0.00000000000E+00 0. -1.
        -11    1    3    3    0    0 -0.47172619935E+03 -0.77104966709E+02  0.84395200621E+03  0.96991018751E+03  0.00000000000E+00 0.  1.
         22    1    1    2    0    0  0.70382010476E+03  0.11671093795E+03 -0.30843701656E+03  0.77725000874E+03  0.00000000000E+00 0.  1.
<mgrwt>
<rscale>  0 0.20849311E+04</rscale>
<asrwt>0</asrwt>
<pdfrwt beam="1">  1        1 0.26558543E+00 0.20849311E+04</pdfrwt>
<pdfrwt beam="2">  1       -1 0.96848401E-01 0.20849311E+04</pdfrwt>
<totfact> 0.43168468E+00</totfact>
</mgrwt>
</event>
<event>
 6    1  0.1072514E-005  0.1945130E+04  0.7818608E-02  0.8632713E-01
          2   -1    0    0  501    0  0.00000000000E+00  0.00000000000E+00  0.31919563282E+04  0.31919563282E+04  0.00000000000E+00 0. -1.
         -2   -1    0    0    0  501 -0.00000000000E+00 -0.00000000000E+00 -0.29633326417E+03  0.29633326417E+03  0.00000000000E+00 0.  1.
         23    2    1    2    0    0 -0.66798505683E+03  0.60523550454E+03  0.20956718924E+04  0.22831190944E+04  0.90983882002E+02 0.  0.
         11    1    3    3    0    0 -0.49397576833E+03  0.46400213985E+03  0.14757205124E+04  0.16239030378E+04  0.00000000000E+00 0. -1.
        -11    1    3    3    0    0 -0.17400928850E+03  0.14123336469E+03  0.61995137993E+03  0.65921605659E+03  0.00000000000E+00 0.  1.
         22    1    1    2    0    0  0.66798505683E+03 -0.60523550454E+03  0.79995117170E+03  0.12051704980E+04  0.00000000000E+00 0.  1.
<mgrwt>
<rscale>  0 0.19451302E+04</rscale>
<asrwt>0</asrwt>
<pdfrwt beam="1">  1        2 0.49107018E+00 0.19451302E+04</pdfrwt>
<pdfrwt beam="2">  1       -2 0.45589735E-01 0.19451302E+04</pdfrwt>
<totfact> 0.56102400E+00</totfact>
</mgrwt>
</event>
<event>
 6    1  0.1072514E-005  0.4398646E+04  0.7818608E-02  0.7928625E-01
          2   -1    0    0  501    0  0.00000000000E+00  0.00000000000E+00  0.20815241024E+04  0.20815241024E+04  0.00000000000E+00 0. -1.
         -2   -1    0    0    0  501 -0.00000000000E+00 -0.00000000000E+00 -0.23237881463E+04  0.23237881463E+04  0.00000000000E+00 0.  1.
         23    2    1    2    0    0  0.14836270394E+04  0.73500021284E+03 -0.15695924585E+04  0.22832436294E+04  0.90589625684E+02 0.  0.
         11    1    3    3    0    0  0.51023165250E+03  0.29794379317E+03 -0.58097377375E+03  0.82863584818E+03  0.00000000000E+00 0.  1.
        -11    1    3    3    0    0  0.97339538691E+03  0.43705641967E+03 -0.98861868478E+03  0.14546077812E+04  0.00000000000E+00 0. -1.
         22    1    1    2    0    0 -0.14836270394E+04 -0.73500021284E+03  0.13273284146E+04  0.21220686193E+04  0.00000000000E+00 0. -1.
<mgrwt>
<rscale>  0 0.43986457E+04</rscale>
<asrwt>0</asrwt>
<pdfrwt beam="1">  1        2 0.32023448E+00 0.43986457E+04</pdfrwt>
<pdfrwt beam="2">  1       -2 0.35750587E+00 0.43986457E+04</pdfrwt>
<totfact> 0.64106790E-02</totfact>
</mgrwt>
</event>
<event>
 6    1  0.1072514E-005  0.6928448E+03  0.7818608E-02  0.9729547E-01
         -2   -1    0    0    0  501 -0.00000000000E+00  0.00000000000E+00  0.39324871804E+02  0.39324871804E+02  0.00000000000E+00 0.  1.
          2   -1    0    0  501    0  0.00000000000E+00 -0.00000000000E+00 -0.30517192638E+04  0.30517192638E+04  0.00000000000E+00 0. -1.
         23    2    1    2    0    0  0.16649125990E+02  0.12734658989E+03 -0.29387767253E+04  0.29430106657E+04  0.91699455114E+02 0.  0.
         13    1    3    3    0    0  0.35688051277E+02  0.13312510549E+03 -0.25347759254E+04  0.25385202230E+04  0.00000000000E+00 0.  1.
        -13    1    3    3    0    0 -0.19038925287E+02 -0.57785155971E+01 -0.40400079990E+03  0.40449044270E+03  0.00000000000E+00 0. -1.
         22    1    1    2    0    0 -0.16649125990E+02 -0.12734658989E+03 -0.73617666690E+02  0.14803346987E+03  0.00000000000E+00 0.  1.
<mgrwt>
<rscale>  0 0.69284477E+03</rscale>
<asrwt>0</asrwt>
<pdfrwt beam="1">  1        2 0.46949527E+00 0.69284477E+03</pdfrwt>
<pdfrwt beam="2">  1       -2 0.60499803E-02 0.69284477E+03</pdfrwt>
<totfact> 0.26343041E+02</totfact>
</mgrwt>
</event>
<event>
 6    1  0.1072514E-005  0.5220800E+03  0.7818608E-02  0.1008171E+00
          2   -1    0    0  501    0  0.00000000000E+00  0.00000000000E+00  0.71389379495E+03  0.71389379495E+03  0.00000000000E+00 0.  1.
         -2   -1    0    0    0  501 -0.00000000000E+00 -0.00000000000E+00 -0.95450990298E+02  0.95450990298E+02  0.00000000000E+00 0. -1.
         23    2    1    2    0    0 -0.11746096826E+02 -0.38654680801E+02  0.70630919797E+03  0.71263564290E+03  0.85701349162E+02 0.  0.
         11    1    3    3    0    0 -0.62644323476E+01 -0.65957652902E+02  0.53325339404E+03  0.53735354967E+03  0.00000000000E+00 0. -1.
        -11    1    3    3    0    0 -0.54816644788E+01  0.27302972100E+02  0.17305580394E+03  0.17528209323E+03  0.00000000000E+00 0.  1.
         22    1    1    2    0    0  0.11746096826E+02  0.38654680801E+02 -0.87866393322E+02  0.96709142349E+02  0.00000000000E+00 0. -1.
<mgrwt>
<rscale>  0 0.52207995E+03</rscale>
<asrwt>0</asrwt>
<pdfrwt beam="1">  1        2 0.10982981E+00 0.52207995E+03</pdfrwt>
<pdfrwt beam="2">  1       -2 0.14684768E-01 0.52207995E+03</pdfrwt>
<totfact> 0.14544576E+03</totfact>
</mgrwt>
</event>
<event>
 6    1  0.1072514E-005  0.3055315E+04  0.7818608E-02  0.8228109E-01
          2   -1    0    0  501    0  0.00000000000E+00  0.00000000000E+00  0.17381438463E+04  0.17381438463E+04  0.00000000000E+00 0. -1.
         -2   -1    0    0    0  501 -0.00000000000E+00 -0.00000000000E+00 -0.13426611285E+04  0.13426611285E+04  0.00000000000E+00 0.  1.
         23    2    1    2    0    0 -0.67622598964E+03  0.64449449636E+02 -0.11803114192E+04  0.13648322236E+04  0.90535251101E+02 0.  0.
         11    1    3    3    0    0 -0.38759728501E+03  0.30083084653E+02 -0.76209307452E+03  0.85552469371E+03  0.00000000000E+00 0.  1.
        -11    1    3    3    0    0 -0.28862870463E+03  0.34366364984E+02 -0.41821834465E+03  0.50930752986E+03  0.00000000000E+00 0. -1.
         22    1    1    2    0    0  0.67622598964E+03 -0.64449449636E+02  0.15757941370E+04  0.17159727512E+04  0.00000000000E+00 0. -1.
<mgrwt>
<rscale>  0 0.30553155E+04</rscale>
<asrwt>0</asrwt>
<pdfrwt beam="1">  1        2 0.26740675E+00 0.30553155E+04</pdfrwt>
<pdfrwt beam="2">  1       -2 0.20656325E+00 0.30553155E+04</pdfrwt>
<totfact> 0.95917635E-01</totfact>
</mgrwt>
</event>
<event>
 6    1  0.1135044E-005  0.2131989E+04  0.7818608E-02  0.8547281E-01
         -2   -1    0    0    0  501 -0.00000000000E+00  0.00000000000E+00  0.37923747944E+03  0.37923747944E+03  0.00000000000E+00 0.  1.
          2   -1    0    0  501    0  0.00000000000E+00 -0.00000000000E+00 -0.29963922428E+04  0.29963922428E+04  0.00000000000E+00 0. -1.
         23    2    1    2    0    0  0.11306814446E+03  0.35555349351E+03 -0.28887390600E+04  0.29141530466E+04  0.90950151143E+02 0.  0.
         11    1    3    3    0    0  0.80019059418E+02  0.17542432988E+03 -0.17771481481E+04  0.17875772111E+04  0.00000000000E+00 0. -1.
        -11    1    3    3    0    0  0.33049085039E+02  0.18012916363E+03 -0.11115909119E+04  0.11265758355E+04  0.00000000000E+00 0.  1.
         22    1    1    2    0    0 -0.11306814446E+03 -0.35555349351E+03  0.27158429662E+03  0.46147667569E+03  0.00000000000E+00 0.  1.
<mgrwt>
<rscale>  0 0.21319890E+04</rscale>
<asrwt>0</asrwt>
<pdfrwt beam="1">  1        2 0.46098343E+00 0.21319890E+04</pdfrwt>
<pdfrwt beam="2">  1       -2 0.58344226E-01 0.21319890E+04</pdfrwt>
<totfact> 0.44271319E+00</totfact>
</mgrwt>
</event>
<event>
 6    1  0.1072514E-005  0.1208819E+04  0.7818608E-02  0.9105172E-01
          1   -1    0    0  501    0  0.00000000000E+00  0.00000000000E+00  0.11571500086E+04  0.11571500086E+04  0.00000000000E+00 0. -1.
         -1   -1    0    0    0  501 -0.00000000000E+00 -0.00000000000E+00 -0.31569897812E+03  0.31569897812E+03  0.00000000000E+00 0.  1.
         23    2    1    2    0    0 -0.32533129091E+03 -0.33476337858E+03  0.88446773077E+03  0.10040660892E+04  0.89210852822E+02 0.  0.
         11    1    3    3    0    0 -0.19626558275E+03 -0.21455988204E+03  0.63644426202E+03  0.69972667565E+03  0.00000000000E+00 0. -1.
        -11    1    3    3    0    0 -0.12906570815E+03 -0.12020349654E+03  0.24802346876E+03  0.30433941357E+03  0.00000000000E+00 0.  1.
         22    1    1    2    0    0  0.32533129091E+03  0.33476337858E+03 -0.43016700291E+02  0.46878289750E+03  0.00000000000E+00 0.  1.
<mgrwt>
<rscale>  0 0.12088194E+04</rscale>
<asrwt>0</asrwt>
<pdfrwt beam="1">  1        1 0.17802308E+00 0.12088194E+04</pdfrwt>
<pdfrwt beam="2">  1       -1 0.48569074E-01 0.12088194E+04</pdfrwt>
<totfact> 0.48195622E+01</totfact>
</mgrwt>
</event>
<event>
 6    1  0.1072514E-005  0.1542364E+04  0.7818608E-02  0.8856760E-01
         -2   -1    0    0    0  501 -0.00000000000E+00  0.00000000000E+00  0.38154901808E+03  0.38154901808E+03  0.00000000000E+00 0.  1.
          2   -1    0    0  501    0  0.00000000000E+00 -0.00000000000E+00 -0.15587028170E+04  0.15587028170E+04  0.00000000000E+00 0. -1.
         23    2    1    2    0    0 -0.27686983763E+03 -0.24608041727E+03 -0.14373609748E+04  0.14875706525E+04  0.98221156427E+02 0.  0.
         11    1    3    3    0    0 -0.10145173728E+03 -0.13043974558E+03 -0.78521056648E+03  0.80241050338E+03  0.00000000000E+00 0. -1.
        -11    1    3    3    0    0 -0.17541810034E+03 -0.11564067169E+03 -0.65215040829E+03  0.68516014910E+03  0.00000000000E+00 0.  1.
         22    1    1    2    0    0  0.27686983763E+03  0.24608041727E+03  0.26020717582E+03  0.45268118262E+03  0.00000000000E+00 0.  1.
<mgrwt>
<rscale>  0 0.15423638E+04</rscale>
<asrwt>0</asrwt>
<pdfrwt beam="1">  1        2 0.23980043E+00 0.15423638E+04</pdfrwt>
<pdfrwt beam="2">  1       -2 0.58699850E-01 0.15423638E+04</pdfrwt>
<totfact> 0.30727171E+01</totfact>
</mgrwt>
</event>
<event>
 6    1  0.1072514E-005  0.2042284E+04  0.7818608E-02  0.8587103E-01
          4   -1    0    0  501    0  0.00000000000E+00  0.00000000000E+00  0.22960437867E+04  0.22960437867E+04  0.00000000000E+00 0. -1.
         -4   -1    0    0    0  501 -0.00000000000E+00 -0.00000000000E+00 -0.45414245496E+03  0.45414245496E+03  0.00000000000E+00 0.  1.
         23    2    1    2    0    0 -0.12111695805E+03  0.19390020650E+02  0.22851409227E+04  0.22902877470E+04  0.92215166848E+02 0.  0.
         11    1    3    3    0    0 -0.51390821298E+01  0.32535215456E+02  0.32208750747E+03  0.32376737463E+03  0.00000000000E+00 0.  1.
        -11    1    3    3    0    0 -0.11597787592E+03 -0.13145194807E+02  0.19630534152E+04  0.19665203723E+04  0.00000000000E+00 0. -1.
         22    1    1    2    0    0  0.12111695805E+03 -0.19390020650E+02 -0.44323959095E+03  0.45989849468E+03  0.00000000000E+00 0.  1.
<mgrwt>
<rscale>  0 0.20422840E+04</rscale>
<asrwt>0</asrwt>
<pdfrwt beam="1">  1        4 0.35323750E+00 0.20422840E+04</pdfrwt>
<pdfrwt beam="2">  1       -4 0.69868071E-01 0.20422840E+04</pdfrwt>
<totfact> 0.49320465E-02</totfact>
</mgrwt>
</event>
<event>
 6    1  0.1072514E-005  0.2607651E+04  0.7818608E-02  0.8365607E-01
         -1   -1    0    0    0  501 -0.00000000000E+00  0.00000000000E+00  0.38953205906E+04  0.38953205906E+04  0.00000000000E+00 0.  1.
          1   -1    0    0  501    0  0.00000000000E+00 -0.00000000000E+00 -0.43641094230E+03  0.43641094230E+03  0.00000000000E+00 0. -1.
         23    2    1    2    0    0 -0.12988113380E+03  0.35184606247E+03  0.38031085913E+04  0.38226758650E+04  0.92471896667E+02 0.  0.
         13    1    3    3    0    0 -0.53580661731E+02  0.25742179575E+03  0.24164772229E+04  0.24307404298E+04  0.00000000000E+00 0. -1.
        -13    1    3    3    0    0 -0.76300472067E+02  0.94424266727E+02  0.13866313683E+04  0.13919354352E+04  0.00000000000E+00 0.  1.
         22    1    1    2    0    0  0.12988113380E+03 -0.35184606247E+03 -0.34419894299E+03  0.50905566783E+03  0.00000000000E+00 0. -1.
<mgrwt>
<rscale>  0 0.26076507E+04</rscale>
<asrwt>0</asrwt>
<pdfrwt beam="1">  1        1 0.67140148E-01 0.26076507E+04</pdfrwt>
<pdfrwt beam="2">  1       -1 0.59928007E+00 0.26076507E+04</pdfrwt>
<totfact> 0.20517176E-02</totfact>
</mgrwt>
</event>
<event>
 6    1  0.1072514E-005  0.1897625E+04  0.7818608E-02  0.8656039E-01
          1   -1    0    0  501    0  0.00000000000E+00  0.00000000000E+00  0.18474661454E+04  0.18474661454E+04  0.00000000000E+00 0.  1.
         -1   -1    0    0    0  501 -0.00000000000E+00 -0.00000000000E+00 -0.48728640307E+03  0.48728640307E+03  0.00000000000E+00 0. -1.
         23    2    1    2    0    0 -0.50265183976E+03  0.77110002569E+03  0.40999757578E+03  0.10118389945E+04  0.92010961477E+02 0.  0.
         11    1    3    3    0    0 -0.17787241635E+03  0.32457878712E+03  0.20325047121E+03  0.42225672238E+03  0.00000000000E+00 0.  1.
        -11    1    3    3    0    0 -0.32477942341E+03  0.44652123857E+03  0.20674710457E+03  0.58958227213E+03  0.00000000000E+00 0. -1.
         22    1    1    2    0    0  0.50265183976E+03 -0.77110002569E+03  0.95018216658E+03  0.13229135540E+04  0.00000000000E+00 0.  1.
<mgrwt>
<rscale>  0 0.18976250E+04</rscale>
<asrwt>0</asrwt>
<pdfrwt beam="1">  1        1 0.28422556E+00 0.18976250E+04</pdfrwt>
<pdfrwt beam="2">  1       -1 0.74967140E-01 0.18976250E+04</pdfrwt>
<totfact> 0.63337346E+00</totfact>
</mgrwt>
</event>
<event>
 6    1  0.1072514E-005  0.1698896E+04  0.7818608E-02  0.8761994E-01
         -1   -1    0    0    0  501 -0.00000000000E+00  0.00000000000E+00  0.16571686311E+04  0.16571686311E+04  0.00000000000E+00 0.  1.
          1   -1    0    0  501    0  0.00000000000E+00 -0.00000000000E+00 -0.43541867214E+03  0.43541867214E+03  0.00000000000E+00 0. -1.
         23    2    1    2    0    0 -0.53788506368E+03  0.59659783345E+03  0.28153195679E+03  0.85595509914E+03  0.90274982309E+02 0.  0.
         13    1    3    3    0    0 -0.28399521224E+03  0.35553598055E+03  0.12129163307E+03  0.47092544452E+03  0.00000000000E+00 0.  1.
        -13    1    3    3    0    0 -0.25388985144E+03  0.24106185290E+03  0.16024032372E+03  0.38502965462E+03  0.00000000000E+00 0. -1.
         22    1    1    2    0    0  0.53788506368E+03 -0.59659783345E+03  0.94021800212E+03  0.12366322041E+04  0.00000000000E+00 0.  1.
<mgrwt>
<rscale>  0 0.16988963E+04</rscale>
<asrwt>0</asrwt>
<pdfrwt beam="1">  1        1 0.66987489E-01 0.16988963E+04</pdfrwt>
<pdfrwt beam="2">  1       -1 0.25494902E+00 0.16988963E+04</pdfrwt>
<totfact> 0.32987901E+00</totfact>
</mgrwt>
</event>
<event>
 6    1  0.1072514E-005  0.4961818E+04  0.7818608E-02  0.7834424E-01
         -2   -1    0    0    0  501 -0.00000000000E+00  0.00000000000E+00  0.14987877082E+04  0.14987877082E+04  0.00000000000E+00 0.  1.
          2   -1    0    0  501    0  0.00000000000E+00 -0.00000000000E+00 -0.41065924428E+04  0.41065924428E+04  0.00000000000E+00 0. -1.
         23    2    1    2    0    0  0.41815173010E+03 -0.19413572048E+04  0.37384782662E+03  0.20229269885E+04  0.93556064709E+02 0.  0.
         11    1    3    3    0    0  0.23084494385E+03 -0.90180794866E+03  0.14462847582E+03  0.94205326834E+03  0.00000000000E+00 0. -1.
        -11    1    3    3    0    0  0.18730678625E+03 -0.10395492562E+04  0.22921935081E+03  0.10808737202E+04  0.00000000000E+00 0.  1.
         22    1    1    2    0    0 -0.41815173010E+03  0.19413572048E+04 -0.29816525612E+04  0.35824531625E+04  0.00000000000E+00 0. -1.
<mgrwt>
<rscale>  0 0.49618183E+04</rscale>
<asrwt>0</asrwt>
<pdfrwt beam="1">  1        2 0.63178345E+00 0.49618183E+04</pdfrwt>
<pdfrwt beam="2">  1       -2 0.23058273E+00 0.49618183E+04</pdfrwt>
<totfact> 0.17205038E-02</totfact>
</mgrwt>
</event>
<event>
 6    1  0.1072514E-005  0.8649539E+03  0.7818608E-02  0.9470483E-01
          1   -1    0    0  501    0  0.00000000000E+00  0.00000000000E+00  0.42097117199E+03  0.42097117199E+03  0.00000000000E+00 0. -1.
         -1   -1    0    0    0  501 -0.00000000000E+00 -0.00000000000E+00 -0.44429718244E+03  0.44429718244E+03  0.00000000000E+00 0.  1.
         23    2    1    2    0    0  0.15257698800E+03  0.21359153096E+03  0.32603253860E+03  0.42828726198E+03  0.90728623807E+02 0.  0.
         13    1    3    3    0    0  0.14405871704E+03  0.16943205719E+03  0.30784689911E+03  0.37977605144E+03  0.00000000000E+00 0. -1.
        -13    1    3    3    0    0  0.85182709685E+01  0.44159473767E+02  0.18185639493E+02  0.48511210534E+02  0.00000000000E+00 0.  1.
         22    1    1    2    0    0 -0.15257698800E+03 -0.21359153096E+03 -0.34935854905E+03  0.43698109245E+03  0.00000000000E+00 0.  1.
<mgrwt>
<rscale>  0 0.86495388E+03</rscale>
<asrwt>0</asrwt>
<pdfrwt beam="1">  1        1 0.64764796E-01 0.86495388E+03</pdfrwt>
<pdfrwt beam="2">  1       -1 0.68353412E-01 0.86495388E+03</pdfrwt>
<totfact> 0.12258870E+02</totfact>
</mgrwt>
</event>
<event>
 6    1  0.1072514E-005  0.2551810E+04  0.7818608E-02  0.8384757E-01
          1   -1    0    0  501    0  0.00000000000E+00  0.00000000000E+00  0.15793048605E+04  0.15793048605E+04  0.00000000000E+00 0. -1.
         -1   -1    0    0    0  501 -0.00000000000E+00 -0.00000000000E+00 -0.10307910168E+04  0.10307910168E+04  0.00000000000E+00 0.  1.
         23    2    1    2    0    0 -0.12362045075E+04  0.30941593239E+03  0.25842998324E+03  0.13031572981E+04  0.86562599708E+02 0.  0.
         13    1    3    3    0    0 -0.50777226918E+03  0.12076084725E+03  0.14892449567E+03  0.54276547881E+03  0.00000000000E+00 0. -1.
        -13    1    3    3    0    0 -0.72843223834E+03  0.18865508514E+03  0.10950548756E+03  0.76039181926E+03  0.00000000000E+00 0.  1.
         22    1    1    2    0    0  0.12362045075E+04 -0.30941593239E+03  0.29008386045E+03  0.13069385792E+04  0.00000000000E+00 0. -1.
<mgrwt>
<rscale>  0 0.25518098E+04</rscale>
<asrwt>0</asrwt>
<pdfrwt beam="1">  1        1 0.24296998E+00 0.25518098E+04</pdfrwt>
<pdfrwt beam="2">  1       -1 0.15858323E+00 0.25518098E+04</pdfrwt>
<totfact> 0.15277975E+00</totfact>
</mgrwt>
</event>
<event>
 6    1  0.1072514E-005  0.4093992E+04  0.7818608E-02  0.7985849E-01
         -2   -1    0    0    0  501 -0.00000000000E+00  0.00000000000E+00  0.15665338632E+04  0.15665338632E+04  0.00000000000E+00 0.  1.
          2   -1    0    0  501    0  0.00000000000E+00 -0.00000000000E+00 -0.26748178027E+04  0.26748178027E+04  0.00000000000E+00 0. -1.
         23    2    1    2    0    0  0.18122744753E+04 -0.94752358788E+03 -0.49002283763E+03  0.21049091758E+04  0.91545252444E+02 0.  0.
         11    1    3    3    0    0  0.18550824783E+03 -0.99749019513E+02 -0.79403956400E+02  0.22509590223E+03  0.00000000000E+00 0. -1.
        -11    1    3    3    0    0  0.16267662275E+04 -0.84777456836E+03 -0.41061888123E+03  0.18798132735E+04  0.00000000000E+00 0.  1.
         22    1    1    2    0    0 -0.18122744753E+04  0.94752358788E+03 -0.61826110183E+03  0.21364424901E+04  0.00000000000E+00 0. -1.
<mgrwt>
<rscale>  0 0.40939920E+04</rscale>
<asrwt>0</asrwt>
<pdfrwt beam="1">  1        2 0.41151043E+00 0.40939920E+04</pdfrwt>
<pdfrwt beam="2">  1       -2 0.24100521E+00 0.40939920E+04</pdfrwt>
<totfact> 0.15712697E-01</totfact>
</mgrwt>
</event>
<event>
 6    1  0.1072514E-005  0.3072017E+04  0.7818608E-02  0.8223460E-01
          2   -1    0    0  501    0  0.00000000000E+00  0.00000000000E+00  0.12225479497E+04  0.12225479497E+04  0.00000000000E+00 0. -1.
         -2   -1    0    0    0  501 -0.00000000000E+00 -0.00000000000E+00 -0.19298395591E+04  0.19298395591E+04  0.00000000000E+00 0.  1.
         23    2    1    2    0    0  0.55143569420E+02 -0.84623849186E+03 -0.16664647669E+04  0.18720853786E+04  0.91861020687E+02 0.  0.
         11    1    3    3    0    0  0.66753635117E+01 -0.22298246503E+03 -0.35547094606E+03  0.41967288890E+03  0.00000000000E+00 0. -1.
        -11    1    3    3    0    0  0.48468205908E+02 -0.62325602684E+03 -0.13109938208E+04  0.14524124897E+04  0.00000000000E+00 0.  1.
         22    1    1    2    0    0 -0.55143569420E+02  0.84623849186E+03  0.95917315755E+03  0.12803021302E+04  0.00000000000E+00 0.  1.
<mgrwt>
<rscale>  0 0.30720165E+04</rscale>
<asrwt>0</asrwt>
<pdfrwt beam="1">  1        2 0.18808430E+00 0.30720165E+04</pdfrwt>
<pdfrwt beam="2">  1       -2 0.29689839E+00 0.30720165E+04</pdfrwt>
<totfact> 0.51881314E-01</totfact>
</mgrwt>
</event>
<event>
 6    1  0.1072514E-005  0.1543744E+04  0.7818608E-02  0.8855874E-01
          2   -1    0    0  501    0  0.00000000000E+00  0.00000000000E+00  0.36485100937E+03  0.36485100937E+03  0.00000000000E+00 0. -1.
         -2   -1    0    0    0  501 -0.00000000000E+00 -0.00000000000E+00 -0.16329583379E+04  0.16329583379E+04  0.00000000000E+00 0.  1.
         23    2    1    2    0    0  0.73779400932E+03 -0.15761087330E+03 -0.83077913687E+03  0.11257788806E+04  0.89459075626E+02 0.  0.
         11    1    3    3    0    0  0.32074540591E+03 -0.93097783771E+02 -0.31213135507E+03  0.45713323613E+03  0.00000000000E+00 0.  1.
        -11    1    3    3    0    0  0.41704860342E+03 -0.64513089530E+02 -0.51864778180E+03  0.66864564449E+03  0.00000000000E+00 0. -1.
         22    1    1    2    0    0 -0.73779400932E+03  0.15761087330E+03 -0.43732819170E+03  0.87203046669E+03  0.00000000000E+00 0. -1.
<mgrwt>
<rscale>  0 0.15437441E+04</rscale>
<asrwt>0</asrwt>
<pdfrwt beam="1">  1        2 0.56130925E-01 0.15437441E+04</pdfrwt>
<pdfrwt beam="2">  1       -2 0.25122436E+00 0.15437441E+04</pdfrwt>
<totfact> 0.53671153E+00</totfact>
</mgrwt>
</event>
<event>
 6    1  0.1072514E-005  0.1309587E+04  0.7818608E-02  0.9021997E-01
         -1   -1    0    0    0  501 -0.00000000000E+00  0.00000000000E+00  0.14333267844E+03  0.14333267844E+03  0.00000000000E+00 0.  1.
          1   -1    0    0  501    0  0.00000000000E+00 -0.00000000000E+00 -0.29913263990E+04  0.29913263990E+04  0.00000000000E+00 0. -1.
         23    2    1    2    0    0  0.31385726234E+03 -0.55879271269E+03 -0.11497861277E+04  0.13195379506E+04  0.91741956547E+02 0.  0.
         11    1    3    3    0    0  0.23521675348E+03 -0.32851090895E+03 -0.72614588662E+03  0.83098386692E+03  0.00000000000E+00 0.  1.
        -11    1    3    3    0    0  0.78640508861E+02 -0.23028180374E+03 -0.42364024111E+03  0.48855408366E+03  0.00000000000E+00 0. -1.
         22    1    1    2    0    0 -0.31385726234E+03  0.55879271269E+03 -0.16982075928E+04  0.18151211268E+04  0.00000000000E+00 0.  1.
<mgrwt>
<rscale>  0 0.13095875E+04</rscale>
<asrwt>0</asrwt>
<pdfrwt beam="1">  1        1 0.46020403E+00 0.13095875E+04</pdfrwt>
<pdfrwt beam="2">  1       -1 0.22051183E-01 0.13095875E+04</pdfrwt>
<totfact> 0.10434060E+01</totfact>
</mgrwt>
</event>
<event>
 6    1  0.1072514E-005  0.2723612E+04  0.7818608E-02  0.8327384E-01
         -1   -1    0    0    0  501 -0.00000000000E+00  0.00000000000E+00  0.13854050769E+04  0.13854050769E+04  0.00000000000E+00 0.  1.
          1   -1    0    0  501    0  0.00000000000E+00 -0.00000000000E+00 -0.13386088703E+04  0.13386088703E+04  0.00000000000E+00 0. -1.
         23    2    1    2    0    0  0.38100580375E+03 -0.91159141741E+03 -0.91171547882E+03  0.13474570156E+04  0.90834793825E+02 0.  0.
         11    1    3    3    0    0  0.26468254736E+03 -0.52374875507E+03 -0.51977672962E+03  0.78392439557E+03  0.00000000000E+00 0.  1.
        -11    1    3    3    0    0  0.11632325639E+03 -0.38784266234E+03 -0.39193874921E+03  0.56353262003E+03  0.00000000000E+00 0. -1.
         22    1    1    2    0    0 -0.38100580375E+03  0.91159141741E+03  0.95851168546E+03  0.13765569316E+04  0.00000000000E+00 0.  1.
<mgrwt>
<rscale>  0 0.27236120E+04</rscale>
<asrwt>0</asrwt>
<pdfrwt beam="1">  1        1 0.20593983E+00 0.27236120E+04</pdfrwt>
<pdfrwt beam="2">  1       -1 0.21313924E+00 0.27236120E+04</pdfrwt>
<totfact> 0.90562007E-01</totfact>
</mgrwt>
</event>
<event>
 6    1  0.1072514E-005  0.9000505E+03  0.7818608E-02  0.9425518E-01
         -2   -1    0    0    0  501 -0.00000000000E+00  0.00000000000E+00  0.18710103497E+03  0.18710103497E+03  0.00000000000E+00 0.  1.
          2   -1    0    0  501    0  0.00000000000E+00 -0.00000000000E+00 -0.10824244721E+04  0.10824244721E+04  0.00000000000E+00 0. -1.
         23    2    1    2    0    0  0.40540192058E+03 -0.11835025422E+03 -0.25204792842E+03  0.50000560481E+03  0.90110747087E+02 0.  0.
         13    1    3    3    0    0  0.28432324993E+03 -0.94858737779E+02 -0.22219798796E+03  0.37310834410E+03  0.00000000000E+00 0. -1.
        -13    1    3    3    0    0  0.12107867064E+03 -0.23491516441E+02 -0.29849940455E+02  0.12689726071E+03  0.00000000000E+00 0.  1.
         22    1    1    2    0    0 -0.40540192058E+03  0.11835025422E+03 -0.64327550875E+03  0.76951990230E+03  0.00000000000E+00 0. -1.
<mgrwt>
<rscale>  0 0.90005053E+03</rscale>
<asrwt>0</asrwt>
<pdfrwt beam="1">  1        2 0.16652684E+00 0.90005053E+03</pdfrwt>
<pdfrwt beam="2">  1       -2 0.28784775E-01 0.90005053E+03</pdfrwt>
<totfact> 0.24767649E+02</totfact>
</mgrwt>
</event>
<event>
 6    1  0.1072514E-005  0.8601800E+03  0.7818608E-02  0.9476775E-01
          2   -1    0    0  501    0  0.00000000000E+00  0.00000000000E+00  0.93703275225E+03  0.93703275225E+03  0.00000000000E+00 0. -1.
         -2   -1    0    0    0  501 -0.00000000000E+00 -0.00000000000E+00 -0.19740762790E+03  0.19740762790E+03  0.00000000000E+00 0.  1.
         23    2    1    2    0    0 -0.35291308061E+02  0.21317203676E+03  0.85701425496E+03  0.88853795710E+03  0.91315246916E+02 0.  0.
         13    1    3    3    0    0  0.95639002371E+00  0.13542623433E+03  0.36955675422E+03  0.39359036347E+03  0.00000000000E+00 0.  1.
        -13    1    3    3    0    0 -0.36247698085E+02  0.77745802434E+02  0.48745750074E+03  0.49494759363E+03  0.00000000000E+00 0. -1.
         22    1    1    2    0    0  0.35291308061E+02 -0.21317203676E+03 -0.11738913061E+03  0.24590242306E+03  0.00000000000E+00 0.  1.
<mgrwt>
<rscale>  0 0.86018001E+03</rscale>
<asrwt>0</asrwt>
<pdfrwt beam="1">  1        2 0.14415888E+00 0.86018001E+03</pdfrwt>
<pdfrwt beam="2">  1       -2 0.30370405E-01 0.86018001E+03</pdfrwt>
<totfact> 0.27823152E+02</totfact>
</mgrwt>
</event>
<event>
 6    1  0.1072514E-005  0.1887341E+04  0.7818608E-02  0.8661183E-01
         -2   -1    0    0    0  501 -0.00000000000E+00  0.00000000000E+00  0.14452272785E+04  0.14452272785E+04  0.00000000000E+00 0. -1.
          2   -1    0    0  501    0  0.00000000000E+00 -0.00000000000E+00 -0.61617560560E+03  0.61617560560E+03  0.00000000000E+00 0.  1.
         23    2    1    2    0    0 -0.93544817595E+02  0.19393178368E+03  0.14163518807E+04  0.14358777418E+04  0.96602639030E+02 0.  0.
         13    1    3    3    0    0 -0.92801565426E+02  0.18195236353E+03  0.10701387926E+04  0.10894566667E+04  0.00000000000E+00 0.  1.
        -13    1    3    3    0    0 -0.74325216945E+00  0.11979420154E+02  0.34621308809E+03  0.34642107513E+03  0.00000000000E+00 0. -1.
         22    1    1    2    0    0  0.93544817595E+02 -0.19393178368E+03 -0.58730020776E+03  0.62552514231E+03  0.00000000000E+00 0.  1.
<mgrwt>
<rscale>  0 0.18873408E+04</rscale>
<asrwt>0</asrwt>
<pdfrwt beam="1">  1        2 0.94796247E-01 0.18873408E+04</pdfrwt>
<pdfrwt beam="2">  1       -2 0.22234266E+00 0.18873408E+04</pdfrwt>
<totfact> 0.42973083E+00</totfact>
</mgrwt>
</event>
<event>
 6    1  0.1072514E-005  0.4027933E+04  0.7818608E-02  0.7998935E-01
         -1   -1    0    0    0  501 -0.00000000000E+00  0.00000000000E+00  0.27229228782E+04  0.27229228782E+04  0.00000000000E+00 0.  1.
          1   -1    0    0  501    0  0.00000000000E+00 -0.00000000000E+00 -0.14895983154E+04  0.14895983154E+04  0.00000000000E+00 0. -1.
         23    2    1    2    0    0  0.27237967506E+03  0.64715932063E+02  0.27016415418E+04  0.27177524522E+04  0.94512073190E+02 0.  0.
         13    1    3    3    0    0  0.12575564937E+03 -0.15344612174E+02  0.13131800895E+04  0.13192770323E+04  0.00000000000E+00 0. -1.
        -13    1    3    3    0    0  0.14662402569E+03  0.80060544238E+02  0.13884614523E+04  0.13984754199E+04  0.00000000000E+00 0.  1.
         22    1    1    2    0    0 -0.27237967506E+03 -0.64715932063E+02 -0.14683169790E+04  0.14947687413E+04  0.00000000000E+00 0. -1.
<mgrwt>
<rscale>  0 0.40279331E+04</rscale>
<asrwt>0</asrwt>
<pdfrwt beam="1">  1        1 0.22916897E+00 0.40279331E+04</pdfrwt>
<pdfrwt beam="2">  1       -1 0.41891121E+00 0.40279331E+04</pdfrwt>
<totfact> 0.27535703E-02</totfact>
</mgrwt>
</event>
<event>
 6    1  0.1072514E-005  0.3357308E+04  0.7818608E-02  0.8148465E-01
          1   -1    0    0  501    0  0.00000000000E+00  0.00000000000E+00  0.12733491161E+04  0.12733491161E+04  0.00000000000E+00 0.  1.
         -1   -1    0    0    0  501 -0.00000000000E+00 -0.00000000000E+00 -0.22129667986E+04  0.22129667986E+04  0.00000000000E+00 0. -1.
         23    2    1    2    0    0 -0.15583616017E+04  0.62005707676E+03 -0.46700185352E+03  0.17438098511E+04  0.99097960035E+02 0.  0.
         11    1    3    3    0    0 -0.10500225159E+04  0.43842517127E+03 -0.36024406862E+03  0.11935408262E+04  0.00000000000E+00 0.  1.
        -11    1    3    3    0    0 -0.50833908576E+03  0.18163190549E+03 -0.10675778490E+03  0.55026902496E+03  0.00000000000E+00 0. -1.
         22    1    1    2    0    0  0.15583616017E+04 -0.62005707676E+03 -0.47261582894E+03  0.17425060636E+04  0.00000000000E+00 0.  1.
<mgrwt>
<rscale>  0 0.33573080E+04</rscale>
<asrwt>0</asrwt>
<pdfrwt beam="1">  1        1 0.19589987E+00 0.33573080E+04</pdfrwt>
<pdfrwt beam="2">  1       -1 0.34045643E+00 0.33573080E+04</pdfrwt>
<totfact> 0.14018970E-01</totfact>
</mgrwt>
</event>
<event>
 6    1  0.1072514E-005  0.2040588E+04  0.7818608E-02  0.8587876E-01
         -1   -1    0    0    0  501 -0.00000000000E+00  0.00000000000E+00  0.23660876943E+04  0.23660876943E+04  0.00000000000E+00 0.  1.
          1   -1    0    0  501    0  0.00000000000E+00 -0.00000000000E+00 -0.43996659991E+03  0.43996659991E+03  0.00000000000E+00 0. -1.
         23    2    1    2    0    0  0.20993252447E+03 -0.73201267202E+03  0.18944702743E+04  0.20438758431E+04  0.92177139658E+02 0.  0.
         11    1    3    3    0    0  0.98571980782E+02 -0.28579569741E+03  0.64147404837E+03  0.70914354738E+03  0.00000000000E+00 0.  1.
        -11    1    3    3    0    0  0.11136054369E+03 -0.44621697462E+03  0.12529962259E+04  0.13347322958E+04  0.00000000000E+00 0. -1.
         22    1    1    2    0    0 -0.20993252447E+03  0.73201267202E+03  0.31650820050E+02  0.76217845105E+03  0.00000000000E+00 0. -1.
<mgrwt>
<rscale>  0 0.20405877E+04</rscale>
<asrwt>0</asrwt>
<pdfrwt beam="1">  1        1 0.67687171E-01 0.20405877E+04</pdfrwt>
<pdfrwt beam="2">  1       -1 0.36401348E+00 0.20405877E+04</pdfrwt>
<totfact> 0.61256083E-01</totfact>
</mgrwt>
</event>
<event>
 6    1  0.1072514E-005  0.2365301E+04  0.7818608E-02  0.8452610E-01
         -1   -1    0    0    0  501 -0.00000000000E+00  0.00000000000E+00  0.47720401014E+03  0.47720401014E+03  0.00000000000E+00 0.  1.
          1   -1    0    0  501    0  0.00000000000E+00 -0.00000000000E+00 -0.29309522078E+04  0.29309522078E+04  0.00000000000E+00 0. -1.
         23    2    1    2    0    0 -0.10796985829E+04  0.21537662517E+03 -0.18432695584E+04  0.21492597609E+04  0.97666444050E+02 0.  0.
         13    1    3    3    0    0 -0.55766594924E+03  0.78868855086E+02 -0.86917222259E+03  0.10356987785E+04  0.00000000000E+00 0. -1.
        -13    1    3    3    0    0 -0.52203263364E+03  0.13650777009E+03 -0.97409733584E+03  0.11135609824E+04  0.00000000000E+00 0.  1.
         22    1    1    2    0    0  0.10796985829E+04 -0.21537662517E+03 -0.61047863923E+03  0.12588964570E+04  0.00000000000E+00 0. -1.
<mgrwt>
<rscale>  0 0.23653010E+04</rscale>
<asrwt>0</asrwt>
<pdfrwt beam="1">  1        1 0.45091572E+00 0.23653010E+04</pdfrwt>
<pdfrwt beam="2">  1       -1 0.73416002E-01 0.23653010E+04</pdfrwt>
<totfact> 0.11277470E+00</totfact>
</mgrwt>
</event>
<event>
 6    1  0.1072514E-005  0.1188523E+04  0.7818608E-02  0.9122962E-01
          1   -1    0    0  501    0  0.00000000000E+00  0.00000000000E+00  0.22114924742E+04  0.22114924742E+04  0.00000000000E+00 0. -1.
         -1   -1    0    0    0  501 -0.00000000000E+00 -0.00000000000E+00 -0.15968708792E+03  0.15968708792E+03  0.00000000000E+00 0.  1.
         23    2    1    2    0    0  0.31544471061E+03 -0.44721503665E+03  0.14757055955E+04  0.15765742366E+04  0.91502264055E+02 0.  0.
         13    1    3    3    0    0  0.14838694000E+03 -0.28534462299E+03  0.81897244200E+03  0.87986140874E+03  0.00000000000E+00 0.  1.
        -13    1    3    3    0    0  0.16705777061E+03 -0.16187041366E+03  0.65673315355E+03  0.69671282787E+03  0.00000000000E+00 0. -1.
         22    1    1    2    0    0 -0.31544471061E+03  0.44721503665E+03  0.57609979076E+03  0.79460532554E+03  0.00000000000E+00 0. -1.
<mgrwt>
<rscale>  0 0.11885231E+04</rscale>
<asrwt>0</asrwt>
<pdfrwt beam="1">  1        1 0.34022959E+00 0.11885231E+04</pdfrwt>
<pdfrwt beam="2">  1       -1 0.24567246E-01 0.11885231E+04</pdfrwt>
<totfact> 0.30700210E+01</totfact>
</mgrwt>
</event>
<event>
 6    1  0.1072514E-005  0.1851949E+04  0.7818608E-02  0.8679151E-01
          1   -1    0    0  501    0  0.00000000000E+00  0.00000000000E+00  0.35547463613E+04  0.35547463613E+04  0.00000000000E+00 0. -1.
         -1   -1    0    0    0  501 -0.00000000000E+00 -0.00000000000E+00 -0.24120683075E+03  0.24120683075E+03  0.00000000000E+00 0.  1.
         23    2    1    2    0    0  0.35772545527E+03 -0.41355375148E+03  0.13512127544E+03  0.57084283562E+03  0.92787807351E+02 0.  0.
         11    1    3    3    0    0  0.19591553616E+03 -0.26887995987E+03  0.11847202298E+03  0.35315003944E+03  0.00000000000E+00 0.  1.
        -11    1    3    3    0    0  0.16180991911E+03 -0.14467379161E+03  0.16649252463E+02  0.21769279618E+03  0.00000000000E+00 0. -1.
         22    1    1    2    0    0 -0.35772545527E+03  0.41355375148E+03  0.31784182551E+04  0.32251103564E+04  0.00000000000E+00 0. -1.
<mgrwt>
<rscale>  0 0.18519494E+04</rscale>
<asrwt>0</asrwt>
<pdfrwt beam="1">  1        1 0.54688402E+00 0.18519494E+04</pdfrwt>
<pdfrwt beam="2">  1       -1 0.37108746E-01 0.18519494E+04</pdfrwt>
<totfact> 0.14928000E+00</totfact>
</mgrwt>
</event>
<event>
 6    1  0.1072514E-005  0.1287564E+04  0.7818608E-02  0.9039485E-01
          2   -1    0    0  501    0  0.00000000000E+00  0.00000000000E+00  0.70075921618E+03  0.70075921618E+03  0.00000000000E+00 0. -1.
         -2   -1    0    0    0  501 -0.00000000000E+00 -0.00000000000E+00 -0.59143755944E+03  0.59143755944E+03  0.00000000000E+00 0.  1.
         23    2    1    2    0    0  0.36974710698E+03 -0.32354840265E+03  0.46729714614E+03  0.68429633723E+03  0.92186562847E+02 0.  0.
         13    1    3    3    0    0  0.20523351780E+03 -0.16309020694E+03  0.30914800302E+03  0.40532912577E+03  0.00000000000E+00 0. -1.
        -13    1    3    3    0    0  0.16451358919E+03 -0.16045819571E+03  0.15814914313E+03  0.27896721146E+03  0.00000000000E+00 0.  1.
         22    1    1    2    0    0 -0.36974710698E+03  0.32354840265E+03 -0.35797548941E+03  0.60790043839E+03  0.00000000000E+00 0.  1.
<mgrwt>
<rscale>  0 0.12875641E+04</rscale>
<asrwt>0</asrwt>
<pdfrwt beam="1">  1        2 0.10780911E+00 0.12875641E+04</pdfrwt>
<pdfrwt beam="2">  1       -2 0.90990393E-01 0.12875641E+04</pdfrwt>
<totfact> 0.41375575E+01</totfact>
</mgrwt>
</event>
<event>
 6    1  0.1072514E-005  0.1875575E+04  0.7818608E-02  0.8667111E-01
          1   -1    0    0  501    0  0.00000000000E+00  0.00000000000E+00  0.17246424620E+04  0.17246424620E+04  0.00000000000E+00 0.  1.
         -1   -1    0    0    0  501 -0.00000000000E+00 -0.00000000000E+00 -0.50992894852E+03  0.50992894852E+03  0.00000000000E+00 0. -1.
         23    2    1    2    0    0  0.30851215341E+03  0.38913929480E+02 -0.44226886169E+03  0.54866375163E+03  0.93467232913E+02 0.  0.
         11    1    3    3    0    0  0.20233197783E+03 -0.29023056956E+01 -0.22064029090E+03  0.29938067840E+03  0.00000000000E+00 0. -1.
        -11    1    3    3    0    0  0.10618017558E+03  0.41816235176E+02 -0.22162857079E+03  0.24928307323E+03  0.00000000000E+00 0.  1.
         22    1    1    2    0    0 -0.30851215341E+03 -0.38913929480E+02  0.16569823752E+04  0.16859076589E+04  0.00000000000E+00 0.  1.
<mgrwt>
<rscale>  0 0.18755747E+04</rscale>
<asrwt>0</asrwt>
<pdfrwt beam="1">  1        1 0.26532961E+00 0.18755747E+04</pdfrwt>
<pdfrwt beam="2">  1       -1 0.78450608E-01 0.18755747E+04</pdfrwt>
<totfact> 0.69897514E+00</totfact>
</mgrwt>
</event>
<event>
 6    1  0.1073417E-005  0.2444862E+04  0.7818608E-02  0.8422896E-01
         -2   -1    0    0    0  501 -0.00000000000E+00  0.00000000000E+00  0.77488849386E+03  0.77488849386E+03  0.00000000000E+00 0.  1.
          2   -1    0    0  501    0  0.00000000000E+00 -0.00000000000E+00 -0.19284548783E+04  0.19284548783E+04  0.00000000000E+00 0. -1.
         23    2    1    2    0    0 -0.55686125828E+03  0.10845178613E+04 -0.50382217128E+03  0.13218800194E+04  0.85185404512E+02 0.  0.
         11    1    3    3    0    0 -0.15124975426E+03  0.23678738824E+03 -0.90013050974E+02  0.29503746329E+03  0.00000000000E+00 0. -1.
        -11    1    3    3    0    0 -0.40561150401E+03  0.84773047301E+03 -0.41380912031E+03  0.10268425561E+04  0.00000000000E+00 0.  1.
         22    1    1    2    0    0  0.55686125828E+03 -0.10845178613E+04 -0.64974421312E+03  0.13814633527E+04  0.00000000000E+00 0.  1.
<mgrwt>
<rscale>  0 0.24448620E+04</rscale>
<asrwt>0</asrwt>
<pdfrwt beam="1">  1        2 0.29668537E+00 0.24448620E+04</pdfrwt>
<pdfrwt beam="2">  1       -2 0.11921361E+00 0.24448620E+04</pdfrwt>
<totfact> 0.35409313E+00</totfact>
</mgrwt>
</event>
<event>
 6    1  0.1072514E-005  0.1541603E+04  0.7818608E-02  0.8857249E-01
         -2   -1    0    0    0  501 -0.00000000000E+00  0.00000000000E+00  0.37947880327E+03  0.37947880327E+03  0.00000000000E+00 0.  1.
          2   -1    0    0  501    0  0.00000000000E+00 -0.00000000000E+00 -0.15656605804E+04  0.15656605804E+04  0.00000000000E+00 0. -1.
         23    2    1    2    0    0  0.61284218418E+03 -0.59384980890E+02 -0.11738958045E+04  0.13293041267E+04  0.99579027613E+02 0.  0.
         13    1    3    3    0    0  0.17588276431E+03  0.25850818168E+02 -0.30623611870E+03  0.35409542778E+03  0.00000000000E+00 0. -1.
        -13    1    3    3    0    0  0.43695941986E+03 -0.85235799058E+02 -0.86765968578E+03  0.97520869888E+03  0.00000000000E+00 0.  1.
         22    1    1    2    0    0 -0.61284218418E+03  0.59384980890E+02 -0.12285972662E+02  0.61583525702E+03  0.00000000000E+00 0.  1.
<mgrwt>
<rscale>  0 0.15416031E+04</rscale>
<asrwt>0</asrwt>
<pdfrwt beam="1">  1        2 0.24087086E+00 0.15416031E+04</pdfrwt>
<pdfrwt beam="2">  1       -2 0.58381353E-01 0.15416031E+04</pdfrwt>
<totfact> 0.30804625E+01</totfact>
</mgrwt>
</event>
<event>
 6    1  0.1072514E-005  0.3265485E+04  0.7818608E-02  0.8171734E-01
          1   -1    0    0  501    0  0.00000000000E+00  0.00000000000E+00  0.25340431113E+04  0.25340431113E+04  0.00000000000E+00 0. -1.
         -1   -1    0    0    0  501 -0.00000000000E+00 -0.00000000000E+00 -0.10520136622E+04  0.10520136622E+04  0.00000000000E+00 0.  1.
         23    2    1    2    0    0 -0.22516515641E+03 -0.59347823631E+03  0.23920535736E+04  0.24765254888E+04  0.91336920961E+02 0.  0.
         11    1    3    3    0    0 -0.21328585113E+03 -0.46189902081E+03  0.18619822440E+04  0.19302381814E+04  0.00000000000E+00 0. -1.
        -11    1    3    3    0    0 -0.11879305279E+02 -0.13157921550E+03  0.53007132961E+03  0.54628730748E+03  0.00000000000E+00 0.  1.
         22    1    1    2    0    0  0.22516515641E+03  0.59347823631E+03 -0.91002412451E+03  0.11095312847E+04  0.00000000000E+00 0.  1.
<mgrwt>
<rscale>  0 0.32654849E+04</rscale>
<asrwt>0</asrwt>
<pdfrwt beam="1">  1        1 0.38985279E+00 0.32654849E+04</pdfrwt>
<pdfrwt beam="2">  1       -1 0.16184826E+00 0.32654849E+04</pdfrwt>
<totfact> 0.30195668E-01</totfact>
</mgrwt>
</event>
<event>
 6    1  0.1072514E-005  0.5049734E+04  0.7818608E-02  0.7820881E-01
          1   -1    0    0  501    0  0.00000000000E+00  0.00000000000E+00  0.24589049970E+04  0.24589049970E+04  0.00000000000E+00 0. -1.
         -1   -1    0    0    0  501 -0.00000000000E+00 -0.00000000000E+00 -0.25925982673E+04  0.25925982673E+04  0.00000000000E+00 0.  1.
         23    2    1    2    0    0 -0.67321579837E+03 -0.85771020503E+02  0.23649779559E+04  0.24623076217E+04  0.96238832017E+02 0.  0.
         11    1    3    3    0    0 -0.53057453837E+03 -0.69498420599E+02  0.19929914182E+04  0.20635780005E+04  0.00000000000E+00 0.  1.
        -11    1    3    3    0    0 -0.14264126000E+03 -0.16272599904E+02  0.37198653773E+03  0.39872962119E+03  0.00000000000E+00 0. -1.
         22    1    1    2    0    0  0.67321579837E+03  0.85771020503E+02 -0.24986712262E+04  0.25891956426E+04  0.00000000000E+00 0.  1.
<mgrwt>
<rscale>  0 0.50497338E+04</rscale>
<asrwt>0</asrwt>
<pdfrwt beam="1">  1        1 0.37829307E+00 0.50497338E+04</pdfrwt>
<pdfrwt beam="2">  1       -1 0.39886128E+00 0.50497338E+04</pdfrwt>
<totfact> 0.75802364E-03</totfact>
</mgrwt>
</event>
<event>
 6    1  0.1072514E-005  0.2953632E+04  0.7818608E-02  0.8257097E-01
         -2   -1    0    0    0  501 -0.00000000000E+00  0.00000000000E+00  0.85889673212E+03  0.85889673212E+03  0.00000000000E+00 0. -1.
          2   -1    0    0  501    0  0.00000000000E+00 -0.00000000000E+00 -0.25392866095E+04  0.25392866095E+04  0.00000000000E+00 0.  1.
         23    2    1    2    0    0 -0.33420946889E+02  0.98925257924E+03  0.41794639860E+03  0.10781073187E+04  0.88873917501E+02 0.  0.
         11    1    3    3    0    0  0.30563882256E+02  0.28580636943E+03  0.12335695327E+03  0.31278805864E+03  0.00000000000E+00 0. -1.
        -11    1    3    3    0    0 -0.63984829145E+02  0.70344620981E+03  0.29458944533E+03  0.76531926002E+03  0.00000000000E+00 0.  1.
         22    1    1    2    0    0  0.33420946889E+02 -0.98925257924E+03 -0.20983362760E+04  0.23200760230E+04  0.00000000000E+00 0.  1.
<mgrwt>
<rscale>  0 0.29536316E+04</rscale>
<asrwt>0</asrwt>
<pdfrwt beam="1">  1        2 0.39065948E+00 0.29536316E+04</pdfrwt>
<pdfrwt beam="2">  1       -2 0.13213796E+00 0.29536316E+04</pdfrwt>
<totfact> 0.11822252E+00</totfact>
</mgrwt>
</event>
<event>
 6    1  0.1072514E-005  0.7912048E+03  0.7818608E-02  0.9572836E-01
         -1   -1    0    0    0  501 -0.00000000000E+00  0.00000000000E+00  0.18398261013E+03  0.18398261013E+03  0.00000000000E+00 0.  1.
          1   -1    0    0  501    0  0.00000000000E+00 -0.00000000000E+00 -0.85063080448E+03  0.85063080448E+03  0.00000000000E+00 0. -1.
         23    2    1    2    0    0 -0.25980553245E+03  0.15157741734E+03 -0.66306207237E+03  0.73380203116E+03  0.91320758825E+02 0.  0.
         11    1    3    3    0    0 -0.16848291335E+03  0.46225222023E+02 -0.35525213757E+03  0.39588804540E+03  0.00000000000E+00 0.  1.
        -11    1    3    3    0    0 -0.91322619101E+02  0.10535219531E+03 -0.30780993479E+03  0.33791398576E+03  0.00000000000E+00 0. -1.
         22    1    1    2    0    0  0.25980553245E+03 -0.15157741734E+03 -0.35861219838E+01  0.30081138344E+03  0.00000000000E+00 0.  1.
<mgrwt>
<rscale>  0 0.79120484E+03</rscale>
<asrwt>0</asrwt>
<pdfrwt beam="1">  1        1 0.13086628E+00 0.79120484E+03</pdfrwt>
<pdfrwt beam="2">  1       -1 0.28305016E-01 0.79120484E+03</pdfrwt>
<totfact> 0.22821721E+02</totfact>
</mgrwt>
</event>
<event>
 6    1  0.1072514E-005  0.9886371E+03  0.7818608E-02  0.9321096E-01
          1   -1    0    0  501    0  0.00000000000E+00  0.00000000000E+00  0.16517839232E+04  0.16517839232E+04  0.00000000000E+00 0. -1.
         -1   -1    0    0    0  501 -0.00000000000E+00 -0.00000000000E+00 -0.14793147325E+03  0.14793147325E+03  0.00000000000E+00 0.  1.
         23    2    1    2    0    0  0.33633383415E+03  0.29737372103E+03  0.11197812303E+04  0.12089004679E+04  0.77322440468E+02 0.  0.
         11    1    3    3    0    0  0.14997712146E+03  0.17385041613E+03  0.50561346135E+03  0.55530358944E+03  0.00000000000E+00 0.  1.
        -11    1    3    3    0    0  0.18635671270E+03  0.12352330490E+03  0.61416776891E+03  0.65359687850E+03  0.00000000000E+00 0. -1.
         22    1    1    2    0    0 -0.33633383415E+03 -0.29737372103E+03  0.38407121972E+03  0.59081492853E+03  0.00000000000E+00 0.  1.
<mgrwt>
<rscale>  0 0.98863710E+03</rscale>
<asrwt>0</asrwt>
<pdfrwt beam="1">  1        1 0.25412059E+00 0.98863710E+03</pdfrwt>
<pdfrwt beam="2">  1       -1 0.22758689E-01 0.98863710E+03</pdfrwt>
<totfact> 0.84940984E+01</totfact>
</mgrwt>
</event>
<event>
 6    1  0.1072514E-005  0.2812109E+04  0.7818608E-02  0.8299519E-01
          2   -1    0    0  501    0  0.00000000000E+00  0.00000000000E+00  0.10357196835E+04  0.10357196835E+04  0.00000000000E+00 0.  1.
         -2   -1    0    0    0  501 -0.00000000000E+00 -0.00000000000E+00 -0.19088070174E+04  0.19088070174E+04  0.00000000000E+00 0. -1.
         23    2    1    2    0    0 -0.11879254583E+04  0.74743003390E+03 -0.37516973069E+03  0.14553186934E+04  0.85916368006E+02 0.  0.
         13    1    3    3    0    0 -0.11055707996E+04  0.70419804731E+03 -0.37067706926E+03  0.13621979197E+04  0.00000000000E+00 0. -1.
        -13    1    3    3    0    0 -0.82354658779E+02  0.43231986589E+02 -0.44926614234E+01  0.93120773695E+02  0.00000000000E+00 0.  1.
         22    1    1    2    0    0  0.11879254583E+04 -0.74743003390E+03 -0.49791760326E+03  0.14892080076E+04  0.00000000000E+00 0.  1.
<mgrwt>
<rscale>  0 0.28121088E+04</rscale>
<asrwt>0</asrwt>
<pdfrwt beam="1">  1        2 0.15934149E+00 0.28121088E+04</pdfrwt>
<pdfrwt beam="2">  1       -2 0.29366261E+00 0.28121088E+04</pdfrwt>
<totfact> 0.72198048E-01</totfact>
</mgrwt>
</event>
<event>
 6    1  0.1072514E-005  0.2114249E+04  0.7818608E-02  0.8554992E-01
          2   -1    0    0  501    0  0.00000000000E+00  0.00000000000E+00  0.22362921200E+04  0.22362921200E+04  0.00000000000E+00 0. -1.
         -2   -1    0    0    0  501 -0.00000000000E+00 -0.00000000000E+00 -0.49971654752E+03  0.49971654752E+03  0.00000000000E+00 0.  1.
         23    2    1    2    0    0 -0.26945968973E+03 -0.22410199220E+03  0.21576284219E+04  0.21881804742E+04  0.99715360806E+02 0.  0.
         13    1    3    3    0    0 -0.53101444230E+02 -0.10436996385E+03  0.69499685221E+03  0.70479321600E+03  0.00000000000E+00 0. -1.
        -13    1    3    3    0    0 -0.21635824550E+03 -0.11973202835E+03  0.14626315697E+04  0.14833872582E+04  0.00000000000E+00 0.  1.
         22    1    1    2    0    0  0.26945968973E+03  0.22410199220E+03 -0.42105284949E+03  0.54782819329E+03  0.00000000000E+00 0.  1.
<mgrwt>
<rscale>  0 0.21142490E+04</rscale>
<asrwt>0</asrwt>
<pdfrwt beam="1">  1        2 0.34404494E+00 0.21142490E+04</pdfrwt>
<pdfrwt beam="2">  1       -2 0.76879470E-01 0.21142490E+04</pdfrwt>
<totfact> 0.68522844E+00</totfact>
</mgrwt>
</event>
<event>
 6    1  0.1072514E-005  0.3511861E+04  0.7818608E-02  0.8110985E-01
         -2   -1    0    0    0  501 -0.00000000000E+00  0.00000000000E+00  0.95886089526E+03  0.95886089526E+03  0.00000000000E+00 0.  1.
          2   -1    0    0  501    0  0.00000000000E+00 -0.00000000000E+00 -0.32155770607E+04  0.32155770607E+04  0.00000000000E+00 0. -1.
         23    2    1    2    0    0 -0.70551051046E+03  0.64234801544E+03  0.62150086738E+03  0.11421963196E+04  0.89403864623E+02 0.  0.
         11    1    3    3    0    0 -0.38793622813E+03  0.29476787535E+03  0.30245165375E+03  0.57346283253E+03  0.00000000000E+00 0.  1.
        -11    1    3    3    0    0 -0.31757428233E+03  0.34758014009E+03  0.31904921363E+03  0.56873348706E+03  0.00000000000E+00 0. -1.
         22    1    1    2    0    0  0.70551051046E+03 -0.64234801544E+03 -0.28782170328E+04  0.30322416363E+04  0.00000000000E+00 0. -1.
<mgrwt>
<rscale>  0 0.35118605E+04</rscale>
<asrwt>0</asrwt>
<pdfrwt beam="1">  1        2 0.49470416E+00 0.35118605E+04</pdfrwt>
<pdfrwt beam="2">  1       -2 0.14751706E+00 0.35118605E+04</pdfrwt>
<totfact> 0.32528289E-01</totfact>
</mgrwt>
</event>
<event>
 6    1  0.1072514E-005  0.1673636E+04  0.7818608E-02  0.8776545E-01
          1   -1    0    0  501    0  0.00000000000E+00  0.00000000000E+00  0.18032446987E+04  0.18032446987E+04  0.00000000000E+00 0. -1.
         -1   -1    0    0    0  501 -0.00000000000E+00 -0.00000000000E+00 -0.38833595391E+03  0.38833595391E+03  0.00000000000E+00 0.  1.
         23    2    1    2    0    0 -0.55489139361E+03  0.51342073206E+03  0.11718002416E+04  0.13974729451E+04  0.91156564751E+02 0.  0.
         13    1    3    3    0    0 -0.54368137475E+03  0.49558918310E+03  0.11054687348E+04  0.13278777050E+04  0.00000000000E+00 0.  1.
        -13    1    3    3    0    0 -0.11210018860E+02  0.17831548962E+02  0.66331506757E+02  0.69595240138E+02  0.00000000000E+00 0. -1.
         22    1    1    2    0    0  0.55489139361E+03 -0.51342073206E+03  0.24310850321E+03  0.79410770752E+03  0.00000000000E+00 0.  1.
<mgrwt>
<rscale>  0 0.16736365E+04</rscale>
<asrwt>0</asrwt>
<pdfrwt beam="1">  1        1 0.27742226E+00 0.16736365E+04</pdfrwt>
<pdfrwt beam="2">  1       -1 0.59743994E-01 0.16736365E+04</pdfrwt>
<totfact> 0.10981285E+01</totfact>
</mgrwt>
</event>
<event>
 6    1  0.1072514E-005  0.2311076E+04  0.7818608E-02  0.8473567E-01
         -2   -1    0    0    0  501 -0.00000000000E+00  0.00000000000E+00  0.17478495603E+04  0.17478495603E+04  0.00000000000E+00 0.  1.
          2   -1    0    0  501    0  0.00000000000E+00 -0.00000000000E+00 -0.76394924178E+03  0.76394924178E+03  0.00000000000E+00 0. -1.
         23    2    1    2    0    0  0.10722184361E+04  0.26019653433E+03  0.12756546100E+03  0.11151370680E+04  0.99514433346E+02 0.  0.
         11    1    3    3    0    0  0.43476630344E+03  0.14862170529E+03  0.78626216426E+02  0.46614614854E+03  0.00000000000E+00 0. -1.
        -11    1    3    3    0    0  0.63745213265E+03  0.11157482904E+03  0.48939244577E+02  0.64899091947E+03  0.00000000000E+00 0.  1.
         22    1    1    2    0    0 -0.10722184361E+04 -0.26019653433E+03  0.85633485749E+03  0.13966617340E+04  0.00000000000E+00 0.  1.
<mgrwt>
<rscale>  0 0.23110762E+04</rscale>
<asrwt>0</asrwt>
<pdfrwt beam="1">  1        2 0.11753065E+00 0.23110762E+04</pdfrwt>
<pdfrwt beam="2">  1       -2 0.26889993E+00 0.23110762E+04</pdfrwt>
<totfact> 0.16322410E+00</totfact>
</mgrwt>
</event>
<event>
 6    1  0.1072514E-005  0.1426210E+04  0.7818608E-02  0.8935062E-01
         -1   -1    0    0    0  501 -0.00000000000E+00  0.00000000000E+00  0.77196516707E+03  0.77196516707E+03  0.00000000000E+00 0.  1.
          1   -1    0    0  501    0  0.00000000000E+00 -0.00000000000E+00 -0.65873307103E+03  0.65873307103E+03  0.00000000000E+00 0. -1.
         23    2    1    2    0    0  0.29414603623E+03 -0.54721935929E+03 -0.28834205827E+03  0.69094644241E+03  0.91076483753E+02 0.  0.
         11    1    3    3    0    0  0.23771284561E+03 -0.43484915027E+03 -0.26850846120E+03  0.56364702979E+03  0.00000000000E+00 0. -1.
        -11    1    3    3    0    0  0.56433190622E+02 -0.11237020902E+03 -0.19833597073E+02  0.12729941261E+03  0.00000000000E+00 0.  1.
         22    1    1    2    0    0 -0.29414603623E+03  0.54721935929E+03  0.40157415431E+03  0.73975179569E+03  0.00000000000E+00 0.  1.
<mgrwt>
<rscale>  0 0.14262103E+04</rscale>
<asrwt>0</asrwt>
<pdfrwt beam="1">  1        1 0.10134355E+00 0.14262103E+04</pdfrwt>
<pdfrwt beam="2">  1       -1 0.11876387E+00 0.14262103E+04</pdfrwt>
<totfact> 0.18454749E+01</totfact>
</mgrwt>
</event>
<event>
 6    1  0.2279180E-005  0.3476691E+04  0.7818608E-02  0.8119336E-01
         -1   -1    0    0    0  501 -0.00000000000E+00  0.00000000000E+00  0.18595816536E+04  0.18595816536E+04  0.00000000000E+00 0.  1.
          1   -1    0    0  501    0  0.00000000000E+00 -0.00000000000E+00 -0.16250137611E+04  0.16250137611E+04  0.00000000000E+00 0. -1.
         23    2    1    2    0    0  0.29633816311E+03  0.16922838111E+04  0.37467209585E+03  0.17608581981E+04  0.92744865984E+02 0.  0.
         11    1    3    3    0    0  0.16515989688E+03  0.88522354555E+03  0.24263149535E+03  0.93261383202E+03  0.00000000000E+00 0.  1.
        -11    1    3    3    0    0  0.13117826623E+03  0.80706026554E+03  0.13204060049E+03  0.82824436607E+03  0.00000000000E+00 0. -1.
         22    1    1    2    0    0 -0.29633816311E+03 -0.16922838111E+04 -0.14010420333E+03  0.17237372166E+04  0.00000000000E+00 0. -1.
<mgrwt>
<rscale>  0 0.34766914E+04</rscale>
<asrwt>0</asrwt>
<pdfrwt beam="1">  1        1 0.25000212E+00 0.34766914E+04</pdfrwt>
<pdfrwt beam="2">  1       -1 0.28608949E+00 0.34766914E+04</pdfrwt>
<totfact> 0.17819089E-01</totfact>
</mgrwt>
</event>
<event>
 6    1  0.1072514E-005  0.2783603E+04  0.7818608E-02  0.8308377E-01
         -2   -1    0    0    0  501 -0.00000000000E+00  0.00000000000E+00  0.72590152448E+03  0.72590152448E+03  0.00000000000E+00 0.  1.
          2   -1    0    0  501    0  0.00000000000E+00 -0.00000000000E+00 -0.26685588639E+04  0.26685588639E+04  0.00000000000E+00 0. -1.
         23    2    1    2    0    0 -0.69365603963E+03 -0.11917123099E+04 -0.75623116895E+03  0.15754100897E+04  0.93243975323E+02 0.  0.
         11    1    3    3    0    0 -0.81723881194E+02 -0.97585121330E+02 -0.51768198147E+02  0.13741031621E+03  0.00000000000E+00 0.  1.
        -11    1    3    3    0    0 -0.61193215844E+03 -0.10941271886E+04 -0.70446297081E+03  0.14379997735E+04  0.00000000000E+00 0. -1.
         22    1    1    2    0    0  0.69365603963E+03  0.11917123099E+04 -0.11864261704E+04  0.18190502986E+04  0.00000000000E+00 0.  1.
<mgrwt>
<rscale>  0 0.27836027E+04</rscale>
<asrwt>0</asrwt>
<pdfrwt beam="1">  1        2 0.41054751E+00 0.27836027E+04</pdfrwt>
<pdfrwt beam="2">  1       -2 0.11167716E+00 0.27836027E+04</pdfrwt>
<totfact> 0.15293813E+00</totfact>
</mgrwt>
</event>
<event>
 6    1  0.1072514E-005  0.1845956E+04  0.7818608E-02  0.8682235E-01
          1   -1    0    0  501    0  0.00000000000E+00  0.00000000000E+00  0.18593405258E+04  0.18593405258E+04  0.00000000000E+00 0. -1.
         -1   -1    0    0    0  501 -0.00000000000E+00 -0.00000000000E+00 -0.45816714775E+03  0.45816714775E+03  0.00000000000E+00 0.  1.
         23    2    1    2    0    0  0.16321181566E+03 -0.55478090965E+03 -0.19834789141E+03  0.61665840158E+03  0.80658190763E+02 0.  0.
         13    1    3    3    0    0  0.25607067239E+02 -0.19067164217E+03 -0.91388925138E+02  0.21298669597E+03  0.00000000000E+00 0.  1.
        -13    1    3    3    0    0  0.13760474842E+03 -0.36410926748E+03 -0.10695896627E+03  0.40367170562E+03  0.00000000000E+00 0. -1.
         22    1    1    2    0    0 -0.16321181566E+03  0.55478090965E+03  0.15995212694E+04  0.17008492720E+04  0.00000000000E+00 0. -1.
<mgrwt>
<rscale>  0 0.18459564E+04</rscale>
<asrwt>0</asrwt>
<pdfrwt beam="1">  1        1 0.28605238E+00 0.18459564E+04</pdfrwt>
<pdfrwt beam="2">  1       -1 0.70487255E-01 0.18459564E+04</pdfrwt>
<totfact> 0.70975923E+00</totfact>
</mgrwt>
</event>
<event>
 6    1  0.1072514E-005  0.3178456E+04  0.7818608E-02  0.8194530E-01
          1   -1    0    0  501    0  0.00000000000E+00  0.00000000000E+00  0.16516643432E+04  0.16516643432E+04  0.00000000000E+00 0. -1.
         -1   -1    0    0    0  501 -0.00000000000E+00 -0.00000000000E+00 -0.15291517725E+04  0.15291517725E+04  0.00000000000E+00 0.  1.
         23    2    1    2    0    0  0.64560053588E+03 -0.60510891493E+03 -0.12582750828E+04  0.15408370320E+04  0.89250906358E+02 0.  0.
         11    1    3    3    0    0  0.27027456888E+03 -0.29024596349E+03 -0.62444097857E+03  0.73974157489E+03  0.00000000000E+00 0. -1.
        -11    1    3    3    0    0  0.37532596700E+03 -0.31486295144E+03 -0.63383410428E+03  0.80109545713E+03  0.00000000000E+00 0.  1.
         22    1    1    2    0    0 -0.64560053588E+03  0.60510891493E+03  0.13807876536E+04  0.16399790837E+04  0.00000000000E+00 0. -1.
<mgrwt>
<rscale>  0 0.31784559E+04</rscale>
<asrwt>0</asrwt>
<pdfrwt beam="1">  1        1 0.25410221E+00 0.31784559E+04</pdfrwt>
<pdfrwt beam="2">  1       -1 0.23525412E+00 0.31784559E+04</pdfrwt>
<totfact> 0.37559266E-01</totfact>
</mgrwt>
</event>
<event>
 6    1  0.1072514E-005  0.5403131E+04  0.7818608E-02  0.7769161E-01
          2   -1    0    0  501    0  0.00000000000E+00  0.00000000000E+00  0.51987626243E+04  0.51987626243E+04  0.00000000000E+00 0.  1.
         -2   -1    0    0    0  501 -0.00000000000E+00 -0.00000000000E+00 -0.14038834926E+04  0.14038834926E+04  0.00000000000E+00 0. -1.
         23    2    1    2    0    0  0.24517800197E+04 -0.89020987738E+03  0.27535210994E+04  0.37940654358E+04  0.96722261484E+02 0.  0.
         11    1    3    3    0    0  0.19808177846E+04 -0.74045392188E+03  0.22779130132E+04  0.31081825561E+04  0.00000000000E+00 0. -1.
        -11    1    3    3    0    0  0.47096223511E+03 -0.14975595551E+03  0.47560808618E+03  0.68588287976E+03  0.00000000000E+00 0.  1.
         22    1    1    2    0    0 -0.24517800197E+04  0.89020987738E+03  0.10413580323E+04  0.28085806811E+04  0.00000000000E+00 0. -1.
<mgrwt>
<rscale>  0 0.54031313E+04</rscale>
<asrwt>0</asrwt>
<pdfrwt beam="1">  1        2 0.79980962E+00 0.54031313E+04</pdfrwt>
<pdfrwt beam="2">  1       -2 0.21598208E+00 0.54031313E+04</pdfrwt>
<totfact> 0.13363731E-03</totfact>
</mgrwt>
</event>
<event>
 6    1  0.1072514E-005  0.3205269E+04  0.7818608E-02  0.8187427E-01
         -1   -1    0    0    0  501 -0.00000000000E+00  0.00000000000E+00  0.64051275648E+03  0.64051275648E+03  0.00000000000E+00 0.  1.
          1   -1    0    0  501    0  0.00000000000E+00 -0.00000000000E+00 -0.40099700558E+04  0.40099700558E+04  0.00000000000E+00 0. -1.
         23    2    1    2    0    0 -0.14705542067E+04  0.26911554046E+03 -0.85188206694E+03  0.17224906846E+04  0.79487442286E+02 0.  0.
         11    1    3    3    0    0 -0.14376666481E+04  0.25958185223E+03 -0.81806521458E+03  0.16743652004E+04  0.00000000000E+00 0. -1.
        -11    1    3    3    0    0 -0.32887558665E+02  0.95336882298E+01 -0.33816852360E+02  0.48125484203E+02  0.00000000000E+00 0.  1.
         22    1    1    2    0    0  0.14705542067E+04 -0.26911554046E+03 -0.25175752324E+04  0.29279921277E+04  0.00000000000E+00 0. -1.
<mgrwt>
<rscale>  0 0.32052688E+04</rscale>
<asrwt>0</asrwt>
<pdfrwt beam="1">  1        1 0.61691847E+00 0.32052688E+04</pdfrwt>
<pdfrwt beam="2">  1       -1 0.98540424E-01 0.32052688E+04</pdfrwt>
<totfact> 0.77377571E-02</totfact>
</mgrwt>
</event>
<event>
 6    1  0.1072514E-005  0.2685698E+04  0.7818608E-02  0.8339660E-01
          2   -1    0    0  501    0  0.00000000000E+00  0.00000000000E+00  0.73840055397E+03  0.73840055397E+03  0.00000000000E+00 0. -1.
         -2   -1    0    0    0  501 -0.00000000000E+00 -0.00000000000E+00 -0.24420945228E+04  0.24420945228E+04  0.00000000000E+00 0.  1.
         23    2    1    2    0    0  0.12797832257E+04 -0.39605318048E+03 -0.81482964807E+03  0.15727690406E+04  0.12227785261E+03 0.  0.
         11    1    3    3    0    0  0.11153381800E+04 -0.35724806132E+03 -0.66407190508E+03  0.13463271995E+04  0.00000000000E+00 0.  1.
        -11    1    3    3    0    0  0.16444504570E+03 -0.38805119158E+02 -0.15075774299E+03  0.22644184109E+03  0.00000000000E+00 0. -1.
         22    1    1    2    0    0 -0.12797832257E+04  0.39605318048E+03 -0.88886432072E+03  0.16077260361E+04  0.00000000000E+00 0.  1.
<mgrwt>
<rscale>  0 0.26856984E+04</rscale>
<asrwt>0</asrwt>
<pdfrwt beam="1">  1        2 0.11360008E+00 0.26856984E+04</pdfrwt>
<pdfrwt beam="2">  1       -2 0.37570686E+00 0.26856984E+04</pdfrwt>
<totfact> 0.35864209E-01</totfact>
</mgrwt>
</event>
<event>
 6    1  0.1072514E-005  0.3524704E+04  0.7818608E-02  0.8107960E-01
          1   -1    0    0  501    0  0.00000000000E+00  0.00000000000E+00  0.11528112337E+04  0.11528112337E+04  0.00000000000E+00 0. -1.
         -1   -1    0    0    0  501 -0.00000000000E+00 -0.00000000000E+00 -0.26941827613E+04  0.26941827613E+04  0.00000000000E+00 0.  1.
         23    2    1    2    0    0  0.11764504363E+04 -0.81981360795E+03  0.34460996401E+03  0.14778050689E+04  0.94983226668E+02 0.  0.
         13    1    3    3    0    0  0.20946684628E+03 -0.10431427443E+03  0.48312744034E+02  0.23893921565E+03  0.00000000000E+00 0.  1.
        -13    1    3    3    0    0  0.96698359004E+03 -0.71549933351E+03  0.29629721998E+03  0.12388658532E+04  0.00000000000E+00 0. -1.
         22    1    1    2    0    0 -0.11764504363E+04  0.81981360795E+03 -0.18859814917E+04  0.23691889262E+04  0.00000000000E+00 0.  1.
<mgrwt>
<rscale>  0 0.35247038E+04</rscale>
<asrwt>0</asrwt>
<pdfrwt beam="1">  1        1 0.17735558E+00 0.35247038E+04</pdfrwt>
<pdfrwt beam="2">  1       -1 0.41448965E+00 0.35247038E+04</pdfrwt>
<totfact> 0.53581599E-02</totfact>
</mgrwt>
</event>
<event>
 6    1  0.1072514E-005  0.3417285E+04  0.7818608E-02  0.8133677E-01
          1   -1    0    0  501    0  0.00000000000E+00  0.00000000000E+00  0.14673054949E+04  0.14673054949E+04  0.00000000000E+00 0. -1.
         -1   -1    0    0    0  501 -0.00000000000E+00 -0.00000000000E+00 -0.19896741089E+04  0.19896741089E+04  0.00000000000E+00 0.  1.
         23    2    1    2    0    0  0.99442040846E+03  0.12834972465E+04 -0.79615271958E+03  0.18104089655E+04  0.86512074132E+02 0.  0.
         13    1    3    3    0    0  0.87945344402E+03  0.11426921139E+04 -0.73616361550E+03  0.16189874911E+04  0.00000000000E+00 0.  1.
        -13    1    3    3    0    0  0.11496696444E+03  0.14080513256E+03 -0.59989104074E+02  0.19142147444E+03  0.00000000000E+00 0. -1.
         22    1    1    2    0    0 -0.99442040846E+03 -0.12834972465E+04  0.27378410551E+03  0.16465706383E+04  0.00000000000E+00 0. -1.
<mgrwt>
<rscale>  0 0.34172853E+04</rscale>
<asrwt>0</asrwt>
<pdfrwt beam="1">  1        1 0.22573931E+00 0.34172853E+04</pdfrwt>
<pdfrwt beam="2">  1       -1 0.30610371E+00 0.34172853E+04</pdfrwt>
<totfact> 0.17067550E-01</totfact>
</mgrwt>
</event>
<event>
 6    1  0.1072514E-005  0.7503590E+03  0.7818608E-02  0.9634787E-01
         -2   -1    0    0    0  501 -0.00000000000E+00  0.00000000000E+00  0.13767282665E+03  0.13767282665E+03  0.00000000000E+00 0.  1.
          2   -1    0    0  501    0  0.00000000000E+00 -0.00000000000E+00 -0.10224216297E+04  0.10224216297E+04  0.00000000000E+00 0. -1.
         23    2    1    2    0    0 -0.19556291500E+03  0.16446834912E+03 -0.86152844928E+03  0.90351332607E+03  0.93863570595E+02 0.  0.
         11    1    3    3    0    0 -0.22989337822E+02  0.56865853461E+02 -0.30213611630E+03  0.30829931514E+03  0.00000000000E+00 0. -1.
        -11    1    3    3    0    0 -0.17257357718E+03  0.10760249566E+03 -0.55939233298E+03  0.59521401093E+03  0.00000000000E+00 0.  1.
         22    1    1    2    0    0  0.19556291500E+03 -0.16446834912E+03 -0.23220353759E+02  0.25658113028E+03  0.00000000000E+00 0.  1.
<mgrwt>
<rscale>  0 0.75035905E+03</rscale>
<asrwt>0</asrwt>
<pdfrwt beam="1">  1        2 0.15729564E+00 0.75035905E+03</pdfrwt>
<pdfrwt beam="2">  1       -2 0.21180435E-01 0.75035905E+03</pdfrwt>
<totfact> 0.47291709E+02</totfact>
</mgrwt>
</event>
<event>
 6    1  0.1072514E-005  0.6119626E+04  0.7818608E-02  0.7675744E-01
          1   -1    0    0  501    0  0.00000000000E+00  0.00000000000E+00  0.40046353726E+04  0.40046353726E+04  0.00000000000E+00 0. -1.
         -1   -1    0    0    0  501 -0.00000000000E+00 -0.00000000000E+00 -0.23379049913E+04  0.23379049913E+04  0.00000000000E+00 0.  1.
         23    2    1    2    0    0  0.18377005321E+04  0.42984764320E+03  0.33288052529E+04  0.38277033669E+04  0.91958749295E+02 0.  0.
         11    1    3    3    0    0  0.81445310022E+03  0.18858813128E+03  0.15674356322E+04  0.17764441440E+04  0.00000000000E+00 0.  1.
        -11    1    3    3    0    0  0.10232474319E+04  0.24125951192E+03  0.17613696207E+04  0.20512592229E+04  0.00000000000E+00 0. -1.
         22    1    1    2    0    0 -0.18377005321E+04 -0.42984764320E+03 -0.16620748716E+04  0.25148369969E+04  0.00000000000E+00 0.  1.
<mgrwt>
<rscale>  0 0.61196265E+04</rscale>
<asrwt>0</asrwt>
<pdfrwt beam="1">  1        1 0.61609775E+00 0.61196265E+04</pdfrwt>
<pdfrwt beam="2">  1       -1 0.35967769E+00 0.61196265E+04</pdfrwt>
<totfact> 0.83993923E-04</totfact>
</mgrwt>
</event>
<event>
 6    1  0.1072514E-005  0.1668093E+04  0.7818608E-02  0.8779774E-01
          2   -1    0    0  501    0  0.00000000000E+00  0.00000000000E+00  0.22469824850E+04  0.22469824850E+04  0.00000000000E+00 0. -1.
         -2   -1    0    0    0  501 -0.00000000000E+00 -0.00000000000E+00 -0.30958572954E+03  0.30958572954E+03  0.00000000000E+00 0.  1.
         23    2    1    2    0    0  0.25680820627E+03  0.42962883078E+03  0.19893225900E+04  0.20533508864E+04  0.91181733472E+02 0.  0.
         13    1    3    3    0    0  0.72681816941E+02  0.89427537163E+02  0.61107593840E+03  0.62184703377E+03  0.00000000000E+00 0.  1.
        -13    1    3    3    0    0  0.18412638933E+03  0.34020129362E+03  0.13782466516E+04  0.14315038526E+04  0.00000000000E+00 0. -1.
         22    1    1    2    0    0 -0.25680820627E+03 -0.42962883078E+03 -0.51925834548E+02  0.50321732814E+03  0.00000000000E+00 0.  1.
<mgrwt>
<rscale>  0 0.16680932E+04</rscale>
<asrwt>0</asrwt>
<pdfrwt beam="1">  1        2 0.34568960E+00 0.16680932E+04</pdfrwt>
<pdfrwt beam="2">  1       -2 0.47628575E-01 0.16680932E+04</pdfrwt>
<totfact> 0.19373197E+01</totfact>
</mgrwt>
</event>
<event>
 6    1  0.1072514E-005  0.2642602E+04  0.7818608E-02  0.8353873E-01
         -1   -1    0    0    0  501 -0.00000000000E+00  0.00000000000E+00  0.11343630558E+04  0.11343630558E+04  0.00000000000E+00 0.  1.
          1   -1    0    0  501    0  0.00000000000E+00 -0.00000000000E+00 -0.15390454275E+04  0.15390454275E+04  0.00000000000E+00 0. -1.
         23    2    1    2    0    0  0.31670426996E+02  0.11356797753E+04  0.47890080683E+03  0.12341410302E+04  0.54649168499E+02 0.  0.
         11    1    3    3    0    0  0.91617826520E+01  0.96194027477E+03  0.41456487848E+03  0.10475099374E+04  0.00000000000E+00 0. -1.
        -11    1    3    3    0    0  0.22508644344E+02  0.17373950055E+03  0.64335928350E+02  0.18663109280E+03  0.00000000000E+00 0.  1.
         22    1    1    2    0    0 -0.31670426996E+02 -0.11356797753E+04 -0.88358317858E+03  0.14392674531E+04  0.00000000000E+00 0. -1.
<mgrwt>
<rscale>  0 0.26426020E+04</rscale>
<asrwt>0</asrwt>
<pdfrwt beam="1">  1        1 0.23677622E+00 0.26426020E+04</pdfrwt>
<pdfrwt beam="2">  1       -1 0.17451739E+00 0.26426020E+04</pdfrwt>
<totfact> 0.12299918E+00</totfact>
</mgrwt>
</event>
<event>
 6    1  0.1072514E-005  0.2803471E+04  0.7818608E-02  0.8302192E-01
         -2   -1    0    0    0  501 -0.00000000000E+00  0.00000000000E+00  0.11048647213E+04  0.11048647213E+04  0.00000000000E+00 0.  1.
          2   -1    0    0  501    0  0.00000000000E+00 -0.00000000000E+00 -0.17783738305E+04  0.17783738305E+04  0.00000000000E+00 0. -1.
         23    2    1    2    0    0  0.16069155311E+03  0.12732496035E+04 -0.91293736751E+03  0.15777454575E+04  0.94020016678E+02 0.  0.
         13    1    3    3    0    0  0.10808180478E+02  0.39203360736E+03 -0.30314970582E+03  0.49568831962E+03  0.00000000000E+00 0.  1.
        -13    1    3    3    0    0  0.14988337263E+03  0.88121599617E+03 -0.60978766170E+03  0.10820571379E+04  0.00000000000E+00 0. -1.
         22    1    1    2    0    0 -0.16069155311E+03 -0.12732496035E+04  0.23942825832E+03  0.13054930942E+04  0.00000000000E+00 0. -1.
<mgrwt>
<rscale>  0 0.28034711E+04</rscale>
<asrwt>0</asrwt>
<pdfrwt beam="1">  1        2 0.27359597E+00 0.28034711E+04</pdfrwt>
<pdfrwt beam="2">  1       -2 0.16997919E+00 0.28034711E+04</pdfrwt>
<totfact> 0.16454941E+00</totfact>
</mgrwt>
</event>
<event>
 6    1  0.1072514E-005  0.2131806E+04  0.7818608E-02  0.8547360E-01
          2   -1    0    0  501    0  0.00000000000E+00  0.00000000000E+00  0.23146059732E+04  0.23146059732E+04  0.00000000000E+00 0. -1.
         -2   -1    0    0    0  501 -0.00000000000E+00 -0.00000000000E+00 -0.49086087293E+03  0.49086087293E+03  0.00000000000E+00 0.  1.
         23    2    1    2    0    0 -0.10113692490E+03  0.70554392593E+03  0.19531610120E+04  0.20810571642E+04  0.89107087593E+02 0.  0.
         13    1    3    3    0    0 -0.43349200263E+01  0.15408846986E+03  0.52168826803E+03  0.54398593463E+03  0.00000000000E+00 0. -1.
        -13    1    3    3    0    0 -0.96802004874E+02  0.55145545607E+03  0.14314727440E+04  0.15370712296E+04  0.00000000000E+00 0.  1.
         22    1    1    2    0    0  0.10113692490E+03 -0.70554392593E+03 -0.12941591173E+03  0.72440968188E+03  0.00000000000E+00 0.  1.
<mgrwt>
<rscale>  0 0.21318063E+04</rscale>
<asrwt>0</asrwt>
<pdfrwt beam="1">  1        2 0.35609322E+00 0.21318063E+04</pdfrwt>
<pdfrwt beam="2">  1       -2 0.75517059E-01 0.21318063E+04</pdfrwt>
<totfact> 0.64292593E+00</totfact>
</mgrwt>
</event>
<event>
 6    1  0.1072514E-005  0.9941218E+03  0.7818608E-02  0.9315015E-01
         -2   -1    0    0    0  501 -0.00000000000E+00  0.00000000000E+00  0.57840998086E+03  0.57840998086E+03  0.00000000000E+00 0.  1.
          2   -1    0    0  501    0  0.00000000000E+00 -0.00000000000E+00 -0.42715299215E+03  0.42715299215E+03  0.00000000000E+00 0. -1.
         23    2    1    2    0    0  0.25712198652E+03  0.39754363550E+03 -0.60482702338E+02  0.48692402842E+03  0.96354522929E+02 0.  0.
         11    1    3    3    0    0  0.79084950123E+01  0.26921709741E+02 -0.27181172380E+02  0.39065827531E+02  0.00000000000E+00 0. -1.
        -11    1    3    3    0    0  0.24921349151E+03  0.37062192576E+03 -0.33301529958E+02  0.44785820089E+03  0.00000000000E+00 0.  1.
         22    1    1    2    0    0 -0.25712198652E+03 -0.39754363550E+03  0.21173969105E+03  0.51863894459E+03  0.00000000000E+00 0.  1.
<mgrwt>
<rscale>  0 0.99412183E+03</rscale>
<asrwt>0</asrwt>
<pdfrwt beam="1">  1        2 0.65715845E-01 0.99412183E+03</pdfrwt>
<pdfrwt beam="2">  1       -2 0.88986151E-01 0.99412183E+03</pdfrwt>
<totfact> 0.80011091E+01</totfact>
</mgrwt>
</event>
<event>
 6    1  0.1072514E-005  0.1714915E+04  0.7818608E-02  0.8752903E-01
         -1   -1    0    0    0  501 -0.00000000000E+00  0.00000000000E+00  0.75782835572E+03  0.75782835572E+03  0.00000000000E+00 0.  1.
          1   -1    0    0  501    0  0.00000000000E+00 -0.00000000000E+00 -0.97018462215E+03  0.97018462215E+03  0.00000000000E+00 0. -1.
         23    2    1    2    0    0  0.37453025948E+03  0.58669197706E+03 -0.60675954037E+03  0.92799151959E+03  0.92361947650E+02 0.  0.
         11    1    3    3    0    0  0.25021931537E+03  0.30965773108E+03 -0.32898329525E+03  0.51645679854E+03  0.00000000000E+00 0.  1.
        -11    1    3    3    0    0  0.12431094410E+03  0.27703424599E+03 -0.27777624513E+03  0.41153472105E+03  0.00000000000E+00 0. -1.
         22    1    1    2    0    0 -0.37453025948E+03 -0.58669197706E+03  0.39440327394E+03  0.80002145828E+03  0.00000000000E+00 0.  1.
<mgrwt>
<rscale>  0 0.17149151E+04</rscale>
<asrwt>0</asrwt>
<pdfrwt beam="1">  1        1 0.14925917E+00 0.17149151E+04</pdfrwt>
<pdfrwt beam="2">  1       -1 0.11658898E+00 0.17149151E+04</pdfrwt>
<totfact> 0.10083057E+01</totfact>
</mgrwt>
</event>
<event>
 6    1  0.1072514E-005  0.1681146E+04  0.7818608E-02  0.8772191E-01
         -2   -1    0    0    0  501 -0.00000000000E+00  0.00000000000E+00  0.47037390601E+03  0.47037390601E+03  0.00000000000E+00 0. -1.
          2   -1    0    0  501    0  0.00000000000E+00 -0.00000000000E+00 -0.15021312351E+04  0.15021312351E+04  0.00000000000E+00 0.  1.
         23    2    1    2    0    0 -0.55737243486E+03 -0.62554479877E+03 -0.54724072837E+03  0.10046587366E+04  0.88861891381E+02 0.  0.
         13    1    3    3    0    0 -0.11630704280E+03 -0.12987501161E+03 -0.15878308115E+03  0.23581118232E+03  0.00000000000E+00 0.  1.
        -13    1    3    3    0    0 -0.44106539206E+03 -0.49566978717E+03 -0.38845764722E+03  0.76884755424E+03  0.00000000000E+00 0. -1.
         22    1    1    2    0    0  0.55737243486E+03  0.62554479877E+03 -0.48451660072E+03  0.96784640454E+03  0.00000000000E+00 0. -1.
<mgrwt>
<rscale>  0 0.16811464E+04</rscale>
<asrwt>0</asrwt>
<pdfrwt beam="1">  1        2 0.23109711E+00 0.16811464E+04</pdfrwt>
<pdfrwt beam="2">  1       -2 0.72365217E-01 0.16811464E+04</pdfrwt>
<totfact> 0.20846135E+01</totfact>
</mgrwt>
</event>
<event>
 6    1  0.1072514E-005  0.3694859E+04  0.7818608E-02  0.8069102E-01
         -1   -1    0    0    0  501 -0.00000000000E+00  0.00000000000E+00  0.24476134003E+04  0.24476134003E+04  0.00000000000E+00 0.  1.
          1   -1    0    0  501    0  0.00000000000E+00 -0.00000000000E+00 -0.13944178116E+04  0.13944178116E+04  0.00000000000E+00 0. -1.
         23    2    1    2    0    0 -0.66876695518E+03  0.17113169803E+04  0.71580112531E+03  0.19739599951E+04  0.91059122828E+02 0.  0.
         11    1    3    3    0    0 -0.44370211976E+03  0.12242695388E+04  0.47908094745E+03  0.13875251453E+04  0.00000000000E+00 0. -1.
        -11    1    3    3    0    0 -0.22506483542E+03  0.48704744146E+03  0.23672017787E+03  0.58643484973E+03  0.00000000000E+00 0.  1.
         22    1    1    2    0    0  0.66876695518E+03 -0.17113169803E+04  0.33739446329E+03  0.18680712168E+04  0.00000000000E+00 0.  1.
<mgrwt>
<rscale>  0 0.36948590E+04</rscale>
<asrwt>0</asrwt>
<pdfrwt beam="1">  1        1 0.21452582E+00 0.36948590E+04</pdfrwt>
<pdfrwt beam="2">  1       -1 0.37655591E+00 0.36948590E+04</pdfrwt>
<totfact> 0.64191818E-02</totfact>
</mgrwt>
</event>
<event>
 6    1  0.1072514E-005  0.1194205E+04  0.7818608E-02  0.9117944E-01
         -2   -1    0    0    0  501 -0.00000000000E+00  0.00000000000E+00  0.11663984005E+04  0.11663984005E+04  0.00000000000E+00 0.  1.
          2   -1    0    0  501    0  0.00000000000E+00 -0.00000000000E+00 -0.30566844315E+03  0.30566844315E+03  0.00000000000E+00 0. -1.
         23    2    1    2    0    0  0.57725897087E+03  0.70713614402E+02  0.58143892986E+03  0.82690654364E+03  0.86457319171E+02 0.  0.
         11    1    3    3    0    0  0.40499823401E+03  0.11696599888E+02  0.41965705048E+03  0.58332874095E+03  0.00000000000E+00 0.  1.
        -11    1    3    3    0    0  0.17226073685E+03  0.59017014514E+02  0.16178187939E+03  0.24357780268E+03  0.00000000000E+00 0. -1.
         22    1    1    2    0    0 -0.57725897087E+03 -0.70713614402E+02  0.27929102753E+03  0.64516030005E+03  0.00000000000E+00 0. -1.
<mgrwt>
<rscale>  0 0.11942046E+04</rscale>
<asrwt>0</asrwt>
<pdfrwt beam="1">  1        2 0.47025915E-01 0.11942046E+04</pdfrwt>
<pdfrwt beam="2">  1       -2 0.17944591E+00 0.11942046E+04</pdfrwt>
<totfact> 0.19394623E+01</totfact>
</mgrwt>
</event>
<event>
 6    1  0.1072514E-005  0.2145810E+04  0.7818608E-02  0.8541328E-01
         -1   -1    0    0    0  501 -0.00000000000E+00  0.00000000000E+00  0.60247567368E+03  0.60247567368E+03  0.00000000000E+00 0.  1.
          1   -1    0    0  501    0  0.00000000000E+00 -0.00000000000E+00 -0.19106591715E+04  0.19106591715E+04  0.00000000000E+00 0. -1.
         23    2    1    2    0    0  0.35511729359E+03 -0.71100284692E+03 -0.14960220209E+04  0.16964851949E+04  0.91360762044E+02 0.  0.
         13    1    3    3    0    0  0.19768239270E+03 -0.29428692780E+03 -0.65978641924E+03  0.74900016240E+03  0.00000000000E+00 0. -1.
        -13    1    3    3    0    0  0.15743490090E+03 -0.41671591912E+03 -0.83623560165E+03  0.94748503246E+03  0.00000000000E+00 0.  1.
         22    1    1    2    0    0 -0.35511729359E+03  0.71100284692E+03  0.18783852311E+03  0.81664965028E+03  0.00000000000E+00 0.  1.
<mgrwt>
<rscale>  0 0.21458105E+04</rscale>
<asrwt>0</asrwt>
<pdfrwt beam="1">  1        1 0.29394756E+00 0.21458105E+04</pdfrwt>
<pdfrwt beam="2">  1       -1 0.92688567E-01 0.21458105E+04</pdfrwt>
<totfact> 0.35510615E+00</totfact>
</mgrwt>
</event>
<event>
 6    1  0.1880087E-005  0.4445094E+04  0.7818608E-02  0.7920320E-01
         -1   -1    0    0    0  501 -0.00000000000E+00  0.00000000000E+00  0.22555795416E+04  0.22555795416E+04  0.00000000000E+00 0.  1.
          1   -1    0    0  501    0  0.00000000000E+00 -0.00000000000E+00 -0.21899979330E+04  0.21899979330E+04  0.00000000000E+00 0. -1.
         23    2    1    2    0    0 -0.23311255684E+03 -0.22078719417E+04 -0.51093747412E+02  0.22223696316E+04  0.85300839692E+02 0.  0.
         13    1    3    3    0    0 -0.16348169496E+03 -0.13285299379E+04  0.39926063306E+01  0.13385566859E+04  0.00000000000E+00 0.  1.
        -13    1    3    3    0    0 -0.69630861882E+02 -0.87934200379E+03 -0.55086353742E+02  0.88381294566E+03  0.00000000000E+00 0. -1.
         22    1    1    2    0    0  0.23311255684E+03  0.22078719417E+04  0.11667535601E+03  0.22232078431E+04  0.00000000000E+00 0.  1.
<mgrwt>
<rscale>  0 0.44450937E+04</rscale>
<asrwt>0</asrwt>
<pdfrwt beam="1">  1        1 0.33692276E+00 0.44450937E+04</pdfrwt>
<pdfrwt beam="2">  1       -1 0.34701224E+00 0.44450937E+04</pdfrwt>
<totfact> 0.27162068E-02</totfact>
</mgrwt>
</event>
<event>
 6    1  0.1072514E-005  0.2262680E+04  0.7818608E-02  0.8492783E-01
         -2   -1    0    0    0  501 -0.00000000000E+00  0.00000000000E+00  0.72898155416E+03  0.72898155416E+03  0.00000000000E+00 0.  1.
          2   -1    0    0  501    0  0.00000000000E+00 -0.00000000000E+00 -0.17557782848E+04  0.17557782848E+04  0.00000000000E+00 0. -1.
         23    2    1    2    0    0  0.47404586487E+03 -0.36531417258E+03  0.53779545112E+03  0.80961130169E+03  0.89847570258E+02 0.  0.
         13    1    3    3    0    0  0.20022637838E+03 -0.18054793581E+03  0.29508441057E+03  0.39970360154E+03  0.00000000000E+00 0. -1.
        -13    1    3    3    0    0  0.27381948648E+03 -0.18476623678E+03  0.24271104055E+03  0.40990770015E+03  0.00000000000E+00 0.  1.
         22    1    1    2    0    0 -0.47404586487E+03  0.36531417258E+03 -0.15645921818E+04  0.16751485373E+04  0.00000000000E+00 0. -1.
<mgrwt>
<rscale>  0 0.22626798E+04</rscale>
<asrwt>0</asrwt>
<pdfrwt beam="1">  1        2 0.27011974E+00 0.22626798E+04</pdfrwt>
<pdfrwt beam="2">  1       -2 0.11215101E+00 0.22626798E+04</pdfrwt>
<totfact> 0.52052259E+00</totfact>
</mgrwt>
</event>
<event>
 6    1  0.1072514E-005  0.2465344E+04  0.7818608E-02  0.8415437E-01
          2   -1    0    0  501    0  0.00000000000E+00  0.00000000000E+00  0.31164683704E+04  0.31164683704E+04  0.00000000000E+00 0. -1.
         -2   -1    0    0    0  501 -0.00000000000E+00 -0.00000000000E+00 -0.48756474437E+03  0.48756474437E+03  0.00000000000E+00 0.  1.
         23    2    1    2    0    0  0.34095014219E+03 -0.10929637437E+04  0.65640132747E+03  0.13233354008E+04  0.97658260237E+02 0.  0.
         13    1    3    3    0    0  0.12349160625E+03 -0.26272233506E+03  0.18336377021E+03  0.34335910412E+03  0.00000000000E+00 0.  1.
        -13    1    3    3    0    0  0.21745853594E+03 -0.83024140868E+03  0.47303755725E+03  0.97997629671E+03  0.00000000000E+00 0. -1.
         22    1    1    2    0    0 -0.34095014219E+03  0.10929637437E+04  0.19725022986E+04  0.22806977139E+04  0.00000000000E+00 0. -1.
<mgrwt>
<rscale>  0 0.24653439E+04</rscale>
<asrwt>0</asrwt>
<pdfrwt beam="1">  1        2 0.47945666E+00 0.24653439E+04</pdfrwt>
<pdfrwt beam="2">  1       -2 0.75009963E-01 0.24653439E+04</pdfrwt>
<totfact> 0.20980467E+00</totfact>
</mgrwt>
</event>
<event>
 6    1  0.1102818E-005  0.5803645E+04  0.7818608E-02  0.7715236E-01
          1   -1    0    0  501    0  0.00000000000E+00  0.00000000000E+00  0.38197122672E+04  0.38197122672E+04  0.00000000000E+00 0. -1.
         -1   -1    0    0    0  501 -0.00000000000E+00 -0.00000000000E+00 -0.22045045184E+04  0.22045045184E+04  0.00000000000E+00 0.  1.
         23    2    1    2    0    0  0.59281691950E+02 -0.37223874927E+03  0.37936486797E+04  0.38134067769E+04  0.90691431072E+02 0.  0.
         13    1    3    3    0    0  0.38691398637E+01 -0.12943144402E+03  0.93397928486E+03  0.94291291935E+03  0.00000000000E+00 0. -1.
        -13    1    3    3    0    0  0.55412552087E+02 -0.24280730526E+03  0.28596693948E+04  0.28704938575E+04  0.00000000000E+00 0.  1.
         22    1    1    2    0    0 -0.59281691950E+02  0.37223874927E+03 -0.21784409309E+04  0.22108100088E+04  0.00000000000E+00 0.  1.
<mgrwt>
<rscale>  0 0.58036447E+04</rscale>
<asrwt>0</asrwt>
<pdfrwt beam="1">  1        1 0.58764804E+00 0.58036447E+04</pdfrwt>
<pdfrwt beam="2">  1       -1 0.33915454E+00 0.58036447E+04</pdfrwt>
<totfact> 0.17006141E-03</totfact>
</mgrwt>
</event>
<event>
 6    1  0.1072514E-005  0.1860927E+04  0.7818608E-02  0.8674554E-01
         -2   -1    0    0    0  501 -0.00000000000E+00  0.00000000000E+00  0.43185335749E+03  0.43185335749E+03  0.00000000000E+00 0. -1.
          2   -1    0    0  501    0  0.00000000000E+00 -0.00000000000E+00 -0.20047596963E+04  0.20047596963E+04  0.00000000000E+00 0.  1.
         23    2    1    2    0    0 -0.56953762738E+03 -0.73189682227E+03 -0.83945521669E+03  0.12542439845E+04  0.91634297147E+02 0.  0.
         11    1    3    3    0    0 -0.52767663942E+02 -0.76641971936E+02 -0.50707987136E+02  0.10597036463E+03  0.00000000000E+00 0. -1.
        -11    1    3    3    0    0 -0.51676996343E+03 -0.65525485033E+03 -0.78874722956E+03  0.11482736199E+04  0.00000000000E+00 0.  1.
         22    1    1    2    0    0  0.56953762738E+03  0.73189682227E+03 -0.73345112211E+03  0.11823690693E+04  0.00000000000E+00 0. -1.
<mgrwt>
<rscale>  0 0.18609269E+04</rscale>
<asrwt>0</asrwt>
<pdfrwt beam="1">  1        2 0.30842456E+00 0.18609269E+04</pdfrwt>
<pdfrwt beam="2">  1       -2 0.66438979E-01 0.18609269E+04</pdfrwt>
<totfact> 0.12991084E+01</totfact>
</mgrwt>
</event>
<event>
 6    1  0.1072514E-005  0.2076903E+04  0.7818608E-02  0.8571487E-01
          2   -1    0    0  501    0  0.00000000000E+00  0.00000000000E+00  0.24280134118E+04  0.24280134118E+04  0.00000000000E+00 0. -1.
         -2   -1    0    0    0  501 -0.00000000000E+00 -0.00000000000E+00 -0.44414147613E+03  0.44414147613E+03  0.00000000000E+00 0.  1.
         23    2    1    2    0    0  0.19853270576E+03 -0.10168021351E+04  0.10364110319E+04  0.14682375181E+04  0.90949244289E+02 0.  0.
         13    1    3    3    0    0  0.10988332736E+03 -0.42001734218E+03  0.48431447304E+03  0.65042249512E+03  0.00000000000E+00 0. -1.
        -13    1    3    3    0    0  0.88649378403E+02 -0.59678479296E+03  0.55209655891E+03  0.81781502295E+03  0.00000000000E+00 0.  1.
         22    1    1    2    0    0 -0.19853270576E+03  0.10168021351E+04  0.94746090369E+03  0.14039173698E+04  0.00000000000E+00 0. -1.
<mgrwt>
<rscale>  0 0.20769029E+04</rscale>
<asrwt>0</asrwt>
<pdfrwt beam="1">  1        2 0.37354052E+00 0.20769029E+04</pdfrwt>
<pdfrwt beam="2">  1       -2 0.68329459E-01 0.20769029E+04</pdfrwt>
<totfact> 0.69322538E+00</totfact>
</mgrwt>
</event>
<event>
 6    1  0.1072514E-005  0.1848712E+04  0.7818608E-02  0.8680815E-01
          2   -1    0    0  501    0  0.00000000000E+00  0.00000000000E+00  0.18785190020E+04  0.18785190020E+04  0.00000000000E+00 0. -1.
         -2   -1    0    0    0  501 -0.00000000000E+00 -0.00000000000E+00 -0.45484449925E+03  0.45484449925E+03  0.00000000000E+00 0.  1.
         23    2    1    2    0    0  0.24103423687E+03  0.59056400090E+03  0.15541256879E+04  0.16823021721E+04  0.89278227606E+02 0.  0.
         11    1    3    3    0    0  0.47531372714E+02  0.89500469877E+02  0.17431542222E+03  0.20163192189E+03  0.00000000000E+00 0.  1.
        -11    1    3    3    0    0  0.19350286416E+03  0.50106353102E+03  0.13798102657E+04  0.14806702502E+04  0.00000000000E+00 0. -1.
         22    1    1    2    0    0 -0.24103423687E+03 -0.59056400090E+03 -0.13045118523E+03  0.65106132909E+03  0.00000000000E+00 0.  1.
<mgrwt>
<rscale>  0 0.18487120E+04</rscale>
<asrwt>0</asrwt>
<pdfrwt beam="1">  1        2 0.28900292E+00 0.18487120E+04</pdfrwt>
<pdfrwt beam="2">  1       -2 0.69976078E-01 0.18487120E+04</pdfrwt>
<totfact> 0.13652749E+01</totfact>
</mgrwt>
</event>
<event>
 6    1  0.1072514E-005  0.6818819E+04  0.7818608E-02  0.7596415E-01
         -1   -1    0    0    0  501 -0.00000000000E+00  0.00000000000E+00  0.43801861348E+04  0.43801861348E+04  0.00000000000E+00 0.  1.
          1   -1    0    0  501    0  0.00000000000E+00 -0.00000000000E+00 -0.26537848361E+04  0.26537848361E+04  0.00000000000E+00 0. -1.
         23    2    1    2    0    0  0.64664836219E+02 -0.81563611473E+03 -0.25501901894E+04  0.26798145006E+04  0.92151737207E+02 0.  0.
         11    1    3    3    0    0  0.42280772567E+02 -0.57693882500E+03 -0.16601866435E+04  0.17580858235E+04  0.00000000000E+00 0. -1.
        -11    1    3    3    0    0  0.22384063652E+02 -0.23869728974E+03 -0.89000354592E+03  0.92172867710E+03  0.00000000000E+00 0.  1.
         22    1    1    2    0    0 -0.64664836219E+02  0.81563611473E+03  0.42765914881E+04  0.43541564704E+04  0.00000000000E+00 0.  1.
<mgrwt>
<rscale>  0 0.68188185E+04</rscale>
<asrwt>0</asrwt>
<pdfrwt beam="1">  1        1 0.40827459E+00 0.68188185E+04</pdfrwt>
<pdfrwt beam="2">  1       -1 0.67387479E+00 0.68188185E+04</pdfrwt>
<totfact> 0.16714411E-04</totfact>
</mgrwt>
</event>
<event>
 6    1  0.1072514E-005  0.1525583E+04  0.7818608E-02  0.8867617E-01
         -2   -1    0    0    0  501 -0.00000000000E+00  0.00000000000E+00  0.20419752462E+03  0.20419752462E+03  0.00000000000E+00 0.  1.
          2   -1    0    0  501    0  0.00000000000E+00 -0.00000000000E+00 -0.28494508277E+04  0.28494508277E+04  0.00000000000E+00 0. -1.
         23    2    1    2    0    0  0.59351568299E+03  0.35390651740E+03 -0.19606171116E+04  0.20809010040E+04  0.92837713440E+02 0.  0.
         13    1    3    3    0    0  0.45254020128E+03  0.22437184528E+03 -0.13801610862E+04  0.14696870356E+04  0.00000000000E+00 0. -1.
        -13    1    3    3    0    0  0.14097548171E+03  0.12953467212E+03 -0.58045602535E+03  0.61121396834E+03  0.00000000000E+00 0.  1.
         22    1    1    2    0    0 -0.59351568299E+03 -0.35390651740E+03 -0.68463619149E+03  0.97274734834E+03  0.00000000000E+00 0.  1.
<mgrwt>
<rscale>  0 0.15255829E+04</rscale>
<asrwt>0</asrwt>
<pdfrwt beam="1">  1        2 0.43837705E+00 0.15255829E+04</pdfrwt>
<pdfrwt beam="2">  1       -2 0.31415004E-01 0.15255829E+04</pdfrwt>
<totfact> 0.19676761E+01</totfact>
</mgrwt>
</event>
<event>
 6    1  0.1072514E-005  0.2212600E+04  0.7818608E-02  0.8513202E-01
          2   -1    0    0  501    0  0.00000000000E+00  0.00000000000E+00  0.25239750704E+04  0.25239750704E+04  0.00000000000E+00 0. -1.
         -2   -1    0    0    0  501 -0.00000000000E+00 -0.00000000000E+00 -0.48490955019E+03  0.48490955019E+03  0.00000000000E+00 0.  1.
         23    2    1    2    0    0  0.45710061448E+03  0.14382160847E+03  0.23744293425E+04  0.24239961525E+04  0.90647768673E+02 0.  0.
         13    1    3    3    0    0  0.20176940278E+02 -0.19446939958E+01  0.21714777704E+03  0.21809183347E+03  0.00000000000E+00 0.  1.
        -13    1    3    3    0    0  0.43692367420E+03  0.14576630246E+03  0.21572815655E+04  0.22059043191E+04  0.00000000000E+00 0. -1.
         22    1    1    2    0    0 -0.45710061448E+03 -0.14382160847E+03 -0.33536382228E+03  0.58488846810E+03  0.00000000000E+00 0.  1.
<mgrwt>
<rscale>  0 0.22125999E+04</rscale>
<asrwt>0</asrwt>
<pdfrwt beam="1">  1        2 0.38830385E+00 0.22125999E+04</pdfrwt>
<pdfrwt beam="2">  1       -2 0.74601471E-01 0.22125999E+04</pdfrwt>
<totfact> 0.49743665E+00</totfact>
</mgrwt>
</event>
<event>
 6    1  0.1072514E-005  0.9053308E+03  0.7818608E-02  0.9418942E-01
         -1   -1    0    0    0  501 -0.00000000000E+00  0.00000000000E+00  0.24364160129E+04  0.24364160129E+04  0.00000000000E+00 0.  1.
          1   -1    0    0  501    0  0.00000000000E+00 -0.00000000000E+00 -0.84101383679E+02  0.84101383679E+02  0.00000000000E+00 0. -1.
         23    2    1    2    0    0 -0.10613968494E+02  0.40700532340E+03  0.17085829170E+04  0.17588373411E+04  0.92126101152E+02 0.  0.
         13    1    3    3    0    0 -0.24576206932E+02  0.28181414132E+03  0.13332449854E+04  0.13629253066E+04  0.00000000000E+00 0. -1.
        -13    1    3    3    0    0  0.13962238439E+02  0.12519118208E+03  0.37533793162E+03  0.39591203453E+03  0.00000000000E+00 0.  1.
         22    1    1    2    0    0  0.10613968494E+02 -0.40700532340E+03  0.64373171212E+03  0.76168005540E+03  0.00000000000E+00 0. -1.
<mgrwt>
<rscale>  0 0.90533079E+03</rscale>
<asrwt>0</asrwt>
<pdfrwt beam="1">  1        1 0.12938676E-01 0.90533079E+03</pdfrwt>
<pdfrwt beam="2">  1       -1 0.37483318E+00 0.90533079E+03</pdfrwt>
<totfact> 0.51870155E+00</totfact>
</mgrwt>
</event>
<event>
 6    1  0.1072514E-005  0.1462968E+04  0.7818608E-02  0.8909459E-01
         -2   -1    0    0    0  501 -0.00000000000E+00  0.00000000000E+00  0.26366456122E+03  0.26366456122E+03  0.00000000000E+00 0.  1.
          2   -1    0    0  501    0  0.00000000000E+00 -0.00000000000E+00 -0.20293538043E+04  0.20293538043E+04  0.00000000000E+00 0. -1.
         23    2    1    2    0    0 -0.14583557274E+03 -0.57361717874E+03 -0.22007621293E+03  0.63795814880E+03  0.90842600715E+02 0.  0.
         11    1    3    3    0    0 -0.58825143102E+02 -0.31166163986E+03 -0.16096056073E+03  0.35567074286E+03  0.00000000000E+00 0.  1.
        -11    1    3    3    0    0 -0.87010429636E+02 -0.26195553888E+03 -0.59115652205E+02  0.28228740594E+03  0.00000000000E+00 0. -1.
         22    1    1    2    0    0  0.14583557274E+03  0.57361717874E+03 -0.15456130302E+04  0.16550602168E+04  0.00000000000E+00 0. -1.
<mgrwt>
<rscale>  0 0.14629678E+04</rscale>
<asrwt>0</asrwt>
<pdfrwt beam="1">  1        2 0.31220829E+00 0.14629678E+04</pdfrwt>
<pdfrwt beam="2">  1       -2 0.40563777E-01 0.14629678E+04</pdfrwt>
<totfact> 0.35890099E+01</totfact>
</mgrwt>
</event>
<event>
 6    1  0.1072514E-005  0.2331608E+04  0.7818608E-02  0.8465562E-01
         -2   -1    0    0    0  501 -0.00000000000E+00  0.00000000000E+00  0.41938124671E+03  0.41938124671E+03  0.00000000000E+00 0. -1.
          2   -1    0    0  501    0  0.00000000000E+00 -0.00000000000E+00 -0.32407238439E+04  0.32407238439E+04  0.00000000000E+00 0.  1.
         23    2    1    2    0    0  0.66755627783E+03 -0.92738110640E+03 -0.10676746475E+04  0.15670168511E+04  0.99727419360E+02 0.  0.
         13    1    3    3    0    0  0.43613435081E+03 -0.64671287815E+03 -0.78149823518E+03  0.11041694663E+04  0.00000000000E+00 0. -1.
        -13    1    3    3    0    0  0.23142192702E+03 -0.28066822825E+03 -0.28617641229E+03  0.46284738479E+03  0.00000000000E+00 0.  1.
         22    1    1    2    0    0 -0.66755627783E+03  0.92738110640E+03 -0.17536679498E+04  0.20930882396E+04  0.00000000000E+00 0.  1.
<mgrwt>
<rscale>  0 0.23316079E+04</rscale>
<asrwt>0</asrwt>
<pdfrwt beam="1">  1        2 0.49857291E+00 0.23316079E+04</pdfrwt>
<pdfrwt beam="2">  1       -2 0.64520190E-01 0.23316079E+04</pdfrwt>
<totfact> 0.24494063E+00</totfact>
</mgrwt>
</event>
<event>
 6    1  0.1072514E-005  0.1177277E+04  0.7818608E-02  0.9132981E-01
         -1   -1    0    0    0  501 -0.00000000000E+00  0.00000000000E+00  0.51634565272E+03  0.51634565272E+03  0.00000000000E+00 0.  1.
          1   -1    0    0  501    0  0.00000000000E+00 -0.00000000000E+00 -0.67105332932E+03  0.67105332932E+03  0.00000000000E+00 0. -1.
         23    2    1    2    0    0  0.41432683640E+03 -0.30855891595E+03  0.19928137605E+03  0.56115335820E+03  0.91130086170E+02 0.  0.
         11    1    3    3    0    0  0.29163505629E+03 -0.16380603456E+03  0.11752160066E+03  0.35453455352E+03  0.00000000000E+00 0. -1.
        -11    1    3    3    0    0  0.12269178011E+03 -0.14475288139E+03  0.81759775381E+02  0.20661880468E+03  0.00000000000E+00 0.  1.
         22    1    1    2    0    0 -0.41432683640E+03  0.30855891595E+03 -0.35398905265E+03  0.62624562383E+03  0.00000000000E+00 0. -1.
<mgrwt>
<rscale>  0 0.11772773E+04</rscale>
<asrwt>0</asrwt>
<pdfrwt beam="1">  1        1 0.10323897E+00 0.11772773E+04</pdfrwt>
<pdfrwt beam="2">  1       -1 0.79437793E-01 0.11772773E+04</pdfrwt>
<totfact> 0.45609479E+01</totfact>
</mgrwt>
</event>
<event>
 6    1  0.1072514E-005  0.2835696E+04  0.7818608E-02  0.8292271E-01
         -2   -1    0    0    0  501 -0.00000000000E+00  0.00000000000E+00  0.10351194538E+04  0.10351194538E+04  0.00000000000E+00 0.  1.
          2   -1    0    0  501    0  0.00000000000E+00 -0.00000000000E+00 -0.19420880162E+04  0.19420880162E+04  0.00000000000E+00 0. -1.
         23    2    1    2    0    0 -0.10941581214E+03  0.64390101559E+03 -0.17735135531E+04  0.18920897073E+04  0.89848759320E+02 0.  0.
         13    1    3    3    0    0 -0.53845103479E+02  0.49622400475E+03 -0.12758361685E+04  0.13699983529E+04  0.00000000000E+00 0.  1.
        -13    1    3    3    0    0 -0.55570708660E+02  0.14767701084E+03 -0.49767738466E+03  0.52209135445E+03  0.00000000000E+00 0. -1.
         22    1    1    2    0    0  0.10941581214E+03 -0.64390101559E+03  0.86654499080E+03  0.10851177627E+04  0.00000000000E+00 0.  1.
<mgrwt>
<rscale>  0 0.28356961E+04</rscale>
<asrwt>0</asrwt>
<pdfrwt beam="1">  1        2 0.29878277E+00 0.28356961E+04</pdfrwt>
<pdfrwt beam="2">  1       -2 0.15924915E+00 0.28356961E+04</pdfrwt>
<totfact> 0.15929872E+00</totfact>
</mgrwt>
</event>
<event>
 6    1  0.1072514E-005  0.1164680E+04  0.7818608E-02  0.9144346E-01
         -2   -1    0    0    0  501 -0.00000000000E+00  0.00000000000E+00  0.21927459301E+03  0.21927459301E+03  0.00000000000E+00 0.  1.
          2   -1    0    0  501    0  0.00000000000E+00 -0.00000000000E+00 -0.15465540152E+04  0.15465540152E+04  0.00000000000E+00 0. -1.
         23    2    1    2    0    0  0.56648618046E+02  0.49662309998E+03 -0.22538752603E+03  0.55586607980E+03  0.91345456439E+02 0.  0.
         11    1    3    3    0    0 -0.22829924600E+02  0.14263735724E+03 -0.79032919721E+02  0.16465972045E+03  0.00000000000E+00 0.  1.
        -11    1    3    3    0    0  0.79478542646E+02  0.35398574274E+03 -0.14635460631E+03  0.39120635935E+03  0.00000000000E+00 0. -1.
         22    1    1    2    0    0 -0.56648618046E+02 -0.49662309998E+03 -0.11018918962E+04  0.12099625285E+04  0.00000000000E+00 0. -1.
<mgrwt>
<rscale>  0 0.11646802E+04</rscale>
<asrwt>0</asrwt>
<pdfrwt beam="1">  1        2 0.23793138E+00 0.11646802E+04</pdfrwt>
<pdfrwt beam="2">  1       -2 0.33734554E-01 0.11646802E+04</pdfrwt>
<totfact> 0.97072852E+01</totfact>
</mgrwt>
</event>
<event>
 6    1  0.1072514E-005  0.1880076E+04  0.7818608E-02  0.8664838E-01
         -2   -1    0    0    0  501 -0.00000000000E+00  0.00000000000E+00  0.15271863483E+04  0.15271863483E+04  0.00000000000E+00 0.  1.
          2   -1    0    0  501    0  0.00000000000E+00 -0.00000000000E+00 -0.57862735378E+03  0.57862735378E+03  0.00000000000E+00 0. -1.
         23    2    1    2    0    0 -0.40990157599E+03 -0.81104041897E+03  0.21563003020E+03  0.93834176239E+03  0.90460432895E+02 0.  0.
         13    1    3    3    0    0 -0.63131394214E+02 -0.11394332407E+03 -0.68725234610E+00  0.13026559926E+03  0.00000000000E+00 0.  1.
        -13    1    3    3    0    0 -0.34677018178E+03 -0.69709709491E+03  0.21631728254E+03  0.80807616313E+03  0.00000000000E+00 0. -1.
         22    1    1    2    0    0  0.40990157599E+03  0.81104041897E+03  0.73292896431E+03  0.11674719397E+04  0.00000000000E+00 0.  1.
<mgrwt>
<rscale>  0 0.18800764E+04</rscale>
<asrwt>0</asrwt>
<pdfrwt beam="1">  1        2 0.89019594E-01 0.18800764E+04</pdfrwt>
<pdfrwt beam="2">  1       -2 0.23495174E+00 0.18800764E+04</pdfrwt>
<totfact> 0.38683703E+00</totfact>
</mgrwt>
</event>
<event>
 6    1  0.1072514E-005  0.2647688E+04  0.7818608E-02  0.8352181E-01
         -3   -1    0    0    0  501 -0.00000000000E+00  0.00000000000E+00  0.76257156686E+03  0.76257156686E+03  0.00000000000E+00 0.  1.
          3   -1    0    0  501    0  0.00000000000E+00 -0.00000000000E+00 -0.22982270539E+04  0.22982270539E+04  0.00000000000E+00 0. -1.
         23    2    1    2    0    0 -0.10817088405E+04  0.43867113873E+03 -0.14869239483E+04  0.18925087824E+04  0.90112594894E+02 0.  0.
         13    1    3    3    0    0 -0.74557988392E+03  0.32746767370E+03 -0.97976650251E+03  0.12739964050E+04  0.00000000000E+00 0. -1.
        -13    1    3    3    0    0 -0.33612895658E+03  0.11120346503E+03 -0.50715744584E+03  0.61851237737E+03  0.00000000000E+00 0.  1.
         22    1    1    2    0    0  0.10817088405E+04 -0.43867113873E+03 -0.48731538701E+02  0.11682898384E+04  0.00000000000E+00 0.  1.
<mgrwt>
<rscale>  0 0.26476878E+04</rscale>
<asrwt>0</asrwt>
<pdfrwt beam="1">  1        3 0.35357339E+00 0.26476878E+04</pdfrwt>
<pdfrwt beam="2">  1       -3 0.11731870E+00 0.26476878E+04</pdfrwt>
<totfact> 0.27027784E-02</totfact>
</mgrwt>
</event>
<event>
 6    1  0.1072514E-005  0.1829226E+04  0.7818608E-02  0.8690910E-01
          2   -1    0    0  501    0  0.00000000000E+00  0.00000000000E+00  0.11530486957E+04  0.11530486957E+04  0.00000000000E+00 0.  1.
         -2   -1    0    0    0  501 -0.00000000000E+00 -0.00000000000E+00 -0.72548259310E+03  0.72548259310E+03  0.00000000000E+00 0. -1.
         23    2    1    2    0    0  0.22757443843E+03 -0.45436454590E+03  0.99270075983E+03  0.11185217847E+04  0.86016966899E+02 0.  0.
         13    1    3    3    0    0  0.12802314583E+03 -0.28090042691E+03  0.51181174114E+03  0.59770078976E+03  0.00000000000E+00 0.  1.
        -13    1    3    3    0    0  0.99551292595E+02 -0.17346411899E+03  0.48088901869E+03  0.52082099490E+03  0.00000000000E+00 0. -1.
         22    1    1    2    0    0 -0.22757443843E+03  0.45436454590E+03 -0.56513465722E+03  0.76000950414E+03  0.00000000000E+00 0. -1.
<mgrwt>
<rscale>  0 0.18292258E+04</rscale>
<asrwt>0</asrwt>
<pdfrwt beam="1">  1        2 0.17739211E+00 0.18292258E+04</pdfrwt>
<pdfrwt beam="2">  1       -2 0.11161271E+00 0.18292258E+04</pdfrwt>
<totfact> 0.12077997E+01</totfact>
</mgrwt>
</event>
<event>
 6    1  0.1072514E-005  0.9614543E+03  0.7818608E-02  0.9351862E-01
         -2   -1    0    0    0  501 -0.00000000000E+00  0.00000000000E+00  0.10467534425E+03  0.10467534425E+03  0.00000000000E+00 0.  1.
          2   -1    0    0  501    0  0.00000000000E+00 -0.00000000000E+00 -0.22077654553E+04  0.22077654553E+04  0.00000000000E+00 0. -1.
         23    2    1    2    0    0 -0.74317109786E+02  0.46371610978E+02 -0.21873993227E+04  0.21908620092E+04  0.86528535009E+02 0.  0.
         11    1    3    3    0    0 -0.10102711676E+02  0.44635417547E+02 -0.46052840151E+03  0.46279670902E+03  0.00000000000E+00 0. -1.
        -11    1    3    3    0    0 -0.64214398110E+02  0.17361934310E+01 -0.17268709212E+04  0.17280653002E+04  0.00000000000E+00 0.  1.
         22    1    1    2    0    0  0.74317109786E+02 -0.46371610978E+02  0.84309211598E+02  0.12157879039E+03  0.00000000000E+00 0.  1.
<mgrwt>
<rscale>  0 0.96145433E+03</rscale>
<asrwt>0</asrwt>
<pdfrwt beam="1">  1        2 0.33965620E+00 0.96145433E+03</pdfrwt>
<pdfrwt beam="2">  1       -2 0.16103900E-01 0.96145433E+03</pdfrwt>
<totfact> 0.16041794E+02</totfact>
</mgrwt>
</event>
<event>
 6    1  0.1072514E-005  0.2052594E+04  0.7818608E-02  0.8582418E-01
          2   -1    0    0  501    0  0.00000000000E+00  0.00000000000E+00  0.11658112526E+04  0.11658112526E+04  0.00000000000E+00 0. -1.
         -2   -1    0    0    0  501 -0.00000000000E+00 -0.00000000000E+00 -0.90347870097E+03  0.90347870097E+03  0.00000000000E+00 0.  1.
         23    2    1    2    0    0  0.27107612939E+03  0.95660939116E+03  0.37936690587E+03  0.10681501855E+04  0.91879129085E+02 0.  0.
         11    1    3    3    0    0  0.61629020920E+02  0.22893498766E+03  0.13310841077E+03  0.27189559359E+03  0.00000000000E+00 0. -1.
        -11    1    3    3    0    0  0.20944710847E+03  0.72767440350E+03  0.24625849511E+03  0.79625459193E+03  0.00000000000E+00 0.  1.
         22    1    1    2    0    0 -0.27107612939E+03 -0.95660939116E+03 -0.11703435422E+03  0.10011397681E+04  0.00000000000E+00 0. -1.
<mgrwt>
<rscale>  0 0.20525941E+04</rscale>
<asrwt>0</asrwt>
<pdfrwt beam="1">  1        2 0.17935558E+00 0.20525941E+04</pdfrwt>
<pdfrwt beam="2">  1       -2 0.13899672E+00 0.20525941E+04</pdfrwt>
<totfact> 0.67236166E+00</totfact>
</mgrwt>
</event>
<event>
 6    1  0.1072514E-005  0.2367126E+04  0.7818608E-02  0.8451914E-01
         -1   -1    0    0    0  501 -0.00000000000E+00  0.00000000000E+00  0.12970358557E+04  0.12970358557E+04  0.00000000000E+00 0.  1.
          1   -1    0    0  501    0  0.00000000000E+00 -0.00000000000E+00 -0.10800178640E+04  0.10800178640E+04  0.00000000000E+00 0. -1.
         23    2    1    2    0    0 -0.75009097985E+03 -0.56463357378E+03 -0.61117661999E+03  0.11251136789E+04  0.10438572211E+03 0.  0.
         13    1    3    3    0    0 -0.40892388539E+03 -0.37174090124E+03 -0.36473488894E+03  0.66214921348E+03  0.00000000000E+00 0.  1.
        -13    1    3    3    0    0 -0.34116709446E+03 -0.19289267255E+03 -0.24644173105E+03  0.46296446545E+03  0.00000000000E+00 0. -1.
         22    1    1    2    0    0  0.75009097985E+03  0.56463357378E+03  0.82819461171E+03  0.12519400407E+04  0.00000000000E+00 0. -1.
<mgrwt>
<rscale>  0 0.23671264E+04</rscale>
<asrwt>0</asrwt>
<pdfrwt beam="1">  1        1 0.16615660E+00 0.23671264E+04</pdfrwt>
<pdfrwt beam="2">  1       -1 0.19954398E+00 0.23671264E+04</pdfrwt>
<totfact> 0.17885170E+00</totfact>
</mgrwt>
</event>
<event>
 6    1  0.1072514E-005  0.2074137E+04  0.7818608E-02  0.8572723E-01
         -1   -1    0    0    0  501 -0.00000000000E+00  0.00000000000E+00  0.23633140692E+04  0.23633140692E+04  0.00000000000E+00 0.  1.
          1   -1    0    0  501    0  0.00000000000E+00 -0.00000000000E+00 -0.45508576204E+03  0.45508576204E+03  0.00000000000E+00 0. -1.
         23    2    1    2    0    0 -0.65049355297E+03 -0.78591715125E+03  0.11937912676E+04  0.15729168267E+04  0.90122816222E+02 0.  0.
         13    1    3    3    0    0 -0.46689940118E+03 -0.61893988781E+03  0.87881988524E+03  0.11719240702E+04  0.00000000000E+00 0. -1.
        -13    1    3    3    0    0 -0.18359415179E+03 -0.16697726344E+03  0.31497138240E+03  0.40099275655E+03  0.00000000000E+00 0.  1.
         22    1    1    2    0    0  0.65049355297E+03  0.78591715125E+03  0.71443703949E+03  0.12454830045E+04  0.00000000000E+00 0. -1.
<mgrwt>
<rscale>  0 0.20741365E+04</rscale>
<asrwt>0</asrwt>
<pdfrwt beam="1">  1        1 0.70013195E-01 0.20741365E+04</pdfrwt>
<pdfrwt beam="2">  1       -1 0.36358677E+00 0.20741365E+04</pdfrwt>
<totfact> 0.58720657E-01</totfact>
</mgrwt>
</event>
<event>
 6    1  0.1072514E-005  0.1144264E+04  0.7818608E-02  0.9163092E-01
          1   -1    0    0  501    0  0.00000000000E+00  0.00000000000E+00  0.66519099989E+03  0.66519099989E+03  0.00000000000E+00 0. -1.
         -1   -1    0    0    0  501 -0.00000000000E+00 -0.00000000000E+00 -0.49209173559E+03  0.49209173559E+03  0.00000000000E+00 0.  1.
         23    2    1    2    0    0  0.17857204647E+03 -0.40376155048E+03  0.45079380520E+03  0.63572197826E+03  0.77562964130E+02 0.  0.
         11    1    3    3    0    0  0.70407013766E+02 -0.25275492618E+03  0.25660278326E+03  0.36699753224E+03  0.00000000000E+00 0.  1.
        -11    1    3    3    0    0  0.10816503271E+03 -0.15100662430E+03  0.19419102195E+03  0.26872444602E+03  0.00000000000E+00 0. -1.
         22    1    1    2    0    0 -0.17857204647E+03  0.40376155048E+03 -0.27769454090E+03  0.52156075722E+03  0.00000000000E+00 0.  1.
<mgrwt>
<rscale>  0 0.11442639E+04</rscale>
<asrwt>0</asrwt>
<pdfrwt beam="1">  1        1 0.10233708E+00 0.11442639E+04</pdfrwt>
<pdfrwt beam="2">  1       -1 0.75706421E-01 0.11442639E+04</pdfrwt>
<totfact> 0.51276833E+01</totfact>
</mgrwt>
</event>
<event>
 6    1  0.1072514E-005  0.3294495E+04  0.7818608E-02  0.8164297E-01
         -2   -1    0    0    0  501 -0.00000000000E+00  0.00000000000E+00  0.16309176373E+04  0.16309176373E+04  0.00000000000E+00 0.  1.
          2   -1    0    0  501    0  0.00000000000E+00 -0.00000000000E+00 -0.16637410762E+04  0.16637410762E+04  0.00000000000E+00 0. -1.
         23    2    1    2    0    0 -0.11893476522E+04 -0.11373302057E+04 -0.51319256173E+02  0.16489339705E+04  0.91004056831E+02 0.  0.
         13    1    3    3    0    0 -0.66152765543E+03 -0.62818159053E+03 -0.73583110403E+02  0.91522971090E+03  0.00000000000E+00 0.  1.
        -13    1    3    3    0    0 -0.52781999676E+03 -0.50914861520E+03  0.22263854230E+02  0.73370425959E+03  0.00000000000E+00 0. -1.
         22    1    1    2    0    0  0.11893476522E+04  0.11373302057E+04  0.18495817298E+02  0.16457247430E+04  0.00000000000E+00 0. -1.
<mgrwt>
<rscale>  0 0.32944952E+04</rscale>
<asrwt>0</asrwt>
<pdfrwt beam="1">  1        2 0.25596016E+00 0.32944952E+04</pdfrwt>
<pdfrwt beam="2">  1       -2 0.25091041E+00 0.32944952E+04</pdfrwt>
<totfact> 0.54461570E-01</totfact>
</mgrwt>
</event>
<event>
 6    1  0.1072514E-005  0.2693663E+04  0.7818608E-02  0.8337064E-01
          1   -1    0    0  501    0  0.00000000000E+00  0.00000000000E+00  0.16367098449E+04  0.16367098449E+04  0.00000000000E+00 0. -1.
         -1   -1    0    0    0  501 -0.00000000000E+00 -0.00000000000E+00 -0.11082938972E+04  0.11082938972E+04  0.00000000000E+00 0.  1.
         23    2    1    2    0    0 -0.94239472314E+03  0.92147344906E+03 -0.10281434444E+02  0.13211301518E+04  0.89766577911E+02 0.  0.
         13    1    3    3    0    0 -0.19867992707E+03  0.24679705184E+03 -0.99671078089E+01  0.31698870872E+03  0.00000000000E+00 0.  1.
        -13    1    3    3    0    0 -0.74371479608E+03  0.67467639722E+03 -0.31432663522E+00  0.10041414431E+04  0.00000000000E+00 0. -1.
         22    1    1    2    0    0  0.94239472314E+03 -0.92147344906E+03  0.53869738220E+03  0.14238735903E+04  0.00000000000E+00 0.  1.
<mgrwt>
<rscale>  0 0.26936633E+04</rscale>
<asrwt>0</asrwt>
<pdfrwt beam="1">  1        1 0.25180151E+00 0.26936633E+04</pdfrwt>
<pdfrwt beam="2">  1       -1 0.17050675E+00 0.26936633E+04</pdfrwt>
<totfact> 0.11223046E+00</totfact>
</mgrwt>
</event>
<event>
 6    1  0.1072514E-005  0.1035223E+04  0.7818608E-02  0.9270734E-01
          2   -1    0    0  501    0  0.00000000000E+00  0.00000000000E+00  0.48660501605E+03  0.48660501605E+03  0.00000000000E+00 0. -1.
         -2   -1    0    0    0  501 -0.00000000000E+00 -0.00000000000E+00 -0.55059423174E+03  0.55059423174E+03  0.00000000000E+00 0.  1.
         23    2    1    2    0    0 -0.10055844318E+03 -0.36966728256E+03 -0.37475830891E+03  0.54390082940E+03  0.92835455705E+02 0.  0.
         13    1    3    3    0    0 -0.61870968844E+02 -0.31106820912E+03 -0.34196462253E+03  0.46640245558E+03  0.00000000000E+00 0. -1.
        -13    1    3    3    0    0 -0.38687474333E+02 -0.58599073438E+02 -0.32793686384E+02  0.77498373820E+02  0.00000000000E+00 0.  1.
         22    1    1    2    0    0  0.10055844318E+03  0.36966728256E+03  0.31076909323E+03  0.49329841839E+03  0.00000000000E+00 0. -1.
<mgrwt>
<rscale>  0 0.10352235E+04</rscale>
<asrwt>0</asrwt>
<pdfrwt beam="1">  1        2 0.74862310E-01 0.10352235E+04</pdfrwt>
<pdfrwt beam="2">  1       -2 0.84706805E-01 0.10352235E+04</pdfrwt>
<totfact> 0.76962985E+01</totfact>
</mgrwt>
</event>
<event>
 6    1  0.1072514E-005  0.8456111E+03  0.7818608E-02  0.9496247E-01
         -2   -1    0    0    0  501 -0.00000000000E+00  0.00000000000E+00  0.27299516602E+03  0.27299516602E+03  0.00000000000E+00 0.  1.
          2   -1    0    0  501    0  0.00000000000E+00 -0.00000000000E+00 -0.65482676190E+03  0.65482676190E+03  0.00000000000E+00 0. -1.
         23    2    1    2    0    0 -0.14198510011E+03 -0.39026115951E+03 -0.14467045352E+03  0.44958668379E+03  0.93461782790E+02 0.  0.
         13    1    3    3    0    0 -0.29075109730E+01 -0.12551144052E+03 -0.28362957486E+02  0.12870910100E+03  0.00000000000E+00 0.  1.
        -13    1    3    3    0    0 -0.13907758914E+03 -0.26474971899E+03 -0.11630749604E+03  0.32087758279E+03  0.00000000000E+00 0. -1.
         22    1    1    2    0    0  0.14198510011E+03  0.39026115951E+03 -0.23716114236E+03  0.47823524413E+03  0.00000000000E+00 0. -1.
<mgrwt>
<rscale>  0 0.84561112E+03</rscale>
<asrwt>0</asrwt>
<pdfrwt beam="1">  1        2 0.10074258E+00 0.84561112E+03</pdfrwt>
<pdfrwt beam="2">  1       -2 0.41999257E-01 0.84561112E+03</pdfrwt>
<totfact> 0.24048513E+02</totfact>
</mgrwt>
</event>
<event>
 6    1  0.1274280E-005  0.1998091E+04  0.7818608E-02  0.8607514E-01
          3   -1    0    0  501    0  0.00000000000E+00  0.00000000000E+00  0.82697831893E+03  0.82697831893E+03  0.00000000000E+00 0. -1.
         -3   -1    0    0    0  501 -0.00000000000E+00 -0.00000000000E+00 -0.12069143263E+04  0.12069143263E+04  0.00000000000E+00 0.  1.
         23    2    1    2    0    0  0.23561582259E+02  0.39243123155E+03  0.74231761665E+03  0.84477086161E+03  0.89693617336E+02 0.  0.
         13    1    3    3    0    0 -0.26978482288E+02  0.21826671000E+03  0.36506131932E+03  0.42619005393E+03  0.00000000000E+00 0.  1.
        -13    1    3    3    0    0  0.50540064547E+02  0.17416452154E+03  0.37725629733E+03  0.41858080768E+03  0.00000000000E+00 0. -1.
         22    1    1    2    0    0 -0.23561582259E+02 -0.39243123155E+03 -0.11222536240E+04  0.11891217836E+04  0.00000000000E+00 0.  1.
<mgrwt>
<rscale>  0 0.19980911E+04</rscale>
<asrwt>0</asrwt>
<pdfrwt beam="1">  1        3 0.12722743E+00 0.19980911E+04</pdfrwt>
<pdfrwt beam="2">  1       -3 0.18567913E+00 0.19980911E+04</pdfrwt>
<totfact> 0.21584024E-01</totfact>
</mgrwt>
</event>
<event>
 6    1  0.1072514E-005  0.1051169E+04  0.7818608E-02  0.9254138E-01
          1   -1    0    0  501    0  0.00000000000E+00  0.00000000000E+00  0.11214454098E+04  0.11214454098E+04  0.00000000000E+00 0. -1.
         -1   -1    0    0    0  501 -0.00000000000E+00 -0.00000000000E+00 -0.24632427436E+03  0.24632427436E+03  0.00000000000E+00 0.  1.
         23    2    1    2    0    0 -0.12219075156E+03 -0.50514655281E+03  0.38842193873E+03  0.65574459497E+03  0.95003956558E+02 0.  0.
         11    1    3    3    0    0 -0.97232811039E+02 -0.40040316307E+03  0.35245981724E+03  0.54222212728E+03  0.00000000000E+00 0. -1.
        -11    1    3    3    0    0 -0.24957940525E+02 -0.10474338973E+03  0.35962121490E+02  0.11352246769E+03  0.00000000000E+00 0.  1.
         22    1    1    2    0    0  0.12219075156E+03  0.50514655281E+03  0.48669919672E+03  0.71202508921E+03  0.00000000000E+00 0.  1.
<mgrwt>
<rscale>  0 0.10511693E+04</rscale>
<asrwt>0</asrwt>
<pdfrwt beam="1">  1        1 0.17253006E+00 0.10511693E+04</pdfrwt>
<pdfrwt beam="2">  1       -1 0.37896043E-01 0.10511693E+04</pdfrwt>
<totfact> 0.82012543E+01</totfact>
</mgrwt>
</event>
<event>
 6    1  0.1072514E-005  0.8946440E+03  0.7818608E-02  0.9432302E-01
         -1   -1    0    0    0  501 -0.00000000000E+00  0.00000000000E+00  0.40693423821E+03  0.40693423821E+03  0.00000000000E+00 0.  1.
          1   -1    0    0  501    0  0.00000000000E+00 -0.00000000000E+00 -0.49171819341E+03  0.49171819341E+03  0.00000000000E+00 0. -1.
         23    2    1    2    0    0 -0.20976803736E+03 -0.33530851827E+03 -0.24280419256E+03  0.47273597581E+03  0.89949958183E+02 0.  0.
         11    1    3    3    0    0 -0.21120193610E+03 -0.28274636530E+03 -0.20745697059E+03  0.40937777119E+03  0.00000000000E+00 0. -1.
        -11    1    3    3    0    0  0.14338987457E+01 -0.52562152973E+02 -0.35347221970E+02  0.63358204613E+02  0.00000000000E+00 0.  1.
         22    1    1    2    0    0  0.20976803736E+03  0.33530851827E+03  0.15802023736E+03  0.42591645581E+03  0.00000000000E+00 0.  1.
<mgrwt>
<rscale>  0 0.89464399E+03</rscale>
<asrwt>0</asrwt>
<pdfrwt beam="1">  1        1 0.75648953E-01 0.89464399E+03</pdfrwt>
<pdfrwt beam="2">  1       -1 0.62605267E-01 0.89464399E+03</pdfrwt>
<totfact> 0.11836563E+02</totfact>
</mgrwt>
</event>
<event>
 6    1  0.1072514E-005  0.3136715E+04  0.7818608E-02  0.8205734E-01
         -1   -1    0    0    0  501 -0.00000000000E+00  0.00000000000E+00  0.21553075630E+04  0.21553075630E+04  0.00000000000E+00 0.  1.
          1   -1    0    0  501    0  0.00000000000E+00 -0.00000000000E+00 -0.11412499072E+04  0.11412499072E+04  0.00000000000E+00 0. -1.
         23    2    1    2    0    0  0.81258374585E+03 -0.91613067582E+03 -0.52012797992E+03  0.13335716516E+04  0.91063029035E+02 0.  0.
         11    1    3    3    0    0  0.46448888630E+03 -0.45877380447E+03 -0.26086921220E+03  0.70304770467E+03  0.00000000000E+00 0. -1.
        -11    1    3    3    0    0  0.34809485955E+03 -0.45735687134E+03 -0.25925876772E+03  0.63052394693E+03  0.00000000000E+00 0.  1.
         22    1    1    2    0    0 -0.81258374585E+03  0.91613067582E+03  0.15341856357E+04  0.19629858186E+04  0.00000000000E+00 0.  1.
<mgrwt>
<rscale>  0 0.31367146E+04</rscale>
<asrwt>0</asrwt>
<pdfrwt beam="1">  1        1 0.17557691E+00 0.31367146E+04</pdfrwt>
<pdfrwt beam="2">  1       -1 0.33158578E+00 0.31367146E+04</pdfrwt>
<totfact> 0.20408986E-01</totfact>
</mgrwt>
</event>
<event>
 6    1  0.1072514E-005  0.3339165E+04  0.7818608E-02  0.8153001E-01
         -2   -1    0    0    0  501 -0.00000000000E+00  0.00000000000E+00  0.15433573697E+04  0.15433573697E+04  0.00000000000E+00 0.  1.
          2   -1    0    0  501    0  0.00000000000E+00 -0.00000000000E+00 -0.18061307350E+04  0.18061307350E+04  0.00000000000E+00 0. -1.
         23    2    1    2    0    0  0.14259515270E+04 -0.85616111143E+03 -0.69604807047E+00  0.16657321466E+04  0.91178361871E+02 0.  0.
         13    1    3    3    0    0  0.60681256329E+03 -0.41560388689E+03  0.10564167933E+02  0.73556758996E+03  0.00000000000E+00 0. -1.
        -13    1    3    3    0    0  0.81913896373E+03 -0.44055722454E+03 -0.11260216004E+02  0.93016455665E+03  0.00000000000E+00 0.  1.
         22    1    1    2    0    0 -0.14259515270E+04  0.85616111143E+03 -0.26207731716E+03  0.16837559581E+04  0.00000000000E+00 0. -1.
<mgrwt>
<rscale>  0 0.33391647E+04</rscale>
<asrwt>0</asrwt>
<pdfrwt beam="1">  1        2 0.27786627E+00 0.33391647E+04</pdfrwt>
<pdfrwt beam="2">  1       -2 0.23743960E+00 0.33391647E+04</pdfrwt>
<totfact> 0.54770123E-01</totfact>
</mgrwt>
</event>
<event>
 6    1  0.1072514E-005  0.1535659E+04  0.7818608E-02  0.8861080E-01
         -2   -1    0    0    0  501 -0.00000000000E+00  0.00000000000E+00  0.89447092307E+03  0.89447092307E+03  0.00000000000E+00 0.  1.
          2   -1    0    0  501    0  0.00000000000E+00 -0.00000000000E+00 -0.65911868041E+03  0.65911868041E+03  0.00000000000E+00 0. -1.
         23    2    1    2    0    0 -0.51854473718E+03 -0.42592051059E+03 -0.25319670303E+03  0.72354322035E+03  0.95442629287E+02 0.  0.
         13    1    3    3    0    0 -0.50328053571E+03 -0.39842727764E+03 -0.25785276017E+03  0.69175403079E+03  0.00000000000E+00 0. -1.
        -13    1    3    3    0    0 -0.15264201477E+02 -0.27493232946E+02  0.46560571379E+01  0.31789189556E+02  0.00000000000E+00 0.  1.
         22    1    1    2    0    0  0.51854473718E+03  0.42592051059E+03  0.48854894569E+03  0.83004638312E+03  0.00000000000E+00 0.  1.
<mgrwt>
<rscale>  0 0.15356595E+04</rscale>
<asrwt>0</asrwt>
<pdfrwt beam="1">  1        2 0.10140287E+00 0.15356595E+04</pdfrwt>
<pdfrwt beam="2">  1       -2 0.13761091E+00 0.15356595E+04</pdfrwt>
<totfact> 0.15985198E+01</totfact>
</mgrwt>
</event>
<event>
 6    1  0.1072514E-005  0.2505658E+04  0.7818608E-02  0.8400973E-01
         -1   -1    0    0    0  501 -0.00000000000E+00  0.00000000000E+00  0.85693408458E+03  0.85693408458E+03  0.00000000000E+00 0.  1.
          1   -1    0    0  501    0  0.00000000000E+00 -0.00000000000E+00 -0.18316236064E+04  0.18316236064E+04  0.00000000000E+00 0. -1.
         23    2    1    2    0    0 -0.43781947933E+03 -0.97507947960E+03  0.20984953724E+03  0.10930644536E+04  0.91033968680E+02 0.  0.
         11    1    3    3    0    0 -0.32097998106E+03 -0.65447439980E+03  0.10762755030E+03  0.73685044468E+03  0.00000000000E+00 0.  1.
        -11    1    3    3    0    0 -0.11683949827E+03 -0.32060507980E+03  0.10222198693E+03  0.35621400894E+03  0.00000000000E+00 0. -1.
         22    1    1    2    0    0  0.43781947933E+03  0.97507947960E+03 -0.11845390591E+04  0.15954932374E+04  0.00000000000E+00 0. -1.
<mgrwt>
<rscale>  0 0.25056582E+04</rscale>
<asrwt>0</asrwt>
<pdfrwt beam="1">  1        1 0.28178825E+00 0.25056582E+04</pdfrwt>
<pdfrwt beam="2">  1       -1 0.13183601E+00 0.25056582E+04</pdfrwt>
<totfact> 0.16848775E+00</totfact>
</mgrwt>
</event>
<event>
 6    1  0.1072514E-005  0.3365553E+04  0.7818608E-02  0.8146413E-01
          1   -1    0    0  501    0  0.00000000000E+00  0.00000000000E+00  0.32521344597E+04  0.32521344597E+04  0.00000000000E+00 0. -1.
         -1   -1    0    0    0  501 -0.00000000000E+00 -0.00000000000E+00 -0.87073153981E+03  0.87073153981E+03  0.00000000000E+00 0.  1.
         23    2    1    2    0    0 -0.70776851245E+03  0.12028929599E+04  0.23405942772E+04  0.27266020254E+04  0.89940505023E+02 0.  0.
         11    1    3    3    0    0 -0.83656772257E+02  0.12343742408E+03  0.30441127518E+03  0.33897120477E+03  0.00000000000E+00 0. -1.
        -11    1    3    3    0    0 -0.62411174019E+03  0.10794555358E+04  0.20361830020E+04  0.23876308206E+04  0.00000000000E+00 0.  1.
         22    1    1    2    0    0  0.70776851245E+03 -0.12028929599E+04  0.40808642729E+02  0.13962639741E+04  0.00000000000E+00 0.  1.
<mgrwt>
<rscale>  0 0.33655526E+04</rscale>
<asrwt>0</asrwt>
<pdfrwt beam="1">  1        1 0.50032837E+00 0.33655526E+04</pdfrwt>
<pdfrwt beam="2">  1       -1 0.13395870E+00 0.33655526E+04</pdfrwt>
<totfact> 0.15037079E-01</totfact>
</mgrwt>
</event>
<event>
 6    1  0.1072514E-005  0.2770729E+04  0.7818608E-02  0.8312414E-01
         -2   -1    0    0    0  501 -0.00000000000E+00  0.00000000000E+00  0.90128924532E+03  0.90128924532E+03  0.00000000000E+00 0.  1.
          2   -1    0    0  501    0  0.00000000000E+00 -0.00000000000E+00 -0.21294325248E+04  0.21294325248E+04  0.00000000000E+00 0. -1.
         23    2    1    2    0    0 -0.55248166652E+03 -0.77861373114E+03 -0.17105968565E+04  0.19610317271E+04  0.89601869632E+02 0.  0.
         13    1    3    3    0    0 -0.53222404839E+03 -0.73169109938E+03 -0.15789565309E+04  0.18198181307E+04  0.00000000000E+00 0.  1.
        -13    1    3    3    0    0 -0.20257618124E+02 -0.46922631760E+02 -0.13164032558E+03  0.14121359631E+03  0.00000000000E+00 0. -1.
         22    1    1    2    0    0  0.55248166652E+03  0.77861373114E+03  0.48245357702E+03  0.10696900430E+04  0.00000000000E+00 0.  1.
<mgrwt>
<rscale>  0 0.27707289E+04</rscale>
<asrwt>0</asrwt>
<pdfrwt beam="1">  1        2 0.32760500E+00 0.27707289E+04</pdfrwt>
<pdfrwt beam="2">  1       -2 0.13865989E+00 0.27707289E+04</pdfrwt>
<totfact> 0.18170652E+00</totfact>
</mgrwt>
</event>
<event>
 6    1  0.1072514E-005  0.1837631E+04  0.7818608E-02  0.8686540E-01
         -2   -1    0    0    0  501 -0.00000000000E+00  0.00000000000E+00  0.31794782788E+03  0.31794782788E+03  0.00000000000E+00 0.  1.
          2   -1    0    0  501    0  0.00000000000E+00 -0.00000000000E+00 -0.26552212882E+04  0.26552212882E+04  0.00000000000E+00 0. -1.
         23    2    1    2    0    0  0.34183602459E+03 -0.77672949060E+03 -0.17320063755E+04  0.19308117813E+04  0.89596210691E+02 0.  0.
         13    1    3    3    0    0  0.19734370267E+03 -0.51904225212E+03 -0.10569899723E+04  0.11939753758E+04  0.00000000000E+00 0.  1.
        -13    1    3    3    0    0  0.14449232191E+03 -0.25768723849E+03 -0.67501640310E+03  0.73683640547E+03  0.00000000000E+00 0. -1.
         22    1    1    2    0    0 -0.34183602459E+03  0.77672949060E+03 -0.60526708484E+03  0.10423573347E+04  0.00000000000E+00 0.  1.
<mgrwt>
<rscale>  0 0.18376309E+04</rscale>
<asrwt>0</asrwt>
<pdfrwt beam="1">  1        2 0.40849558E+00 0.18376309E+04</pdfrwt>
<pdfrwt beam="2">  1       -2 0.48915051E-01 0.18376309E+04</pdfrwt>
<totfact> 0.10533480E+01</totfact>
</mgrwt>
</event>
<event>
 6    1  0.1072514E-005  0.1932950E+04  0.7818608E-02  0.8638627E-01
         -2   -1    0    0    0  501 -0.00000000000E+00  0.00000000000E+00  0.15540188796E+04  0.15540188796E+04  0.00000000000E+00 0.  1.
          2   -1    0    0  501    0  0.00000000000E+00 -0.00000000000E+00 -0.60106974081E+03  0.60106974081E+03  0.00000000000E+00 0. -1.
         23    2    1    2    0    0 -0.96373863512E+03  0.13567528086E+02  0.45136225940E+03  0.10685502492E+04  0.95370389218E+02 0.  0.
         13    1    3    3    0    0 -0.21675247074E+03 -0.30937916132E+02  0.12550017656E+03  0.25236696008E+03  0.00000000000E+00 0. -1.
        -13    1    3    3    0    0 -0.74698616438E+03  0.44505444218E+02  0.32586208284E+03  0.81618328908E+03  0.00000000000E+00 0.  1.
         22    1    1    2    0    0  0.96373863512E+03 -0.13567528086E+02  0.50158687940E+03  0.10865383713E+04  0.00000000000E+00 0. -1.
<mgrwt>
<rscale>  0 0.19329498E+04</rscale>
<asrwt>0</asrwt>
<pdfrwt beam="1">  1        2 0.92472269E-01 0.19329498E+04</pdfrwt>
<pdfrwt beam="2">  1       -2 0.23907983E+00 0.19329498E+04</pdfrwt>
<totfact> 0.34683376E+00</totfact>
</mgrwt>
</event>
<event>
 6    1  0.1072514E-005  0.2055892E+04  0.7818608E-02  0.8580926E-01
         -2   -1    0    0    0  501 -0.00000000000E+00  0.00000000000E+00  0.47559345846E+03  0.47559345846E+03  0.00000000000E+00 0.  1.
          2   -1    0    0  501    0  0.00000000000E+00 -0.00000000000E+00 -0.22217994999E+04  0.22217994999E+04  0.00000000000E+00 0. -1.
         23    2    1    2    0    0 -0.89639451696E+03  0.99974637521E+02 -0.15161212774E+04  0.17665562075E+04  0.92623151288E+02 0.  0.
         13    1    3    3    0    0 -0.10254549261E+03  0.21219362725E+02 -0.23630797609E+03  0.25847107956E+03  0.00000000000E+00 0. -1.
        -13    1    3    3    0    0 -0.79384902434E+03  0.78755274796E+02 -0.12798133014E+04  0.15080851279E+04  0.00000000000E+00 0.  1.
         22    1    1    2    0    0  0.89639451696E+03 -0.99974637521E+02 -0.23008476403E+03  0.93083675089E+03  0.00000000000E+00 0.  1.
<mgrwt>
<rscale>  0 0.20558923E+04</rscale>
<asrwt>0</asrwt>
<pdfrwt beam="1">  1        2 0.34181531E+00 0.20558923E+04</pdfrwt>
<pdfrwt beam="2">  1       -2 0.73168223E-01 0.20558923E+04</pdfrwt>
<totfact> 0.78304427E+00</totfact>
</mgrwt>
</event>
<event>
 6    1  0.1072514E-005  0.1965353E+04  0.7818608E-02  0.8622993E-01
         -3   -1    0    0    0  501 -0.00000000000E+00  0.00000000000E+00  0.74440811019E+03  0.74440811019E+03  0.00000000000E+00 0.  1.
          3   -1    0    0  501    0  0.00000000000E+00 -0.00000000000E+00 -0.12972098714E+04  0.12972098714E+04  0.00000000000E+00 0. -1.
         23    2    1    2    0    0  0.12276345854E+03 -0.87600245678E+03 -0.71644168129E+03  0.11420463088E+04  0.92357553877E+02 0.  0.
         11    1    3    3    0    0 -0.11045068901E+02 -0.17041034621E+03 -0.15192931966E+03  0.22856989700E+03  0.00000000000E+00 0.  1.
        -11    1    3    3    0    0  0.13380852744E+03 -0.70559211057E+03 -0.56451236163E+03  0.91347641181E+03  0.00000000000E+00 0. -1.
         22    1    1    2    0    0 -0.12276345854E+03  0.87600245678E+03  0.16363992006E+03  0.89957167278E+03  0.00000000000E+00 0. -1.
<mgrwt>
<rscale>  0 0.19653535E+04</rscale>
<asrwt>0</asrwt>
<pdfrwt beam="1">  1        3 0.19957075E+00 0.19653535E+04</pdfrwt>
<pdfrwt beam="2">  1       -3 0.11452432E+00 0.19653535E+04</pdfrwt>
<totfact> 0.22848349E-01</totfact>
</mgrwt>
</event>
<event>
 6    1  0.1072514E-005  0.2723692E+04  0.7818608E-02  0.8327359E-01
         -1   -1    0    0    0  501 -0.00000000000E+00  0.00000000000E+00  0.11468168301E+04  0.11468168301E+04  0.00000000000E+00 0.  1.
          1   -1    0    0  501    0  0.00000000000E+00 -0.00000000000E+00 -0.16171927362E+04  0.16171927362E+04  0.00000000000E+00 0. -1.
         23    2    1    2    0    0  0.99434912717E+03 -0.92738921365E+03 -0.24857363724E+03  0.13863386380E+04  0.10660687525E+03 0.  0.
         13    1    3    3    0    0  0.68213703148E+03 -0.68127333615E+03 -0.21195515328E+03  0.98710145135E+03  0.00000000000E+00 0. -1.
        -13    1    3    3    0    0  0.31221209568E+03 -0.24611587750E+03 -0.36618483963E+02  0.39923718667E+03  0.00000000000E+00 0.  1.
         22    1    1    2    0    0 -0.99434912717E+03  0.92738921365E+03 -0.22180226881E+03  0.13776709283E+04  0.00000000000E+00 0. -1.
<mgrwt>
<rscale>  0 0.27236915E+04</rscale>
<asrwt>0</asrwt>
<pdfrwt beam="1">  1        1 0.24879888E+00 0.27236915E+04</pdfrwt>
<pdfrwt beam="2">  1       -1 0.17643336E+00 0.27236915E+04</pdfrwt>
<totfact> 0.10450069E+00</totfact>
</mgrwt>
</event>
<event>
 6    1  0.1072514E-005  0.2024212E+04  0.7818608E-02  0.8595384E-01
          1   -1    0    0  501    0  0.00000000000E+00  0.00000000000E+00  0.17022256740E+04  0.17022256740E+04  0.00000000000E+00 0. -1.
         -1   -1    0    0    0  501 -0.00000000000E+00 -0.00000000000E+00 -0.60177614877E+03  0.60177614877E+03  0.00000000000E+00 0.  1.
         23    2    1    2    0    0 -0.55690299935E+03 -0.24464948879E+03  0.14683303273E+04  0.15931357260E+04  0.10996894219E+03 0.  0.
         11    1    3    3    0    0 -0.35712977249E+03 -0.98560150534E+02  0.89804881468E+03  0.97146664957E+03  0.00000000000E+00 0.  1.
        -11    1    3    3    0    0 -0.19977322687E+03 -0.14608933825E+03  0.57028151266E+03  0.62166907644E+03  0.00000000000E+00 0. -1.
         22    1    1    2    0    0  0.55690299935E+03  0.24464948879E+03 -0.36788080207E+03  0.71086609680E+03  0.00000000000E+00 0.  1.
<mgrwt>
<rscale>  0 0.20242123E+04</rscale>
<asrwt>0</asrwt>
<pdfrwt beam="1">  1        1 0.26188087E+00 0.20242123E+04</pdfrwt>
<pdfrwt beam="2">  1       -1 0.92580947E-01 0.20242123E+04</pdfrwt>
<totfact> 0.49871352E+00</totfact>
</mgrwt>
</event>
<event>
 6    1  0.1238649E-005  0.4371675E+04  0.7818608E-02  0.7933496E-01
          2   -1    0    0  501    0  0.00000000000E+00  0.00000000000E+00  0.29223477198E+04  0.29223477198E+04  0.00000000000E+00 0. -1.
         -2   -1    0    0    0  501 -0.00000000000E+00 -0.00000000000E+00 -0.16349478160E+04  0.16349478160E+04  0.00000000000E+00 0.  1.
         23    2    1    2    0    0  0.29522541328E+02 -0.14663052432E+04 -0.10443495733E+04  0.18026670180E+04  0.89552777291E+02 0.  0.
         11    1    3    3    0    0 -0.25706083152E+02 -0.75224196652E+03 -0.51266494843E+03  0.91068882076E+03  0.00000000000E+00 0. -1.
        -11    1    3    3    0    0  0.55228624480E+02 -0.71406327666E+03 -0.53168462490E+03  0.89197819726E+03  0.00000000000E+00 0.  1.
         22    1    1    2    0    0 -0.29522541328E+02  0.14663052432E+04  0.23317494771E+04  0.27546285177E+04  0.00000000000E+00 0. -1.
<mgrwt>
<rscale>  0 0.43716752E+04</rscale>
<asrwt>0</asrwt>
<pdfrwt beam="1">  1        2 0.44959196E+00 0.43716752E+04</pdfrwt>
<pdfrwt beam="2">  1       -2 0.25153043E+00 0.43716752E+04</pdfrwt>
<totfact> 0.93660460E-02</totfact>
</mgrwt>
</event>
<event>
 6    1  0.1072514E-005  0.2440223E+04  0.7818608E-02  0.8424596E-01
         -2   -1    0    0    0  501 -0.00000000000E+00  0.00000000000E+00  0.39522590428E+03  0.39522590428E+03  0.00000000000E+00 0.  1.
          2   -1    0    0  501    0  0.00000000000E+00 -0.00000000000E+00 -0.37666351340E+04  0.37666351340E+04  0.00000000000E+00 0. -1.
         23    2    1    2    0    0 -0.14719336142E+03  0.11460600446E+04 -0.10287019516E+04  0.15496977772E+04  0.90642065473E+02 0.  0.
         13    1    3    3    0    0 -0.10038573618E+03  0.59809973226E+03 -0.59120217872E+03  0.84694781532E+03  0.00000000000E+00 0.  1.
        -13    1    3    3    0    0 -0.46807625243E+02  0.54796031234E+03 -0.43749977286E+03  0.70274996188E+03  0.00000000000E+00 0. -1.
         22    1    1    2    0    0  0.14719336142E+03 -0.11460600446E+04 -0.23427072781E+04  0.26121632611E+04  0.00000000000E+00 0. -1.
<mgrwt>
<rscale>  0 0.24402228E+04</rscale>
<asrwt>0</asrwt>
<pdfrwt beam="1">  1        2 0.57948232E+00 0.24402228E+04</pdfrwt>
<pdfrwt beam="2">  1       -2 0.60803986E-01 0.24402228E+04</pdfrwt>
<totfact> 0.11780624E+00</totfact>
</mgrwt>
</event>
<event>
 6    1  0.1072514E-005  0.1893419E+04  0.7818608E-02  0.8658139E-01
          1   -1    0    0  501    0  0.00000000000E+00  0.00000000000E+00  0.11710463287E+04  0.11710463287E+04  0.00000000000E+00 0. -1.
         -1   -1    0    0    0  501 -0.00000000000E+00 -0.00000000000E+00 -0.76534900013E+03  0.76534900013E+03  0.00000000000E+00 0.  1.
         23    2    1    2    0    0  0.92265222674E+03  0.15761500532E+03  0.73692768085E+02  0.94324043174E+03  0.90234508869E+02 0.  0.
         13    1    3    3    0    0  0.50638733062E+03  0.51801342013E+02  0.10699952064E+02  0.50914241291E+03  0.00000000000E+00 0. -1.
        -13    1    3    3    0    0  0.41626489611E+03  0.10581366331E+03  0.62992816022E+02  0.43409801882E+03  0.00000000000E+00 0.  1.
         22    1    1    2    0    0 -0.92265222674E+03 -0.15761500532E+03  0.33200456045E+03  0.99315489706E+03  0.00000000000E+00 0. -1.
<mgrwt>
<rscale>  0 0.18934193E+04</rscale>
<asrwt>0</asrwt>
<pdfrwt beam="1">  1        1 0.18016097E+00 0.18934193E+04</pdfrwt>
<pdfrwt beam="2">  1       -1 0.11774600E+00 0.18934193E+04</pdfrwt>
<totfact> 0.68128752E+00</totfact>
</mgrwt>
</event>
<event>
 6    1  0.1568620E-005  0.3319362E+04  0.7818608E-02  0.8157986E-01
         -1   -1    0    0    0  501 -0.00000000000E+00  0.00000000000E+00  0.14836247209E+04  0.14836247209E+04  0.00000000000E+00 0.  1.
          1   -1    0    0  501    0  0.00000000000E+00 -0.00000000000E+00 -0.18566290913E+04  0.18566290913E+04  0.00000000000E+00 0. -1.
         23    2    1    2    0    0  0.15168616008E+04 -0.28424243176E+03  0.42441208368E+03  0.16031482088E+04  0.91080659214E+02 0.  0.
         11    1    3    3    0    0  0.46046111226E+03 -0.10963212125E+03  0.16678004159E+03  0.50185577628E+03  0.00000000000E+00 0. -1.
        -11    1    3    3    0    0  0.10564004886E+04 -0.17461031051E+03  0.25763204209E+03  0.11012924325E+04  0.00000000000E+00 0.  1.
         22    1    1    2    0    0 -0.15168616008E+04  0.28424243176E+03 -0.79741645409E+03  0.17371056034E+04  0.00000000000E+00 0. -1.
<mgrwt>
<rscale>  0 0.33193619E+04</rscale>
<asrwt>0</asrwt>
<pdfrwt beam="1">  1        1 0.28563525E+00 0.33193619E+04</pdfrwt>
<pdfrwt beam="2">  1       -1 0.22824996E+00 0.33193619E+04</pdfrwt>
<totfact> 0.29943539E-01</totfact>
</mgrwt>
</event>
<event>
 6    1  0.1072514E-005  0.7431797E+03  0.7818608E-02  0.9646111E-01
         -1   -1    0    0    0  501 -0.00000000000E+00  0.00000000000E+00  0.50763649078E+03  0.50763649078E+03  0.00000000000E+00 0.  1.
          1   -1    0    0  501    0  0.00000000000E+00 -0.00000000000E+00 -0.27200376175E+03  0.27200376175E+03  0.00000000000E+00 0. -1.
         23    2    1    2    0    0 -0.36152815627E+02 -0.30365415066E+02  0.50037527165E+03  0.51072075085E+03  0.90725896875E+02 0.  0.
         13    1    3    3    0    0 -0.58972976961E+02 -0.34645185334E+02  0.24734443537E+03  0.25662690932E+03  0.00000000000E+00 0. -1.
        -13    1    3    3    0    0  0.22820161335E+02  0.42797702684E+01  0.25303083628E+03  0.25409384153E+03  0.00000000000E+00 0.  1.
         22    1    1    2    0    0  0.36152815627E+02  0.30365415066E+02 -0.26474254262E+03  0.26891950168E+03  0.00000000000E+00 0. -1.
<mgrwt>
<rscale>  0 0.74317975E+03</rscale>
<asrwt>0</asrwt>
<pdfrwt beam="1">  1        1 0.41846733E-01 0.74317975E+03</pdfrwt>
<pdfrwt beam="2">  1       -1 0.78097921E-01 0.74317975E+03</pdfrwt>
<totfact> 0.16587775E+02</totfact>
</mgrwt>
</event>
<event>
 6    1  0.1072514E-005  0.1596572E+04  0.7818608E-02  0.8822657E-01
          2   -1    0    0  501    0  0.00000000000E+00  0.00000000000E+00  0.35125383383E+03  0.35125383383E+03  0.00000000000E+00 0. -1.
         -2   -1    0    0    0  501 -0.00000000000E+00 -0.00000000000E+00 -0.18142442279E+04  0.18142442279E+04  0.00000000000E+00 0.  1.
         23    2    1    2    0    0 -0.13641523079E+03 -0.71520399204E+03 -0.11690531020E+04  0.13803070040E+04  0.91849903455E+02 0.  0.
         11    1    3    3    0    0 -0.13945851923E+03 -0.59328476611E+03 -0.10136872440E+04  0.11827921715E+04  0.00000000000E+00 0.  1.
        -11    1    3    3    0    0  0.30432884395E+01 -0.12191922593E+03 -0.15536585793E+03  0.19751483252E+03  0.00000000000E+00 0. -1.
         22    1    1    2    0    0  0.13641523079E+03  0.71520399204E+03 -0.29393729213E+03  0.78519105772E+03  0.00000000000E+00 0. -1.
<mgrwt>
<rscale>  0 0.15965716E+04</rscale>
<asrwt>0</asrwt>
<pdfrwt beam="1">  1        2 0.54039052E-01 0.15965716E+04</pdfrwt>
<pdfrwt beam="2">  1       -2 0.27911449E+00 0.15965716E+04</pdfrwt>
<totfact> 0.37708240E+00</totfact>
</mgrwt>
</event>
<event>
 6    1  0.1072514E-005  0.2365423E+04  0.7818608E-02  0.8452563E-01
         -2   -1    0    0    0  501 -0.00000000000E+00  0.00000000000E+00  0.12635129379E+04  0.12635129379E+04  0.00000000000E+00 0. -1.
          2   -1    0    0  501    0  0.00000000000E+00 -0.00000000000E+00 -0.11070774404E+04  0.11070774404E+04  0.00000000000E+00 0.  1.
         23    2    1    2    0    0 -0.52676654919E+03 -0.77354024180E+02  0.11347434627E+04  0.12567891766E+04  0.91704230598E+02 0.  0.
         11    1    3    3    0    0 -0.26557484645E+02 -0.57694007920E+01  0.12192285037E+03  0.12491504080E+03  0.00000000000E+00 0. -1.
        -11    1    3    3    0    0 -0.50020906454E+03 -0.71584623388E+02  0.10128206123E+04  0.11318741358E+04  0.00000000000E+00 0.  1.
         22    1    1    2    0    0  0.52676654919E+03  0.77354024180E+02 -0.97830796511E+03  0.11138012017E+04  0.00000000000E+00 0.  1.
<mgrwt>
<rscale>  0 0.23654231E+04</rscale>
<asrwt>0</asrwt>
<pdfrwt beam="1">  1        2 0.17031961E+00 0.23654231E+04</pdfrwt>
<pdfrwt beam="2">  1       -2 0.19438661E+00 0.23654231E+04</pdfrwt>
<totfact> 0.28174501E+00</totfact>
</mgrwt>
</event>
<event>
 6    1  0.1072514E-005  0.3048488E+04  0.7818608E-02  0.8230019E-01
          2   -1    0    0  501    0  0.00000000000E+00  0.00000000000E+00  0.19753754231E+04  0.19753754231E+04  0.00000000000E+00 0. -1.
         -2   -1    0    0    0  501 -0.00000000000E+00 -0.00000000000E+00 -0.11761407749E+04  0.11761407749E+04  0.00000000000E+00 0.  1.
         23    2    1    2    0    0  0.12731361583E+04 -0.13164049868E+03 -0.45255666733E+03  0.13612127611E+04  0.99437143446E+02 0.  0.
         13    1    3    3    0    0  0.74508415583E+03 -0.34721195029E+02 -0.28979161887E+03  0.80020943697E+03  0.00000000000E+00 0. -1.
        -13    1    3    3    0    0  0.52805200245E+03 -0.96919303653E+02 -0.16276504846E+03  0.56100332415E+03  0.00000000000E+00 0.  1.
         22    1    1    2    0    0 -0.12731361583E+04  0.13164049868E+03  0.12517913156E+04  0.17903034369E+04  0.00000000000E+00 0. -1.
<mgrwt>
<rscale>  0 0.30484879E+04</rscale>
<asrwt>0</asrwt>
<pdfrwt beam="1">  1        2 0.30390391E+00 0.30484879E+04</pdfrwt>
<pdfrwt beam="2">  1       -2 0.18094474E+00 0.30484879E+04</pdfrwt>
<totfact> 0.10502427E+00</totfact>
</mgrwt>
</event>
<event>
 6    1  0.1121395E-005  0.2128221E+04  0.7818608E-02  0.8548913E-01
          1   -1    0    0  501    0  0.00000000000E+00  0.00000000000E+00  0.17124377824E+04  0.17124377824E+04  0.00000000000E+00 0. -1.
         -1   -1    0    0    0  501 -0.00000000000E+00 -0.00000000000E+00 -0.66123925173E+03  0.66123925173E+03  0.00000000000E+00 0.  1.
         23    2    1    2    0    0  0.21899922343E+03 -0.79267364337E+03  0.12763362765E+04  0.15210462996E+04  0.90859177626E+02 0.  0.
         13    1    3    3    0    0  0.11532116258E+03 -0.36988737266E+03  0.68152092834E+03  0.78395562040E+03  0.00000000000E+00 0.  1.
        -13    1    3    3    0    0  0.10367806085E+03 -0.42278627072E+03  0.59481534816E+03  0.73709067923E+03  0.00000000000E+00 0. -1.
         22    1    1    2    0    0 -0.21899922343E+03  0.79267364337E+03 -0.22513774585E+03  0.85263073447E+03  0.00000000000E+00 0.  1.
<mgrwt>
<rscale>  0 0.21282209E+04</rscale>
<asrwt>0</asrwt>
<pdfrwt beam="1">  1        1 0.26345196E+00 0.21282209E+04</pdfrwt>
<pdfrwt beam="2">  1       -1 0.10172912E+00 0.21282209E+04</pdfrwt>
<totfact> 0.39282869E+00</totfact>
</mgrwt>
</event>
<event>
 6    1  0.1072514E-005  0.2751718E+04  0.7818608E-02  0.8318417E-01
          2   -1    0    0  501    0  0.00000000000E+00  0.00000000000E+00  0.12277025864E+04  0.12277025864E+04  0.00000000000E+00 0. -1.
         -2   -1    0    0    0  501 -0.00000000000E+00 -0.00000000000E+00 -0.15418951559E+04  0.15418951559E+04  0.00000000000E+00 0.  1.
         23    2    1    2    0    0 -0.31053414174E+03 -0.13260529792E+04 -0.34184599262E+03  0.14073889960E+04  0.95063907131E+02 0.  0.
         11    1    3    3    0    0 -0.19883871170E+03 -0.10117856131E+04 -0.27580468927E+03  0.10673870839E+04  0.00000000000E+00 0. -1.
        -11    1    3    3    0    0 -0.11169543005E+03 -0.31426736608E+03 -0.66041303351E+02  0.34000191209E+03  0.00000000000E+00 0.  1.
         22    1    1    2    0    0  0.31053414174E+03  0.13260529792E+04  0.27653423139E+02  0.13622087464E+04  0.00000000000E+00 0.  1.
<mgrwt>
<rscale>  0 0.27517185E+04</rscale>
<asrwt>0</asrwt>
<pdfrwt beam="1">  1        2 0.18887732E+00 0.27517185E+04</pdfrwt>
<pdfrwt beam="2">  1       -2 0.23721464E+00 0.27517185E+04</pdfrwt>
<totfact> 0.12278421E+00</totfact>
</mgrwt>
</event>
<event>
 6    1  0.1072514E-005  0.1459346E+04  0.7818608E-02  0.8911947E-01
         -2   -1    0    0    0  501 -0.00000000000E+00  0.00000000000E+00  0.17374168379E+03  0.17374168379E+03  0.00000000000E+00 0.  1.
          2   -1    0    0  501    0  0.00000000000E+00 -0.00000000000E+00 -0.30644505340E+04  0.30644505340E+04  0.00000000000E+00 0. -1.
         23    2    1    2    0    0  0.66544379184E+02 -0.50542427819E+03 -0.30165623726E+03  0.59942824804E+03  0.91847066855E+02 0.  0.
         13    1    3    3    0    0  0.64033474804E+02 -0.21376871144E+03 -0.98161804929E+02  0.24378902320E+03  0.00000000000E+00 0. -1.
        -13    1    3    3    0    0  0.25109043798E+01 -0.29165556675E+03 -0.20349443234E+03  0.35563922485E+03  0.00000000000E+00 0.  1.
         22    1    1    2    0    0 -0.66544379184E+02  0.50542427819E+03 -0.25890526129E+04  0.26387639697E+04  0.00000000000E+00 0. -1.
<mgrwt>
<rscale>  0 0.14593461E+04</rscale>
<asrwt>0</asrwt>
<pdfrwt beam="1">  1        2 0.47145394E+00 0.14593461E+04</pdfrwt>
<pdfrwt beam="2">  1       -2 0.26729489E-01 0.14593461E+04</pdfrwt>
<totfact> 0.19682826E+01</totfact>
</mgrwt>
</event>
<event>
 6    1  0.1072514E-005  0.1889677E+04  0.7818608E-02  0.8660012E-01
          2   -1    0    0  501    0  0.00000000000E+00  0.00000000000E+00  0.21317189928E+04  0.21317189928E+04  0.00000000000E+00 0. -1.
         -2   -1    0    0    0  501 -0.00000000000E+00 -0.00000000000E+00 -0.41877921305E+03  0.41877921305E+03  0.00000000000E+00 0.  1.
         23    2    1    2    0    0 -0.19355576274E+03 -0.51558170604E+03 -0.17380323359E+03  0.58502433746E+03  0.93581956206E+02 0.  0.
         13    1    3    3    0    0 -0.20277046687E+02 -0.49733791689E+02  0.10863974844E+02  0.54796301038E+02  0.00000000000E+00 0. -1.
        -13    1    3    3    0    0 -0.17327871605E+03 -0.46584791435E+03 -0.18466720843E+03  0.53022803643E+03  0.00000000000E+00 0.  1.
         22    1    1    2    0    0  0.19355576274E+03  0.51558170604E+03  0.18867430133E+04  0.19654738683E+04  0.00000000000E+00 0. -1.
<mgrwt>
<rscale>  0 0.18896768E+04</rscale>
<asrwt>0</asrwt>
<pdfrwt beam="1">  1        2 0.32795676E+00 0.18896768E+04</pdfrwt>
<pdfrwt beam="2">  1       -2 0.64427573E-01 0.18896768E+04</pdfrwt>
<totfact> 0.11764738E+01</totfact>
</mgrwt>
</event>
<event>
 6    1  0.1072514E-005  0.1619436E+04  0.7818608E-02  0.8808696E-01
          2   -1    0    0  501    0  0.00000000000E+00  0.00000000000E+00  0.27407630312E+04  0.27407630312E+04  0.00000000000E+00 0. -1.
         -2   -1    0    0    0  501 -0.00000000000E+00 -0.00000000000E+00 -0.23921925251E+03  0.23921925251E+03  0.00000000000E+00 0.  1.
         23    2    1    2    0    0 -0.14237889313E+03 -0.43156117771E+03  0.24822583981E+04  0.25251320609E+04  0.90379037912E+02 0.  0.
         11    1    3    3    0    0 -0.10379150965E+03 -0.40054052884E+03  0.22294166993E+04  0.22674885252E+04  0.00000000000E+00 0. -1.
        -11    1    3    3    0    0 -0.38587383485E+02 -0.31020648867E+02  0.25284169886E+03  0.25764353573E+03  0.00000000000E+00 0.  1.
         22    1    1    2    0    0  0.14237889313E+03  0.43156117771E+03  0.19285380574E+02  0.45485022284E+03  0.00000000000E+00 0.  1.
<mgrwt>
<rscale>  0 0.16194361E+04</rscale>
<asrwt>0</asrwt>
<pdfrwt beam="1">  1        2 0.42165583E+00 0.16194361E+04</pdfrwt>
<pdfrwt beam="2">  1       -2 0.36802964E-01 0.16194361E+04</pdfrwt>
<totfact> 0.16779390E+01</totfact>
</mgrwt>
</event>
<event>
 6    1  0.1072514E-005  0.2204250E+04  0.7818608E-02  0.8516661E-01
          1   -1    0    0  501    0  0.00000000000E+00  0.00000000000E+00  0.19064199532E+04  0.19064199532E+04  0.00000000000E+00 0. -1.
         -1   -1    0    0    0  501 -0.00000000000E+00 -0.00000000000E+00 -0.63715226419E+03  0.63715226419E+03  0.00000000000E+00 0.  1.
         23    2    1    2    0    0  0.85402500125E+02  0.97791906905E+03  0.62315413642E+02  0.98782381625E+03  0.91068043431E+02 0.  0.
         13    1    3    3    0    0  0.59292592255E+02  0.56419444144E+03  0.79915512517E+02  0.57290266921E+03  0.00000000000E+00 0.  1.
        -13    1    3    3    0    0  0.26109907871E+02  0.41372462761E+03 -0.17600098875E+02  0.41492114704E+03  0.00000000000E+00 0. -1.
         22    1    1    2    0    0 -0.85402500125E+02 -0.97791906905E+03  0.12069522754E+04  0.15557484011E+04  0.00000000000E+00 0. -1.
<mgrwt>
<rscale>  0 0.22042502E+04</rscale>
<asrwt>0</asrwt>
<pdfrwt beam="1">  1        1 0.29329538E+00 0.22042502E+04</pdfrwt>
<pdfrwt beam="2">  1       -1 0.98023426E-01 0.22042502E+04</pdfrwt>
<totfact> 0.31353958E+00</totfact>
</mgrwt>
</event>
<event>
 6    1  0.1072514E-005  0.1660856E+04  0.7818608E-02  0.8784010E-01
          2   -1    0    0  501    0  0.00000000000E+00  0.00000000000E+00  0.15583556542E+04  0.15583556542E+04  0.00000000000E+00 0. -1.
         -2   -1    0    0    0  501 -0.00000000000E+00 -0.00000000000E+00 -0.44252474849E+03  0.44252474849E+03  0.00000000000E+00 0.  1.
         23    2    1    2    0    0 -0.79867633515E+03 -0.21592644307E+03  0.52070674624E+03  0.98172345583E+03  0.90207045163E+02 0.  0.
         11    1    3    3    0    0 -0.22958567834E+03 -0.10450898636E+03  0.15069909568E+03  0.29383997238E+03  0.00000000000E+00 0. -1.
        -11    1    3    3    0    0 -0.56909065681E+03 -0.11141745671E+03  0.37000765056E+03  0.68788348345E+03  0.00000000000E+00 0.  1.
         22    1    1    2    0    0  0.79867633515E+03  0.21592644307E+03  0.59512415946E+03  0.10191569469E+04  0.00000000000E+00 0. -1.
<mgrwt>
<rscale>  0 0.16608563E+04</rscale>
<asrwt>0</asrwt>
<pdfrwt beam="1">  1        2 0.23974702E+00 0.16608563E+04</pdfrwt>
<pdfrwt beam="2">  1       -2 0.68080732E-01 0.16608563E+04</pdfrwt>
<totfact> 0.22182276E+01</totfact>
</mgrwt>
</event>
<event>
 6    1  0.1072514E-005  0.1765715E+04  0.7818608E-02  0.8724747E-01
         -1   -1    0    0    0  501 -0.00000000000E+00  0.00000000000E+00  0.35975245973E+04  0.35975245973E+04  0.00000000000E+00 0.  1.
          1   -1    0    0  501    0  0.00000000000E+00 -0.00000000000E+00 -0.21665929725E+03  0.21665929725E+03  0.00000000000E+00 0. -1.
         23    2    1    2    0    0 -0.39040840962E+03  0.77546530751E+03  0.20128468439E+04  0.21939247592E+04  0.89377079643E+02 0.  0.
         11    1    3    3    0    0 -0.24615752542E+03  0.48519419944E+03  0.11500673171E+04  0.12722663921E+04  0.00000000000E+00 0.  1.
        -11    1    3    3    0    0 -0.14425088420E+03  0.29027110807E+03  0.86277952682E+03  0.92165836712E+03  0.00000000000E+00 0. -1.
         22    1    1    2    0    0  0.39040840962E+03 -0.77546530751E+03  0.13680184561E+04  0.16202591354E+04  0.00000000000E+00 0.  1.
<mgrwt>
<rscale>  0 0.17657148E+04</rscale>
<asrwt>0</asrwt>
<pdfrwt beam="1">  1        1 0.33332202E-01 0.17657148E+04</pdfrwt>
<pdfrwt beam="2">  1       -1 0.55346528E+00 0.17657148E+04</pdfrwt>
<totfact> 0.89961994E-02</totfact>
</mgrwt>
</event>
<event>
 6    1  0.1072514E-005  0.3625059E+04  0.7818608E-02  0.8084776E-01
         -2   -1    0    0    0  501 -0.00000000000E+00  0.00000000000E+00  0.14571908321E+04  0.14571908321E+04  0.00000000000E+00 0.  1.
          2   -1    0    0  501    0  0.00000000000E+00 -0.00000000000E+00 -0.22545179793E+04  0.22545179793E+04  0.00000000000E+00 0. -1.
         23    2    1    2    0    0 -0.15239173213E+04  0.49665505265E+03 -0.12629679109E+04  0.20426337490E+04  0.90963977326E+02 0.  0.
         13    1    3    3    0    0 -0.75057395356E+03  0.19697245616E+03 -0.61528740666E+03  0.99032217033E+03  0.00000000000E+00 0. -1.
        -13    1    3    3    0    0 -0.77334336770E+03  0.29968259648E+03 -0.64768050424E+03  0.10523115787E+04  0.00000000000E+00 0.  1.
         22    1    1    2    0    0  0.15239173213E+04 -0.49665505265E+03  0.46564076366E+03  0.16690750625E+04  0.00000000000E+00 0.  1.
<mgrwt>
<rscale>  0 0.36250589E+04</rscale>
<asrwt>0</asrwt>
<pdfrwt beam="1">  1        2 0.34684892E+00 0.36250589E+04</pdfrwt>
<pdfrwt beam="2">  1       -2 0.22418321E+00 0.36250589E+04</pdfrwt>
<totfact> 0.36390693E-01</totfact>
</mgrwt>
</event>
<event>
 6    1  0.1072514E-005  0.1340514E+04  0.7818608E-02  0.8998040E-01
         -1   -1    0    0    0  501 -0.00000000000E+00  0.00000000000E+00  0.54824167808E+03  0.54824167808E+03  0.00000000000E+00 0.  1.
          1   -1    0    0  501    0  0.00000000000E+00 -0.00000000000E+00 -0.81942785609E+03  0.81942785609E+03  0.00000000000E+00 0. -1.
         23    2    1    2    0    0  0.20498683238E+03  0.61327802069E+03  0.31453073291E+02  0.65372272345E+03  0.90744538246E+02 0.  0.
         11    1    3    3    0    0  0.13537476460E+03  0.27391778955E+03 -0.32592564143E+01  0.30556162238E+03  0.00000000000E+00 0. -1.
        -11    1    3    3    0    0  0.69612067788E+02  0.33936023114E+03  0.34712329705E+02  0.34816110107E+03  0.00000000000E+00 0.  1.
         22    1    1    2    0    0 -0.20498683238E+03 -0.61327802069E+03 -0.30263925130E+03  0.71394681072E+03  0.00000000000E+00 0. -1.
<mgrwt>
<rscale>  0 0.13405141E+04</rscale>
<asrwt>0</asrwt>
<pdfrwt beam="1">  1        1 0.12606582E+00 0.13405141E+04</pdfrwt>
<pdfrwt beam="2">  1       -1 0.84344873E-01 0.13405141E+04</pdfrwt>
<totfact> 0.29016121E+01</totfact>
</mgrwt>
</event>
<event>
 6    1  0.1072514E-005  0.2922389E+04  0.7818608E-02  0.8266247E-01
         -2   -1    0    0    0  501 -0.00000000000E+00  0.00000000000E+00  0.64118800167E+03  0.64118800167E+03  0.00000000000E+00 0. -1.
          2   -1    0    0  501    0  0.00000000000E+00 -0.00000000000E+00 -0.33298967295E+04  0.33298967295E+04  0.00000000000E+00 0.  1.
         23    2    1    2    0    0  0.88781421225E+03 -0.10752179662E+04 -0.75828129928E+03  0.15897284354E+04  0.89096685002E+02 0.  0.
         13    1    3    3    0    0  0.94717585602E+02 -0.10424103540E+03 -0.10742587677E+03  0.17713817624E+03  0.00000000000E+00 0.  1.
        -13    1    3    3    0    0  0.79309662664E+03 -0.97097693083E+03 -0.65085542252E+03  0.14125902592E+04  0.00000000000E+00 0. -1.
         22    1    1    2    0    0 -0.88781421225E+03  0.10752179662E+04 -0.19304274286E+04  0.23813562958E+04  0.00000000000E+00 0.  1.
<mgrwt>
<rscale>  0 0.29223893E+04</rscale>
<asrwt>0</asrwt>
<pdfrwt beam="1">  1        2 0.51229180E+00 0.29223893E+04</pdfrwt>
<pdfrwt beam="2">  1       -2 0.98644310E-01 0.29223893E+04</pdfrwt>
<totfact> 0.78124335E-01</totfact>
</mgrwt>
</event>
<event>
 6    1  0.1072514E-005  0.4739360E+04  0.7818608E-02  0.7870021E-01
         -1   -1    0    0    0  501 -0.00000000000E+00  0.00000000000E+00  0.18386008623E+04  0.18386008623E+04  0.00000000000E+00 0.  1.
          1   -1    0    0  501    0  0.00000000000E+00 -0.00000000000E+00 -0.30541616909E+04  0.30541616909E+04  0.00000000000E+00 0. -1.
         23    2    1    2    0    0 -0.84306318674E+03  0.15740452929E+04  0.99896377521E+03  0.20480317502E+04  0.90173746762E+02 0.  0.
         11    1    3    3    0    0 -0.59400690759E+03  0.11374555320E+04  0.76115690769E+03  0.14919816124E+04  0.00000000000E+00 0.  1.
        -11    1    3    3    0    0 -0.24905627915E+03  0.43658976090E+03  0.23780686751E+03  0.55605013780E+03  0.00000000000E+00 0. -1.
         22    1    1    2    0    0  0.84306318674E+03 -0.15740452929E+04 -0.22145246038E+04  0.28447308030E+04  0.00000000000E+00 0. -1.
<mgrwt>
<rscale>  0 0.47393604E+04</rscale>
<asrwt>0</asrwt>
<pdfrwt beam="1">  1        1 0.46987102E+00 0.47393604E+04</pdfrwt>
<pdfrwt beam="2">  1       -1 0.28286167E+00 0.47393604E+04</pdfrwt>
<totfact> 0.17143450E-02</totfact>
</mgrwt>
</event>
<event>
 6    1  0.1072514E-005  0.2777991E+04  0.7818608E-02  0.8310134E-01
          1   -1    0    0  501    0  0.00000000000E+00  0.00000000000E+00  0.18054761265E+04  0.18054761265E+04  0.00000000000E+00 0. -1.
         -1   -1    0    0    0  501 -0.00000000000E+00 -0.00000000000E+00 -0.10685867749E+04  0.10685867749E+04  0.00000000000E+00 0.  1.
         23    2    1    2    0    0  0.89341558839E+03 -0.10497279877E+04  0.53459195561E+03  0.14808491711E+04  0.83698547234E+02 0.  0.
         13    1    3    3    0    0  0.77677309465E+03 -0.93068466452E+03  0.44287454709E+03  0.12906154539E+04  0.00000000000E+00 0. -1.
        -13    1    3    3    0    0  0.11664249374E+03 -0.11904332316E+03  0.91717408525E+02  0.19023371720E+03  0.00000000000E+00 0.  1.
         22    1    1    2    0    0 -0.89341558839E+03  0.10497279877E+04  0.20229739600E+03  0.13932137302E+04  0.00000000000E+00 0.  1.
<mgrwt>
<rscale>  0 0.27779906E+04</rscale>
<asrwt>0</asrwt>
<pdfrwt beam="1">  1        1 0.27776556E+00 0.27779906E+04</pdfrwt>
<pdfrwt beam="2">  1       -1 0.16439797E+00 0.27779906E+04</pdfrwt>
<totfact> 0.94865458E-01</totfact>
</mgrwt>
</event>
<event>
 6    1  0.1072514E-005  0.1189787E+04  0.7818608E-02  0.9121843E-01
          2   -1    0    0  501    0  0.00000000000E+00  0.00000000000E+00  0.14595053335E+04  0.14595053335E+04  0.00000000000E+00 0. -1.
         -2   -1    0    0    0  501 -0.00000000000E+00 -0.00000000000E+00 -0.24247819296E+03  0.24247819296E+03  0.00000000000E+00 0.  1.
         23    2    1    2    0    0 -0.49830056334E+03  0.27439378847E+03  0.84414997565E+03  0.10218123843E+04  0.88971707323E+02 0.  0.
         13    1    3    3    0    0 -0.23455698369E+03  0.81980708428E+02  0.39211637548E+03  0.46421230819E+03  0.00000000000E+00 0. -1.
        -13    1    3    3    0    0 -0.26374357965E+03  0.19241308004E+03  0.45203360016E+03  0.55760007609E+03  0.00000000000E+00 0.  1.
         22    1    1    2    0    0  0.49830056334E+03 -0.27439378847E+03  0.37287716491E+03  0.68017114221E+03  0.00000000000E+00 0. -1.
<mgrwt>
<rscale>  0 0.11897869E+04</rscale>
<asrwt>0</asrwt>
<pdfrwt beam="1">  1        2 0.22453928E+00 0.11897869E+04</pdfrwt>
<pdfrwt beam="2">  1       -2 0.37304338E-01 0.11897869E+04</pdfrwt>
<totfact> 0.89474111E+01</totfact>
</mgrwt>
</event>
<event>
 6    1  0.1072514E-005  0.2245884E+04  0.7818608E-02  0.8499569E-01
          1   -1    0    0  501    0  0.00000000000E+00  0.00000000000E+00  0.49713880848E+03  0.49713880848E+03  0.00000000000E+00 0. -1.
         -1   -1    0    0    0  501 -0.00000000000E+00 -0.00000000000E+00 -0.25365119318E+04  0.25365119318E+04  0.00000000000E+00 0.  1.
         23    2    1    2    0    0 -0.55605979532E+03 -0.17888460971E+03  0.27120399677E+03  0.65038222258E+03  0.90792224511E+02 0.  0.
         13    1    3    3    0    0 -0.29830529295E+03 -0.13988187289E+03  0.13279682930E+03  0.35522948081E+03  0.00000000000E+00 0. -1.
        -13    1    3    3    0    0 -0.25775450237E+03 -0.39002736817E+02  0.13840716746E+03  0.29515274177E+03  0.00000000000E+00 0.  1.
         22    1    1    2    0    0  0.55605979532E+03  0.17888460971E+03 -0.23105771201E+04  0.23832685177E+04  0.00000000000E+00 0.  1.
<mgrwt>
<rscale>  0 0.22458838E+04</rscale>
<asrwt>0</asrwt>
<pdfrwt beam="1">  1        1 0.76482893E-01 0.22458838E+04</pdfrwt>
<pdfrwt beam="2">  1       -1 0.39023261E+00 0.22458838E+04</pdfrwt>
<totfact> 0.33861259E-01</totfact>
</mgrwt>
</event>
<event>
 6    1  0.1072514E-005  0.1368654E+04  0.7818608E-02  0.8976826E-01
          2   -1    0    0  501    0  0.00000000000E+00  0.00000000000E+00  0.28860256788E+04  0.28860256788E+04  0.00000000000E+00 0. -1.
         -2   -1    0    0    0  501 -0.00000000000E+00 -0.00000000000E+00 -0.16226590553E+03  0.16226590553E+03  0.00000000000E+00 0.  1.
         23    2    1    2    0    0  0.29987377334E+03  0.53353437408E+03  0.20378770841E+04  0.21290428304E+04  0.72781560340E+02 0.  0.
         11    1    3    3    0    0  0.77349073215E+02  0.10421013808E+03  0.52278558814E+03  0.53865332374E+03  0.00000000000E+00 0.  1.
        -11    1    3    3    0    0  0.22252470012E+03  0.42932423599E+03  0.15150914960E+04  0.15903895067E+04  0.00000000000E+00 0. -1.
         22    1    1    2    0    0 -0.29987377334E+03 -0.53353437408E+03  0.68588268912E+03  0.91924875387E+03  0.00000000000E+00 0.  1.
<mgrwt>
<rscale>  0 0.13686542E+04</rscale>
<asrwt>0</asrwt>
<pdfrwt beam="1">  1        2 0.44400391E+00 0.13686542E+04</pdfrwt>
<pdfrwt beam="2">  1       -2 0.24963987E-01 0.13686542E+04</pdfrwt>
<totfact> 0.28991495E+01</totfact>
</mgrwt>
</event>
<event>
 6    1  0.1072514E-005  0.2747414E+04  0.7818608E-02  0.8319783E-01
          2   -1    0    0  501    0  0.00000000000E+00  0.00000000000E+00  0.11359602391E+04  0.11359602391E+04  0.00000000000E+00 0. -1.
         -2   -1    0    0    0  501 -0.00000000000E+00 -0.00000000000E+00 -0.16612120188E+04  0.16612120188E+04  0.00000000000E+00 0.  1.
         23    2    1    2    0    0 -0.71000690975E+03 -0.86235452797E+03  0.54809274286E+03  0.12480326231E+04  0.97029014669E+02 0.  0.
         11    1    3    3    0    0 -0.59333634261E+03 -0.75566990529E+03  0.49815091617E+03  0.10822381238E+04  0.00000000000E+00 0. -1.
        -11    1    3    3    0    0 -0.11667056714E+03 -0.10668462268E+03  0.49941826689E+02  0.16579449933E+03  0.00000000000E+00 0.  1.
         22    1    1    2    0    0  0.71000690975E+03  0.86235452797E+03 -0.10733445226E+04  0.15491396348E+04  0.00000000000E+00 0.  1.
<mgrwt>
<rscale>  0 0.27474139E+04</rscale>
<asrwt>0</asrwt>
<pdfrwt beam="1">  1        2 0.17476311E+00 0.27474139E+04</pdfrwt>
<pdfrwt beam="2">  1       -2 0.25557108E+00 0.27474139E+04</pdfrwt>
<totfact> 0.10746409E+00</totfact>
</mgrwt>
</event>
<event>
 6    1  0.1072514E-005  0.3171805E+04  0.7818608E-02  0.8196303E-01
         -2   -1    0    0    0  501 -0.00000000000E+00  0.00000000000E+00  0.72363017105E+03  0.72363017105E+03  0.00000000000E+00 0.  1.
          2   -1    0    0  501    0  0.00000000000E+00 -0.00000000000E+00 -0.34756512762E+04  0.34756512762E+04  0.00000000000E+00 0. -1.
         23    2    1    2    0    0 -0.11884113797E+04  0.99792616584E+03 -0.95285622063E+03  0.18233242672E+04  0.91641509390E+02 0.  0.
         11    1    3    3    0    0 -0.30955230711E+03  0.22783641120E+03 -0.20001140576E+03  0.43328584507E+03  0.00000000000E+00 0. -1.
        -11    1    3    3    0    0 -0.87885907259E+03  0.77008975464E+03 -0.75284481487E+03  0.13900384221E+04  0.00000000000E+00 0.  1.
         22    1    1    2    0    0  0.11884113797E+04 -0.99792616584E+03 -0.17991648846E+04  0.23759571801E+04  0.00000000000E+00 0.  1.
<mgrwt>
<rscale>  0 0.31718046E+04</rscale>
<asrwt>0</asrwt>
<pdfrwt beam="1">  1        2 0.53471558E+00 0.31718046E+04</pdfrwt>
<pdfrwt beam="2">  1       -2 0.11132772E+00 0.31718046E+04</pdfrwt>
<totfact> 0.45483095E-01</totfact>
</mgrwt>
</event>
<event>
 6    1  0.1072514E-005  0.5312846E+04  0.7818608E-02  0.7781980E-01
          2   -1    0    0  501    0  0.00000000000E+00  0.00000000000E+00  0.40075308197E+04  0.40075308197E+04  0.00000000000E+00 0. -1.
         -2   -1    0    0    0  501 -0.00000000000E+00 -0.00000000000E+00 -0.17608307339E+04  0.17608307339E+04  0.00000000000E+00 0.  1.
         23    2    1    2    0    0  0.19418977382E+04 -0.28953227982E+03  0.30651274735E+04  0.36412463345E+04  0.94194866678E+02 0.  0.
         11    1    3    3    0    0  0.30223794624E+03 -0.11630271765E+02  0.48610749111E+03  0.57252382682E+03  0.00000000000E+00 0. -1.
        -11    1    3    3    0    0  0.16396597920E+04 -0.27790200805E+03  0.25790199824E+04  0.30687225076E+04  0.00000000000E+00 0.  1.
         22    1    1    2    0    0 -0.19418977382E+04  0.28953227982E+03 -0.81842738770E+03  0.21271152192E+04  0.00000000000E+00 0.  1.
<mgrwt>
<rscale>  0 0.53128461E+04</rscale>
<asrwt>0</asrwt>
<pdfrwt beam="1">  1        2 0.61654320E+00 0.53128461E+04</pdfrwt>
<pdfrwt beam="2">  1       -2 0.27089704E+00 0.53128461E+04</pdfrwt>
<totfact> 0.11409500E-02</totfact>
</mgrwt>
</event>
<event>
 6    1  0.1072514E-005  0.5029122E+03  0.7818608E-02  0.1013022E+00
         -2   -1    0    0    0  501 -0.00000000000E+00  0.00000000000E+00  0.25490943821E+03  0.25490943821E+03  0.00000000000E+00 0.  1.
          2   -1    0    0  501    0  0.00000000000E+00 -0.00000000000E+00 -0.24804957760E+03  0.24804957760E+03  0.00000000000E+00 0. -1.
         23    2    1    2    0    0  0.52938587766E+02 -0.13264171784E+03  0.20026412802E+03  0.26253952817E+03  0.91787599873E+02 0.  0.
         11    1    3    3    0    0 -0.16600846320E+02 -0.55292869644E+02  0.35753895331E+02  0.67906042171E+02  0.00000000000E+00 0. -1.
        -11    1    3    3    0    0  0.69539434086E+02 -0.77348848200E+02  0.16451023269E+03  0.19463348600E+03  0.00000000000E+00 0.  1.
         22    1    1    2    0    0 -0.52938587766E+02  0.13264171784E+03 -0.19340426741E+03  0.24041948765E+03  0.00000000000E+00 0. -1.
<mgrwt>
<rscale>  0 0.50291223E+03</rscale>
<asrwt>0</asrwt>
<pdfrwt beam="1">  1        2 0.38161474E-01 0.50291223E+03</pdfrwt>
<pdfrwt beam="2">  1       -2 0.39216837E-01 0.50291223E+03</pdfrwt>
<totfact> 0.83749509E+02</totfact>
</mgrwt>
</event>
<event>
 6    1  0.1072514E-005  0.1894083E+04  0.7818608E-02  0.8657807E-01
          1   -1    0    0  501    0  0.00000000000E+00  0.00000000000E+00  0.22606796197E+04  0.22606796197E+04  0.00000000000E+00 0. -1.
         -1   -1    0    0    0  501 -0.00000000000E+00 -0.00000000000E+00 -0.39673379453E+03  0.39673379453E+03  0.00000000000E+00 0.  1.
         23    2    1    2    0    0 -0.28615309872E+03  0.48343392795E+03  0.20000351084E+04  0.20793889756E+04  0.90144987307E+02 0.  0.
         13    1    3    3    0    0 -0.60378218137E+02  0.44918155697E+02  0.23692703728E+03  0.24859121250E+03  0.00000000000E+00 0. -1.
        -13    1    3    3    0    0 -0.22577488058E+03  0.43851577226E+03  0.17631080711E+04  0.18307977631E+04  0.00000000000E+00 0.  1.
         22    1    1    2    0    0  0.28615309872E+03 -0.48343392795E+03 -0.13608928319E+03  0.57802443858E+03  0.00000000000E+00 0.  1.
<mgrwt>
<rscale>  0 0.18940834E+04</rscale>
<asrwt>0</asrwt>
<pdfrwt beam="1">  1        1 0.34779686E+00 0.18940834E+04</pdfrwt>
<pdfrwt beam="2">  1       -1 0.61035970E-01 0.18940834E+04</pdfrwt>
<totfact> 0.50478111E+00</totfact>
</mgrwt>
</event>
<event>
 6    1  0.1072514E-005  0.1408481E+04  0.7818608E-02  0.8947702E-01
          1   -1    0    0  501    0  0.00000000000E+00  0.00000000000E+00  0.17422183860E+04  0.17422183860E+04  0.00000000000E+00 0. -1.
         -1   -1    0    0    0  501 -0.00000000000E+00 -0.00000000000E+00 -0.28466867817E+03  0.28466867817E+03  0.00000000000E+00 0.  1.
         23    2    1    2    0    0 -0.47297003017E+01 -0.68949036478E+03  0.54834322929E+03  0.88580172389E+03  0.92439514064E+02 0.  0.
         11    1    3    3    0    0  0.11241927978E+02 -0.38417531669E+03  0.36064230009E+03  0.52704831232E+03  0.00000000000E+00 0. -1.
        -11    1    3    3    0    0 -0.15971628280E+02 -0.30531504808E+03  0.18770092920E+03  0.35875341158E+03  0.00000000000E+00 0.  1.
         22    1    1    2    0    0  0.47297003017E+01  0.68949036478E+03  0.90920647859E+03  0.11410853403E+04  0.00000000000E+00 0.  1.
<mgrwt>
<rscale>  0 0.14084815E+04</rscale>
<asrwt>0</asrwt>
<pdfrwt beam="1">  1        1 0.26803359E+00 0.14084815E+04</pdfrwt>
<pdfrwt beam="2">  1       -1 0.43795182E-01 0.14084815E+04</pdfrwt>
<totfact> 0.22394883E+01</totfact>
</mgrwt>
</event>
<event>
 6    1  0.1072514E-005  0.1369079E+04  0.7818608E-02  0.8976510E-01
          1   -1    0    0  501    0  0.00000000000E+00  0.00000000000E+00  0.20694600119E+04  0.20694600119E+04  0.00000000000E+00 0. -1.
         -1   -1    0    0    0  501 -0.00000000000E+00 -0.00000000000E+00 -0.22643304000E+03  0.22643304000E+03  0.00000000000E+00 0.  1.
         23    2    1    2    0    0  0.24168469381E+03  0.40512167772E+03  0.17497445256E+04  0.18150223003E+04  0.10082152778E+03 0.  0.
         13    1    3    3    0    0  0.65472674149E+02  0.11242799834E+03  0.67006683826E+03  0.68258061327E+03  0.00000000000E+00 0. -1.
        -13    1    3    3    0    0  0.17621201967E+03  0.29269367938E+03  0.10796776874E+04  0.11324416870E+04  0.00000000000E+00 0.  1.
         22    1    1    2    0    0 -0.24168469381E+03 -0.40512167772E+03  0.93282446236E+02  0.48087075162E+03  0.00000000000E+00 0.  1.
<mgrwt>
<rscale>  0 0.13690787E+04</rscale>
<asrwt>0</asrwt>
<pdfrwt beam="1">  1        1 0.31837845E+00 0.13690787E+04</pdfrwt>
<pdfrwt beam="2">  1       -1 0.34835854E-01 0.13690787E+04</pdfrwt>
<totfact> 0.20473595E+01</totfact>
</mgrwt>
</event>
<event>
 6    1  0.1072514E-005  0.3103692E+04  0.7818608E-02  0.8214725E-01
         -1   -1    0    0    0  501 -0.00000000000E+00  0.00000000000E+00  0.21646759296E+04  0.21646759296E+04  0.00000000000E+00 0.  1.
          1   -1    0    0  501    0  0.00000000000E+00 -0.00000000000E+00 -0.11125114507E+04  0.11125114507E+04  0.00000000000E+00 0. -1.
         23    2    1    2    0    0 -0.40918682085E+03  0.12973967468E+04 -0.25888499712E+03  0.13878692755E+04  0.92127689389E+02 0.  0.
         11    1    3    3    0    0 -0.27272336494E+03  0.98169064117E+03 -0.17411155118E+03  0.10336389026E+04  0.00000000000E+00 0. -1.
        -11    1    3    3    0    0 -0.13646345590E+03  0.31570610561E+03 -0.84773445934E+02  0.35423037285E+03  0.00000000000E+00 0.  1.
         22    1    1    2    0    0  0.40918682085E+03 -0.12973967468E+04  0.13110494760E+04  0.18893181049E+04  0.00000000000E+00 0. -1.
<mgrwt>
<rscale>  0 0.31036925E+04</rscale>
<asrwt>0</asrwt>
<pdfrwt beam="1">  1        1 0.17115561E+00 0.31036925E+04</pdfrwt>
<pdfrwt beam="2">  1       -1 0.33302707E+00 0.31036925E+04</pdfrwt>
<totfact> 0.21041329E-01</totfact>
</mgrwt>
</event>
<event>
 6    1  0.1072514E-005  0.2504245E+04  0.7818608E-02  0.8401475E-01
         -1   -1    0    0    0  501 -0.00000000000E+00  0.00000000000E+00  0.31932333077E+03  0.31932333077E+03  0.00000000000E+00 0.  1.
          1   -1    0    0  501    0  0.00000000000E+00 -0.00000000000E+00 -0.49097893877E+04  0.49097893877E+04  0.00000000000E+00 0. -1.
         23    2    1    2    0    0 -0.95136029428E+02  0.10668565321E+04 -0.36457161003E+04  0.38009018780E+04  0.91517640376E+02 0.  0.
         11    1    3    3    0    0 -0.32033422180E+02  0.21236349265E+03 -0.61632619340E+03  0.65267324889E+03  0.00000000000E+00 0.  1.
        -11    1    3    3    0    0 -0.63102607248E+02  0.85449303941E+03 -0.30293899069E+04  0.31482286292E+04  0.00000000000E+00 0. -1.
         22    1    1    2    0    0  0.95136029428E+02 -0.10668565321E+04 -0.94474995661E+03  0.14282108404E+04  0.00000000000E+00 0.  1.
<mgrwt>
<rscale>  0 0.25042446E+04</rscale>
<asrwt>0</asrwt>
<pdfrwt beam="1">  1        1 0.75535225E+00 0.25042446E+04</pdfrwt>
<pdfrwt beam="2">  1       -1 0.49126664E-01 0.25042446E+04</pdfrwt>
<totfact> 0.41658900E-02</totfact>
</mgrwt>
</event>
<event>
 6    1  0.1072514E-005  0.1512204E+04  0.7818608E-02  0.8876377E-01
         -1   -1    0    0    0  501 -0.00000000000E+00  0.00000000000E+00  0.45519195473E+03  0.45519195473E+03  0.00000000000E+00 0.  1.
          1   -1    0    0  501    0  0.00000000000E+00 -0.00000000000E+00 -0.12559329858E+04  0.12559329858E+04  0.00000000000E+00 0. -1.
         23    2    1    2    0    0 -0.23100937313E+03 -0.14385172458E+03  0.39287581980E+03  0.48687830042E+03  0.92953862199E+02 0.  0.
         11    1    3    3    0    0 -0.18657210871E+03 -0.14533942575E+03  0.36323259494E+03  0.43344044395E+03  0.00000000000E+00 0. -1.
        -11    1    3    3    0    0 -0.44437264418E+02  0.14877011680E+01  0.29643224856E+02  0.53437856465E+02  0.00000000000E+00 0.  1.
         22    1    1    2    0    0  0.23100937313E+03  0.14385172458E+03 -0.11936168509E+04  0.12242466401E+04  0.00000000000E+00 0. -1.
<mgrwt>
<rscale>  0 0.15122045E+04</rscale>
<asrwt>0</asrwt>
<pdfrwt beam="1">  1        1 0.19322046E+00 0.15122045E+04</pdfrwt>
<pdfrwt beam="2">  1       -1 0.70029533E-01 0.15122045E+04</pdfrwt>
<totfact> 0.19384757E+01</totfact>
</mgrwt>
</event>
<event>
 6    1  0.1072514E-005  0.5088664E+04  0.7818608E-02  0.7814974E-01
         -1   -1    0    0    0  501 -0.00000000000E+00  0.00000000000E+00  0.22757822549E+04  0.22757822549E+04  0.00000000000E+00 0.  1.
          1   -1    0    0  501    0  0.00000000000E+00 -0.00000000000E+00 -0.28445719902E+04  0.28445719902E+04  0.00000000000E+00 0. -1.
         23    2    1    2    0    0  0.21243684512E+04 -0.12570299678E+04 -0.90171438999E+03  0.26295904100E+04  0.92688871455E+02 0.  0.
         13    1    3    3    0    0  0.10473880489E+04 -0.62870328190E+03 -0.39759904840E+03  0.12846690410E+04  0.00000000000E+00 0. -1.
        -13    1    3    3    0    0  0.10769804023E+04 -0.62832668592E+03 -0.50411534160E+03  0.13449213690E+04  0.00000000000E+00 0.  1.
         22    1    1    2    0    0 -0.21243684512E+04  0.12570299678E+04  0.33292465470E+03  0.24907638351E+04  0.00000000000E+00 0. -1.
<mgrwt>
<rscale>  0 0.50886644E+04</rscale>
<asrwt>0</asrwt>
<pdfrwt beam="1">  1        1 0.43762646E+00 0.50886644E+04</pdfrwt>
<pdfrwt beam="2">  1       -1 0.35012034E+00 0.50886644E+04</pdfrwt>
<totfact> 0.86112835E-03</totfact>
</mgrwt>
</event>
<event>
 6    1  0.1072514E-005  0.1593732E+04  0.7818608E-02  0.8824408E-01
         -2   -1    0    0    0  501 -0.00000000000E+00  0.00000000000E+00  0.18967052598E+04  0.18967052598E+04  0.00000000000E+00 0.  1.
          2   -1    0    0  501    0  0.00000000000E+00 -0.00000000000E+00 -0.33478856529E+03  0.33478856529E+03  0.00000000000E+00 0. -1.
         23    2    1    2    0    0  0.88225136679E+02  0.42911181206E+03  0.17111109004E+04  0.17686984783E+04  0.92049832953E+02 0.  0.
         11    1    3    3    0    0  0.63947547901E+02  0.23589961930E+03  0.11192464387E+04  0.11456223243E+04  0.00000000000E+00 0. -1.
        -11    1    3    3    0    0  0.24277588779E+02  0.19321219276E+03  0.59186446163E+03  0.62307615400E+03  0.00000000000E+00 0.  1.
         22    1    1    2    0    0 -0.88225136679E+02 -0.42911181206E+03 -0.14919420582E+03  0.46279534683E+03  0.00000000000E+00 0. -1.
<mgrwt>
<rscale>  0 0.15937318E+04</rscale>
<asrwt>0</asrwt>
<pdfrwt beam="1">  1        2 0.51505934E-01 0.15937318E+04</pdfrwt>
<pdfrwt beam="2">  1       -2 0.29180080E+00 0.15937318E+04</pdfrwt>
<totfact> 0.33323091E+00</totfact>
</mgrwt>
</event>
<event>
 6    1  0.1072514E-005  0.2592172E+04  0.7818608E-02  0.8370865E-01
          2   -1    0    0  501    0  0.00000000000E+00  0.00000000000E+00  0.16850282590E+04  0.16850282590E+04  0.00000000000E+00 0. -1.
         -2   -1    0    0    0  501 -0.00000000000E+00 -0.00000000000E+00 -0.99692049073E+03  0.99692049073E+03  0.00000000000E+00 0.  1.
         23    2    1    2    0    0  0.57150772355E+03  0.36550962814E+03  0.14851534571E+04  0.16352872972E+04  0.90914173086E+02 0.  0.
         11    1    3    3    0    0  0.40885292482E+03  0.29289864252E+03  0.11647777581E+04  0.12687228045E+04  0.00000000000E+00 0. -1.
        -11    1    3    3    0    0  0.16265479873E+03  0.72610985622E+02  0.32037569903E+03  0.36656449270E+03  0.00000000000E+00 0.  1.
         22    1    1    2    0    0 -0.57150772355E+03 -0.36550962814E+03 -0.79704568879E+03  0.10466614526E+04  0.00000000000E+00 0.  1.
<mgrwt>
<rscale>  0 0.25921722E+04</rscale>
<asrwt>0</asrwt>
<pdfrwt beam="1">  1        2 0.25923512E+00 0.25921722E+04</pdfrwt>
<pdfrwt beam="2">  1       -2 0.15337238E+00 0.25921722E+04</pdfrwt>
<totfact> 0.24992121E+00</totfact>
</mgrwt>
</event>
<event>
 6    1  0.1072514E-005  0.1713348E+04  0.7818608E-02  0.8753788E-01
         -1   -1    0    0    0  501 -0.00000000000E+00  0.00000000000E+00  0.32936683957E+03  0.32936683957E+03  0.00000000000E+00 0.  1.
          1   -1    0    0  501    0  0.00000000000E+00 -0.00000000000E+00 -0.22281862819E+04  0.22281862819E+04  0.00000000000E+00 0. -1.
         23    2    1    2    0    0 -0.34055364620E+03  0.77340565794E+03 -0.11379747051E+04  0.14204437108E+04  0.92416494285E+02 0.  0.
         11    1    3    3    0    0 -0.24408743497E+03  0.53926378104E+03 -0.72428191720E+03  0.93539745404E+03  0.00000000000E+00 0.  1.
        -11    1    3    3    0    0 -0.96466211228E+02  0.23414187690E+03 -0.41369278788E+03  0.48504625673E+03  0.00000000000E+00 0. -1.
         22    1    1    2    0    0  0.34055364620E+03 -0.77340565794E+03 -0.76084473725E+03  0.11371094107E+04  0.00000000000E+00 0.  1.
<mgrwt>
<rscale>  0 0.17133484E+04</rscale>
<asrwt>0</asrwt>
<pdfrwt beam="1">  1        1 0.34279790E+00 0.17133484E+04</pdfrwt>
<pdfrwt beam="2">  1       -1 0.50671820E-01 0.17133484E+04</pdfrwt>
<totfact> 0.77568764E+00</totfact>
</mgrwt>
</event>
<event>
 6    1  0.1072514E-005  0.1309975E+04  0.7818608E-02  0.9021692E-01
         -1   -1    0    0    0  501 -0.00000000000E+00  0.00000000000E+00  0.53876287119E+03  0.53876287119E+03  0.00000000000E+00 0.  1.
          1   -1    0    0  501    0  0.00000000000E+00 -0.00000000000E+00 -0.79628493510E+03  0.79628493510E+03  0.00000000000E+00 0. -1.
         23    2    1    2    0    0  0.43979476723E+03 -0.45014711261E+03  0.42986847232E+02  0.63765446968E+03  0.93292515177E+02 0.  0.
         13    1    3    3    0    0  0.11626847340E+03 -0.71004071380E+02 -0.90151423333E+01  0.13653281236E+03  0.00000000000E+00 0. -1.
        -13    1    3    3    0    0  0.32352629383E+03 -0.37914304123E+03  0.52001989566E+02  0.50112165732E+03  0.00000000000E+00 0.  1.
         22    1    1    2    0    0 -0.43979476723E+03  0.45014711261E+03 -0.30050891114E+03  0.69739333662E+03  0.00000000000E+00 0. -1.
<mgrwt>
<rscale>  0 0.13099752E+04</rscale>
<asrwt>0</asrwt>
<pdfrwt beam="1">  1        1 0.12250537E+00 0.13099752E+04</pdfrwt>
<pdfrwt beam="2">  1       -1 0.82886596E-01 0.13099752E+04</pdfrwt>
<totfact> 0.31631608E+01</totfact>
</mgrwt>
</event>
<event>
 6    1  0.1072514E-005  0.5751895E+03  0.7818608E-02  0.9958260E-01
          1   -1    0    0  501    0  0.00000000000E+00  0.00000000000E+00  0.18786452550E+04  0.18786452550E+04  0.00000000000E+00 0. -1.
         -1   -1    0    0    0  501 -0.00000000000E+00 -0.00000000000E+00 -0.44026804898E+02  0.44026804898E+02  0.00000000000E+00 0.  1.
         23    2    1    2    0    0  0.25333345311E+03 -0.62869277687E+02  0.12820305344E+04  0.13115388591E+04  0.91659714399E+02 0.  0.
         13    1    3    3    0    0  0.12649542241E+03 -0.58317891633E+02  0.49038668718E+03  0.50978541695E+03  0.00000000000E+00 0. -1.
        -13    1    3    3    0    0  0.12683803070E+03 -0.45513860544E+01  0.79164384720E+03  0.80175344212E+03  0.00000000000E+00 0.  1.
         22    1    1    2    0    0 -0.25333345311E+03  0.62869277687E+02  0.55258791571E+03  0.61113320081E+03  0.00000000000E+00 0.  1.
<mgrwt>
<rscale>  0 0.57518953E+03</rscale>
<asrwt>0</asrwt>
<pdfrwt beam="1">  1        1 0.28902228E+00 0.57518953E+03</pdfrwt>
<pdfrwt beam="2">  1       -1 0.67733561E-02 0.57518953E+03</pdfrwt>
<totfact> 0.43511955E+02</totfact>
</mgrwt>
</event>
<event>
 6    1  0.1072514E-005  0.2982332E+04  0.7818608E-02  0.8248794E-01
         -1   -1    0    0    0  501 -0.00000000000E+00  0.00000000000E+00  0.14833299379E+04  0.14833299379E+04  0.00000000000E+00 0.  1.
          1   -1    0    0  501    0  0.00000000000E+00 -0.00000000000E+00 -0.14990434488E+04  0.14990434488E+04  0.00000000000E+00 0. -1.
         23    2    1    2    0    0  0.53511333207E+03 -0.94251971235E+03 -0.10299670979E+04  0.14979879835E+04  0.91902610773E+02 0.  0.
         11    1    3    3    0    0  0.35808236916E+03 -0.54427664362E+03 -0.59724995680E+03  0.88383683946E+03  0.00000000000E+00 0. -1.
        -11    1    3    3    0    0  0.17703096291E+03 -0.39824306872E+03 -0.43271714106E+03  0.61415114409E+03  0.00000000000E+00 0.  1.
         22    1    1    2    0    0 -0.53511333207E+03  0.94251971235E+03  0.10142535870E+04  0.14843854032E+04  0.00000000000E+00 0.  1.
<mgrwt>
<rscale>  0 0.29823320E+04</rscale>
<asrwt>0</asrwt>
<pdfrwt beam="1">  1        1 0.23062207E+00 0.29823320E+04</pdfrwt>
<pdfrwt beam="2">  1       -1 0.22820461E+00 0.29823320E+04</pdfrwt>
<totfact> 0.54180199E-01</totfact>
</mgrwt>
</event>
<event>
 6    1  0.1072514E-005  0.2379880E+04  0.7818608E-02  0.8447075E-01
          2   -1    0    0  501    0  0.00000000000E+00  0.00000000000E+00  0.22094069178E+04  0.22094069178E+04  0.00000000000E+00 0. -1.
         -2   -1    0    0    0  501 -0.00000000000E+00 -0.00000000000E+00 -0.64087645130E+03  0.64087645130E+03  0.00000000000E+00 0.  1.
         23    2    1    2    0    0 -0.18536998062E+03  0.11082985988E+04  0.32296949407E+03  0.11727524603E+04  0.91385038485E+02 0.  0.
         13    1    3    3    0    0 -0.28683680745E+02  0.10733291897E+03  0.63672900331E+01  0.11128185574E+03  0.00000000000E+00 0.  1.
        -13    1    3    3    0    0 -0.15668629987E+03  0.10009656798E+04  0.31660220404E+03  0.10614706046E+04  0.00000000000E+00 0. -1.
         22    1    1    2    0    0  0.18536998062E+03 -0.11082985988E+04  0.12455609724E+04  0.16775309087E+04  0.00000000000E+00 0. -1.
<mgrwt>
<rscale>  0 0.23798797E+04</rscale>
<asrwt>0</asrwt>
<pdfrwt beam="1">  1        2 0.33990875E+00 0.23798797E+04</pdfrwt>
<pdfrwt beam="2">  1       -2 0.98596378E-01 0.23798797E+04</pdfrwt>
<totfact> 0.39238028E+00</totfact>
</mgrwt>
</event>
<event>
 6    1  0.1072514E-005  0.1482179E+04  0.7818608E-02  0.8896391E-01
         -3   -1    0    0    0  501 -0.00000000000E+00  0.00000000000E+00  0.80143194954E+03  0.80143194954E+03  0.00000000000E+00 0.  1.
          3   -1    0    0  501    0  0.00000000000E+00 -0.00000000000E+00 -0.68529049843E+03  0.68529049843E+03  0.00000000000E+00 0. -1.
         23    2    1    2    0    0 -0.70495822493E+03  0.21582169571E+03  0.13917851665E+02  0.74241420033E+03  0.86255637604E+02 0.  0.
         11    1    3    3    0    0 -0.31901550839E+03  0.13600413117E+03  0.29070576693E+02  0.34801309849E+03  0.00000000000E+00 0. -1.
        -11    1    3    3    0    0 -0.38594271653E+03  0.79817564545E+02 -0.15152725028E+02  0.39440110184E+03  0.00000000000E+00 0.  1.
         22    1    1    2    0    0  0.70495822493E+03 -0.21582169571E+03  0.10222359944E+03  0.74430824765E+03  0.00000000000E+00 0.  1.
<mgrwt>
<rscale>  0 0.14821791E+04</rscale>
<asrwt>0</asrwt>
<pdfrwt beam="1">  1        3 0.10542931E+00 0.14821791E+04</pdfrwt>
<pdfrwt beam="2">  1       -3 0.12329722E+00 0.14821791E+04</pdfrwt>
<totfact> 0.10356300E+00</totfact>
</mgrwt>
</event>
<event>
 6    1  0.1072514E-005  0.2466561E+04  0.7818608E-02  0.8414996E-01
         -1   -1    0    0    0  501 -0.00000000000E+00  0.00000000000E+00  0.17453980664E+04  0.17453980664E+04  0.00000000000E+00 0.  1.
          1   -1    0    0  501    0  0.00000000000E+00 -0.00000000000E+00 -0.87142337211E+03  0.87142337211E+03  0.00000000000E+00 0. -1.
         23    2    1    2    0    0 -0.64473277389E+02 -0.11221168498E+04  0.97180066086E+03  0.14886047272E+04  0.90799126022E+02 0.  0.
         13    1    3    3    0    0 -0.44500895421E+02 -0.95397204256E+03  0.78269393808E+03  0.12347683136E+04  0.00000000000E+00 0. -1.
        -13    1    3    3    0    0 -0.19972381967E+02 -0.16814480722E+03  0.18910672278E+03  0.25383641354E+03  0.00000000000E+00 0.  1.
         22    1    1    2    0    0  0.64473277389E+02  0.11221168498E+04 -0.97825966539E+02  0.11282167114E+04  0.00000000000E+00 0. -1.
<mgrwt>
<rscale>  0 0.24665609E+04</rscale>
<asrwt>0</asrwt>
<pdfrwt beam="1">  1        1 0.13406513E+00 0.24665609E+04</pdfrwt>
<pdfrwt beam="2">  1       -1 0.26852278E+00 0.24665609E+04</pdfrwt>
<totfact> 0.90431609E-01</totfact>
</mgrwt>
</event>
<event>
 6    1  0.1072514E-005  0.1370282E+04  0.7818608E-02  0.8975615E-01
          2   -1    0    0  501    0  0.00000000000E+00  0.00000000000E+00  0.59525552406E+03  0.59525552406E+03  0.00000000000E+00 0. -1.
         -2   -1    0    0    0  501 -0.00000000000E+00 -0.00000000000E+00 -0.78859995430E+03  0.78859995430E+03  0.00000000000E+00 0.  1.
         23    2    1    2    0    0  0.40447490396E+03 -0.40858523011E+03  0.27302681785E+03  0.64355555317E+03  0.95279948356E+02 0.  0.
         11    1    3    3    0    0  0.20249465328E+03 -0.13870543089E+03  0.10608581767E+03  0.26739013048E+03  0.00000000000E+00 0.  1.
        -11    1    3    3    0    0  0.20198025067E+03 -0.26987979922E+03  0.16694100018E+03  0.37616542269E+03  0.00000000000E+00 0. -1.
         22    1    1    2    0    0 -0.40447490396E+03  0.40858523011E+03 -0.46637124809E+03  0.74029992519E+03  0.00000000000E+00 0.  1.
<mgrwt>
<rscale>  0 0.13702824E+04</rscale>
<asrwt>0</asrwt>
<pdfrwt beam="1">  1        2 0.91577773E-01 0.13702824E+04</pdfrwt>
<pdfrwt beam="2">  1       -2 0.12132307E+00 0.13702824E+04</pdfrwt>
<totfact> 0.25230402E+01</totfact>
</mgrwt>
</event>
<event>
 6    1  0.1072514E-005  0.4626522E+04  0.7818608E-02  0.7888853E-01
         -2   -1    0    0    0  501 -0.00000000000E+00  0.00000000000E+00  0.33545806474E+04  0.33545806474E+04  0.00000000000E+00 0. -1.
          2   -1    0    0  501    0  0.00000000000E+00 -0.00000000000E+00 -0.15951848826E+04  0.15951848826E+04  0.00000000000E+00 0.  1.
         23    2    1    2    0    0  0.20859409469E+04  0.26664757428E+03 -0.14863784665E+03  0.21102509897E+04  0.93890718195E+02 0.  0.
         11    1    3    3    0    0  0.86421266627E+03  0.13015316593E+03 -0.19726316810E+02  0.87418104916E+03  0.00000000000E+00 0.  1.
        -11    1    3    3    0    0  0.12217282806E+04  0.13649440835E+03 -0.12891152984E+03  0.12360699405E+04  0.00000000000E+00 0. -1.
         22    1    1    2    0    0 -0.20859409469E+04 -0.26664757428E+03  0.19080336115E+04  0.28395145404E+04  0.00000000000E+00 0. -1.
<mgrwt>
<rscale>  0 0.46265219E+04</rscale>
<asrwt>0</asrwt>
<pdfrwt beam="1">  1        2 0.24541306E+00 0.46265219E+04</pdfrwt>
<pdfrwt beam="2">  1       -2 0.51608933E+00 0.46265219E+04</pdfrwt>
<totfact> 0.11148530E-02</totfact>
</mgrwt>
</event>
<event>
 6    1  0.1072514E-005  0.1818738E+04  0.7818608E-02  0.8696398E-01
          2   -1    0    0  501    0  0.00000000000E+00  0.00000000000E+00  0.89410601115E+03  0.89410601115E+03  0.00000000000E+00 0. -1.
         -2   -1    0    0    0  501 -0.00000000000E+00 -0.00000000000E+00 -0.92489294099E+03  0.92489294099E+03  0.00000000000E+00 0.  1.
         23    2    1    2    0    0 -0.39101981214E+03 -0.41040318859E+02  0.80193572460E+03  0.89812555125E+03  0.94592801888E+02 0.  0.
         11    1    3    3    0    0 -0.13529520601E+03  0.22104306920E+02  0.21787858148E+03  0.25741885988E+03  0.00000000000E+00 0.  1.
        -11    1    3    3    0    0 -0.25572460613E+03 -0.63144625779E+02  0.58405714311E+03  0.64070669137E+03  0.00000000000E+00 0. -1.
         22    1    1    2    0    0  0.39101981214E+03  0.41040318859E+02 -0.83272265444E+03  0.92087340089E+03  0.00000000000E+00 0.  1.
<mgrwt>
<rscale>  0 0.18187384E+04</rscale>
<asrwt>0</asrwt>
<pdfrwt beam="1">  1        2 0.13755477E+00 0.18187384E+04</pdfrwt>
<pdfrwt beam="2">  1       -2 0.14229122E+00 0.18187384E+04</pdfrwt>
<totfact> 0.96021231E+00</totfact>
</mgrwt>
</event>
<event>
 6    1  0.1565145E-005  0.3184664E+04  0.7818608E-02  0.8192879E-01
         -1   -1    0    0    0  501 -0.00000000000E+00  0.00000000000E+00  0.17719428432E+04  0.17719428432E+04  0.00000000000E+00 0.  1.
          1   -1    0    0  501    0  0.00000000000E+00 -0.00000000000E+00 -0.14309273376E+04  0.14309273376E+04  0.00000000000E+00 0. -1.
         23    2    1    2    0    0  0.25445346893E+03 -0.11335676472E+04  0.12639580768E+04  0.17191096987E+04  0.89587709482E+02 0.  0.
         13    1    3    3    0    0  0.27786686346E+02 -0.30253660397E+03  0.32454409819E+03  0.44455524780E+03  0.00000000000E+00 0.  1.
        -13    1    3    3    0    0  0.22666678258E+03 -0.83103104322E+03  0.93941397860E+03  0.12745544509E+04  0.00000000000E+00 0. -1.
         22    1    1    2    0    0 -0.25445346893E+03  0.11335676472E+04 -0.92294257116E+03  0.14837604821E+04  0.00000000000E+00 0. -1.
<mgrwt>
<rscale>  0 0.31846642E+04</rscale>
<asrwt>0</asrwt>
<pdfrwt beam="1">  1        1 0.22014267E+00 0.31846642E+04</pdfrwt>
<pdfrwt beam="2">  1       -1 0.27260659E+00 0.31846642E+04</pdfrwt>
<totfact> 0.30425438E-01</totfact>
</mgrwt>
</event>
<event>
 6    1  0.1072514E-005  0.8463896E+03  0.7818608E-02  0.9495196E-01
          2   -1    0    0  501    0  0.00000000000E+00  0.00000000000E+00  0.10621291816E+04  0.10621291816E+04  0.00000000000E+00 0. -1.
         -2   -1    0    0    0  501 -0.00000000000E+00 -0.00000000000E+00 -0.16861777106E+03  0.16861777106E+03  0.00000000000E+00 0.  1.
         23    2    1    2    0    0 -0.13698337795E+03 -0.39554161104E+03  0.45911526820E+03  0.62749110279E+03  0.87980922341E+02 0.  0.
         13    1    3    3    0    0 -0.44344252560E+02 -0.17475865472E+03  0.25826312234E+03  0.31497117407E+03  0.00000000000E+00 0.  1.
        -13    1    3    3    0    0 -0.92639125386E+02 -0.22078295633E+03  0.20085214586E+03  0.31251992873E+03  0.00000000000E+00 0. -1.
         22    1    1    2    0    0  0.13698337795E+03  0.39554161104E+03  0.43439614233E+03  0.60325584984E+03  0.00000000000E+00 0.  1.
<mgrwt>
<rscale>  0 0.84638964E+03</rscale>
<asrwt>0</asrwt>
<pdfrwt beam="1">  1        2 0.16340449E+00 0.84638964E+03</pdfrwt>
<pdfrwt beam="2">  1       -2 0.25941196E-01 0.84638964E+03</pdfrwt>
<totfact> 0.30933210E+02</totfact>
</mgrwt>
</event>
<event>
 6    1  0.1072514E-005  0.1070754E+04  0.7818608E-02  0.9234175E-01
         -1   -1    0    0    0  501 -0.00000000000E+00  0.00000000000E+00  0.64287728709E+03  0.64287728709E+03  0.00000000000E+00 0.  1.
          1   -1    0    0  501    0  0.00000000000E+00 -0.00000000000E+00 -0.44585248983E+03  0.44585248983E+03  0.00000000000E+00 0. -1.
         23    2    1    2    0    0 -0.47551354028E+03  0.71706550537E+02  0.33029074135E+03  0.58971598128E+03  0.86127860629E+02 0.  0.
         13    1    3    3    0    0 -0.38697784774E+03  0.79714123415E+02  0.29894780940E+03  0.49545533488E+03  0.00000000000E+00 0. -1.
        -13    1    3    3    0    0 -0.88535692537E+02 -0.80075728782E+01  0.31342931945E+02  0.94260646398E+02  0.00000000000E+00 0.  1.
         22    1    1    2    0    0  0.47551354028E+03 -0.71706550537E+02 -0.13326594410E+03  0.49901379564E+03  0.00000000000E+00 0. -1.
<mgrwt>
<rscale>  0 0.10707538E+04</rscale>
<asrwt>0</asrwt>
<pdfrwt beam="1">  1        1 0.68592691E-01 0.10707538E+04</pdfrwt>
<pdfrwt beam="2">  1       -1 0.98904198E-01 0.10707538E+04</pdfrwt>
<totfact> 0.50626151E+01</totfact>
</mgrwt>
</event>
<event>
 6    1  0.1072514E-005  0.1478714E+04  0.7818608E-02  0.8898733E-01
         -2   -1    0    0    0  501 -0.00000000000E+00  0.00000000000E+00  0.86769418887E+03  0.86769418887E+03  0.00000000000E+00 0. -1.
          2   -1    0    0  501    0  0.00000000000E+00 -0.00000000000E+00 -0.63000132166E+03  0.63000132166E+03  0.00000000000E+00 0.  1.
         23    2    1    2    0    0  0.34577712725E+03 -0.28853733784E+03  0.70956472078E+03  0.84540825537E+03  0.91746434371E+02 0.  0.
         13    1    3    3    0    0  0.25285911035E+03 -0.15493722018E+03  0.44307821887E+03  0.53316187028E+03  0.00000000000E+00 0. -1.
        -13    1    3    3    0    0  0.92918016904E+02 -0.13360011766E+03  0.26648650191E+03  0.31224638509E+03  0.00000000000E+00 0.  1.
         22    1    1    2    0    0 -0.34577712725E+03  0.28853733784E+03 -0.47187185357E+03  0.65228725516E+03  0.00000000000E+00 0.  1.
<mgrwt>
<rscale>  0 0.14787136E+04</rscale>
<asrwt>0</asrwt>
<pdfrwt beam="1">  1        2 0.96923280E-01 0.14787136E+04</pdfrwt>
<pdfrwt beam="2">  1       -2 0.13349141E+00 0.14787136E+04</pdfrwt>
<totfact> 0.18352058E+01</totfact>
</mgrwt>
</event>
<event>
 6    1  0.1072514E-005  0.2407381E+04  0.7818608E-02  0.8436746E-01
         -1   -1    0    0    0  501 -0.00000000000E+00  0.00000000000E+00  0.42289395283E+03  0.42289395283E+03  0.00000000000E+00 0.  1.
          1   -1    0    0  501    0  0.00000000000E+00 -0.00000000000E+00 -0.34260842980E+04  0.34260842980E+04  0.00000000000E+00 0. -1.
         23    2    1    2    0    0 -0.60535157342E+03 -0.15768520241E+02  0.15606154875E+03  0.63221408433E+03  0.92953040581E+02 0.  0.
         13    1    3    3    0    0 -0.51168223991E+03 -0.18735500146E+02  0.16529312396E+03  0.53804419004E+03  0.00000000000E+00 0.  1.
        -13    1    3    3    0    0 -0.93669333512E+02  0.29669799050E+01 -0.92315752097E+01  0.94169894293E+02  0.00000000000E+00 0. -1.
         22    1    1    2    0    0  0.60535157342E+03  0.15768520241E+02 -0.31592518940E+04  0.32167641666E+04  0.00000000000E+00 0. -1.
<mgrwt>
<rscale>  0 0.24073806E+04</rscale>
<asrwt>0</asrwt>
<pdfrwt beam="1">  1        1 0.52708992E+00 0.24073806E+04</pdfrwt>
<pdfrwt beam="2">  1       -1 0.65060605E-01 0.24073806E+04</pdfrwt>
<totfact> 0.61324920E-01</totfact>
</mgrwt>
</event>
<event>
 6    1  0.1072514E-005  0.2427548E+04  0.7818608E-02  0.8429262E-01
         -1   -1    0    0    0  501 -0.00000000000E+00  0.00000000000E+00  0.76837350491E+03  0.76837350491E+03  0.00000000000E+00 0.  1.
          1   -1    0    0  501    0  0.00000000000E+00 -0.00000000000E+00 -0.19173580521E+04  0.19173580521E+04  0.00000000000E+00 0. -1.
         23    2    1    2    0    0  0.42701379371E+03  0.89811479248E+03  0.19124118692E+03  0.10168528979E+04  0.92009042403E+02 0.  0.
         13    1    3    3    0    0  0.39502105812E+03  0.80367848157E+03  0.14589772574E+03  0.90731851324E+03  0.00000000000E+00 0. -1.
        -13    1    3    3    0    0  0.31992735590E+02  0.94436310914E+02  0.45343461172E+02  0.10953438465E+03  0.00000000000E+00 0.  1.
         22    1    1    2    0    0 -0.42701379371E+03 -0.89811479248E+03 -0.13402257341E+04  0.16688786591E+04  0.00000000000E+00 0. -1.
<mgrwt>
<rscale>  0 0.24275478E+04</rscale>
<asrwt>0</asrwt>
<pdfrwt beam="1">  1        1 0.29497816E+00 0.24275478E+04</pdfrwt>
<pdfrwt beam="2">  1       -1 0.11821131E+00 0.24275478E+04</pdfrwt>
<totfact> 0.19466179E+00</totfact>
</mgrwt>
</event>
<event>
 6    1  0.1072514E-005  0.3472886E+04  0.7818608E-02  0.8120246E-01
          2   -1    0    0  501    0  0.00000000000E+00  0.00000000000E+00  0.24548112844E+04  0.24548112844E+04  0.00000000000E+00 0. -1.
         -2   -1    0    0    0  501 -0.00000000000E+00 -0.00000000000E+00 -0.12282954704E+04  0.12282954704E+04  0.00000000000E+00 0.  1.
         23    2    1    2    0    0 -0.11184286752E+04  0.12504411999E+04  0.10838100720E+04  0.19994052300E+04  0.92147195090E+02 0.  0.
         11    1    3    3    0    0 -0.41554977907E+03  0.44737768632E+03  0.34387449103E+03  0.70076963310E+03  0.00000000000E+00 0. -1.
        -11    1    3    3    0    0 -0.70287889614E+03  0.80306351354E+03  0.73993558097E+03  0.12986355969E+04  0.00000000000E+00 0.  1.
         22    1    1    2    0    0  0.11184286752E+04 -0.12504411999E+04  0.14270574200E+03  0.16837015248E+04  0.00000000000E+00 0. -1.
<mgrwt>
<rscale>  0 0.34728856E+04</rscale>
<asrwt>0</asrwt>
<pdfrwt beam="1">  1        2 0.37766328E+00 0.34728856E+04</pdfrwt>
<pdfrwt beam="2">  1       -2 0.18896853E+00 0.34728856E+04</pdfrwt>
<totfact> 0.47948400E-01</totfact>
</mgrwt>
</event>
<event>
 6    1  0.1072514E-005  0.3572204E+04  0.7818608E-02  0.8096889E-01
         -2   -1    0    0    0  501 -0.00000000000E+00  0.00000000000E+00  0.97238538632E+03  0.97238538632E+03  0.00000000000E+00 0.  1.
          2   -1    0    0  501    0  0.00000000000E+00 -0.00000000000E+00 -0.32807572277E+04  0.32807572277E+04  0.00000000000E+00 0. -1.
         23    2    1    2    0    0 -0.26295673239E+03  0.12067796121E+04  0.37948262063E+03  0.12950985163E+04  0.88373255608E+02 0.  0.
         13    1    3    3    0    0 -0.99635720977E+02  0.47673599375E+03  0.10487291251E+03  0.49819957086E+03  0.00000000000E+00 0. -1.
        -13    1    3    3    0    0 -0.16332101142E+03  0.73004361832E+03  0.27460970812E+03  0.79689894543E+03  0.00000000000E+00 0.  1.
         22    1    1    2    0    0  0.26295673239E+03 -0.12067796121E+04 -0.26878544620E+04  0.29580440978E+04  0.00000000000E+00 0. -1.
<mgrwt>
<rscale>  0 0.35722040E+04</rscale>
<asrwt>0</asrwt>
<pdfrwt beam="1">  1        2 0.50473189E+00 0.35722040E+04</pdfrwt>
<pdfrwt beam="2">  1       -2 0.14959775E+00 0.35722040E+04</pdfrwt>
<totfact> 0.28245417E-01</totfact>
</mgrwt>
</event>
<event>
 6    1  0.1072514E-005  0.9778967E+03  0.7818608E-02  0.9333125E-01
         -1   -1    0    0    0  501 -0.00000000000E+00  0.00000000000E+00  0.10057973884E+03  0.10057973884E+03  0.00000000000E+00 0.  1.
          1   -1    0    0  501    0  0.00000000000E+00 -0.00000000000E+00 -0.23769250967E+04  0.23769250967E+04  0.00000000000E+00 0. -1.
         23    2    1    2    0    0  0.11100960983E+03 -0.14148430403E+03 -0.22883470517E+04  0.22972689279E+04  0.92581617933E+02 0.  0.
         13    1    3    3    0    0 -0.63813901236E+01 -0.47837548195E+02 -0.77104557863E+03  0.77255448836E+03  0.00000000000E+00 0. -1.
        -13    1    3    3    0    0  0.11739099995E+03 -0.93646755836E+02 -0.15173014731E+04  0.15247144395E+04  0.00000000000E+00 0.  1.
         22    1    1    2    0    0 -0.11100960983E+03  0.14148430403E+03  0.12001693868E+02  0.18023590768E+03  0.00000000000E+00 0.  1.
<mgrwt>
<rscale>  0 0.97789673E+03</rscale>
<asrwt>0</asrwt>
<pdfrwt beam="1">  1        1 0.36568077E+00 0.97789673E+03</pdfrwt>
<pdfrwt beam="2">  1       -1 0.15473806E-01 0.97789673E+03</pdfrwt>
<totfact> 0.52332670E+01</totfact>
</mgrwt>
</event>
<event>
 6    1  0.1072514E-005  0.5994507E+04  0.7818608E-02  0.7691083E-01
         -1   -1    0    0    0  501 -0.00000000000E+00  0.00000000000E+00  0.29299257098E+04  0.29299257098E+04  0.00000000000E+00 0. -1.
          1   -1    0    0  501    0  0.00000000000E+00 -0.00000000000E+00 -0.30661284797E+04  0.30661284797E+04  0.00000000000E+00 0.  1.
         23    2    1    2    0    0  0.25996369063E+04  0.97863072660E+03  0.10562458492E+04  0.29731807464E+04  0.91204784183E+02 0.  0.
         13    1    3    3    0    0  0.19936707447E+04  0.71612640707E+03  0.82835046611E+03  0.22745822834E+04  0.00000000000E+00 0. -1.
        -13    1    3    3    0    0  0.60596616160E+03  0.26250431953E+03  0.22789538310E+03  0.69859846293E+03  0.00000000000E+00 0.  1.
         22    1    1    2    0    0 -0.25996369063E+04 -0.97863072660E+03 -0.11924486191E+04  0.30228734431E+04  0.00000000000E+00 0.  1.
<mgrwt>
<rscale>  0 0.59945070E+04</rscale>
<asrwt>0</asrwt>
<pdfrwt beam="1">  1        1 0.47171207E+00 0.59945070E+04</pdfrwt>
<pdfrwt beam="2">  1       -1 0.45075780E+00 0.59945070E+04</pdfrwt>
<totfact> 0.11467470E-03</totfact>
</mgrwt>
</event>
<event>
 6    1  0.1072514E-005  0.3501077E+04  0.7818608E-02  0.8113535E-01
          1   -1    0    0  501    0  0.00000000000E+00  0.00000000000E+00  0.19768671649E+04  0.19768671649E+04  0.00000000000E+00 0. -1.
         -1   -1    0    0    0  501 -0.00000000000E+00 -0.00000000000E+00 -0.15501220211E+04  0.15501220211E+04  0.00000000000E+00 0.  1.
         23    2    1    2    0    0  0.16174166932E+04 -0.82554182597E+02 -0.45313182736E+03  0.16838843498E+04  0.85358644428E+02 0.  0.
         11    1    3    3    0    0  0.30886162137E+03 -0.31686286150E+02 -0.11789265197E+03  0.33211172709E+03  0.00000000000E+00 0. -1.
        -11    1    3    3    0    0  0.13085550718E+04 -0.50867896447E+02 -0.33523917539E+03  0.13517726227E+04  0.00000000000E+00 0.  1.
         22    1    1    2    0    0 -0.16174166932E+04  0.82554182597E+02  0.87987697116E+03  0.18431048361E+04  0.00000000000E+00 0. -1.
<mgrwt>
<rscale>  0 0.35010772E+04</rscale>
<asrwt>0</asrwt>
<pdfrwt beam="1">  1        1 0.30413341E+00 0.35010772E+04</pdfrwt>
<pdfrwt beam="2">  1       -1 0.23848031E+00 0.35010772E+04</pdfrwt>
<totfact> 0.20912148E-01</totfact>
</mgrwt>
</event>
<event>
 6    1  0.1072514E-005  0.4436830E+04  0.7818608E-02  0.7921790E-01
         -2   -1    0    0    0  501 -0.00000000000E+00  0.00000000000E+00  0.20416086755E+04  0.20416086755E+04  0.00000000000E+00 0.  1.
          2   -1    0    0  501    0  0.00000000000E+00 -0.00000000000E+00 -0.24105333037E+04  0.24105333037E+04  0.00000000000E+00 0. -1.
         23    2    1    2    0    0  0.91685946202E+03  0.51165859003E+03  0.17753656210E+04  0.20645895800E+04  0.90450317208E+02 0.  0.
         11    1    3    3    0    0  0.58221433430E+03  0.28289951951E+03  0.11388877157E+04  0.13099888924E+04  0.00000000000E+00 0. -1.
        -11    1    3    3    0    0  0.33464512771E+03  0.22875907052E+03  0.63647790527E+03  0.75460068761E+03  0.00000000000E+00 0.  1.
         22    1    1    2    0    0 -0.91685946202E+03 -0.51165859003E+03 -0.21442902492E+04  0.23875523992E+04  0.00000000000E+00 0. -1.
<mgrwt>
<rscale>  0 0.44368303E+04</rscale>
<asrwt>0</asrwt>
<pdfrwt beam="1">  1        2 0.37085127E+00 0.44368303E+04</pdfrwt>
<pdfrwt beam="2">  1       -2 0.31409364E+00 0.44368303E+04</pdfrwt>
<totfact> 0.77751113E-02</totfact>
</mgrwt>
</event>
<event>
 6    1  0.1072514E-005  0.3771166E+04  0.7818608E-02  0.8052371E-01
          2   -1    0    0  501    0  0.00000000000E+00  0.00000000000E+00  0.21504957871E+04  0.21504957871E+04  0.00000000000E+00 0. -1.
         -2   -1    0    0    0  501 -0.00000000000E+00 -0.00000000000E+00 -0.16533042346E+04  0.16533042346E+04  0.00000000000E+00 0.  1.
         23    2    1    2    0    0 -0.13553366095E+04  0.12133734034E+04  0.74442040510E+03  0.19679529565E+04  0.97286989874E+02 0.  0.
         13    1    3    3    0    0 -0.32671550028E+03  0.29445911206E+03  0.13553985505E+03  0.46023932807E+03  0.00000000000E+00 0. -1.
        -13    1    3    3    0    0 -0.10286211092E+04  0.91891429134E+03  0.60888055004E+03  0.15077136284E+04  0.00000000000E+00 0.  1.
         22    1    1    2    0    0  0.13553366095E+04 -0.12133734034E+04 -0.24722885259E+03  0.18358470652E+04  0.00000000000E+00 0.  1.
<mgrwt>
<rscale>  0 0.37711663E+04</rscale>
<asrwt>0</asrwt>
<pdfrwt beam="1">  1        2 0.33084551E+00 0.37711663E+04</pdfrwt>
<pdfrwt beam="2">  1       -2 0.25435450E+00 0.37711663E+04</pdfrwt>
<totfact> 0.26736397E-01</totfact>
</mgrwt>
</event>
<event>
 6    1  0.1072514E-005  0.2703371E+04  0.7818608E-02  0.8333912E-01
          2   -1    0    0  501    0  0.00000000000E+00  0.00000000000E+00  0.30519772672E+04  0.30519772672E+04  0.00000000000E+00 0. -1.
         -2   -1    0    0    0  501 -0.00000000000E+00 -0.00000000000E+00 -0.59864584407E+03  0.59864584407E+03  0.00000000000E+00 0.  1.
         23    2    1    2    0    0  0.18024152107E+03  0.10273321546E+04  0.70472171885E+02  0.10494855576E+04  0.92494577946E+02 0.  0.
         13    1    3    3    0    0  0.14546811825E+03  0.86293740392E+03  0.25259890821E+02  0.87547701203E+03  0.00000000000E+00 0. -1.
        -13    1    3    3    0    0  0.34773402815E+02  0.16439475064E+03  0.45212281064E+02  0.17400854559E+03  0.00000000000E+00 0.  1.
         22    1    1    2    0    0 -0.18024152107E+03 -0.10273321546E+04  0.23828592513E+04  0.26011375536E+04  0.00000000000E+00 0. -1.
<mgrwt>
<rscale>  0 0.27033709E+04</rscale>
<asrwt>0</asrwt>
<pdfrwt beam="1">  1        2 0.46953495E+00 0.27033709E+04</pdfrwt>
<pdfrwt beam="2">  1       -2 0.92099363E-01 0.27033709E+04</pdfrwt>
<totfact> 0.14183489E+00</totfact>
</mgrwt>
</event>
<event>
 6    1  0.1072514E-005  0.1796749E+04  0.7818608E-02  0.8708030E-01
          1   -1    0    0  501    0  0.00000000000E+00  0.00000000000E+00  0.10816418327E+04  0.10816418327E+04  0.00000000000E+00 0.  1.
         -1   -1    0    0    0  501 -0.00000000000E+00 -0.00000000000E+00 -0.74615860579E+03  0.74615860579E+03  0.00000000000E+00 0. -1.
         23    2    1    2    0    0  0.50856060997E+03  0.43967158482E+03 -0.43443828776E+03  0.80568296224E+03  0.91888047364E+02 0.  0.
         11    1    3    3    0    0  0.19325059885E+03  0.19430463946E+03 -0.12963474696E+03  0.30315879418E+03  0.00000000000E+00 0.  1.
        -11    1    3    3    0    0  0.31531001112E+03  0.24536694536E+03 -0.30480354080E+03  0.50252416805E+03  0.00000000000E+00 0. -1.
         22    1    1    2    0    0 -0.50856060997E+03 -0.43967158482E+03  0.76992151465E+03  0.10221174762E+04  0.00000000000E+00 0.  1.
<mgrwt>
<rscale>  0 0.17967486E+04</rscale>
<asrwt>0</asrwt>
<pdfrwt beam="1">  1        1 0.16640644E+00 0.17967486E+04</pdfrwt>
<pdfrwt beam="2">  1       -1 0.11479363E+00 0.17967486E+04</pdfrwt>
<totfact> 0.85191589E+00</totfact>
</mgrwt>
</event>
<event>
 6    1  0.1072514E-005  0.9047836E+03  0.7818608E-02  0.9419621E-01
         -1   -1    0    0    0  501 -0.00000000000E+00  0.00000000000E+00  0.78920324433E+02  0.78920324433E+02  0.00000000000E+00 0.  1.
          1   -1    0    0  501    0  0.00000000000E+00 -0.00000000000E+00 -0.25932274277E+04  0.25932274277E+04  0.00000000000E+00 0. -1.
         23    2    1    2    0    0 -0.11559257791E+03  0.13914091197E+03 -0.24796691922E+04  0.24879695169E+04  0.92256040400E+02 0.  0.
         11    1    3    3    0    0 -0.93309105475E+02  0.60016998223E+02 -0.17868293930E+04  0.17902703452E+04  0.00000000000E+00 0. -1.
        -11    1    3    3    0    0 -0.22283472433E+02  0.79123913750E+02 -0.69283979913E+03  0.69769917166E+03  0.00000000000E+00 0.  1.
         22    1    1    2    0    0  0.11559257791E+03 -0.13914091197E+03 -0.34637911114E+02  0.18417823525E+03  0.00000000000E+00 0.  1.
<mgrwt>
<rscale>  0 0.90478362E+03</rscale>
<asrwt>0</asrwt>
<pdfrwt beam="1">  1        1 0.39895810E+00 0.90478362E+03</pdfrwt>
<pdfrwt beam="2">  1       -1 0.12141587E-01 0.90478362E+03</pdfrwt>
<totfact> 0.55518310E+01</totfact>
</mgrwt>
</event>
<event>
 6    1  0.1072514E-005  0.2028355E+04  0.7818608E-02  0.8593478E-01
          2   -1    0    0  501    0  0.00000000000E+00  0.00000000000E+00  0.24583610362E+04  0.24583610362E+04  0.00000000000E+00 0. -1.
         -2   -1    0    0    0  501 -0.00000000000E+00 -0.00000000000E+00 -0.41839081649E+03  0.41839081649E+03  0.00000000000E+00 0.  1.
         23    2    1    2    0    0 -0.46967157643E+03 -0.19362107950E+03  0.22635608125E+04  0.23217083722E+04  0.92421327317E+02 0.  0.
         13    1    3    3    0    0 -0.18085051245E+03 -0.12017928826E+03  0.10331196108E+04  0.10556922370E+04  0.00000000000E+00 0.  1.
        -13    1    3    3    0    0 -0.28882106398E+03 -0.73441791235E+02  0.12304412017E+04  0.12660161352E+04  0.00000000000E+00 0. -1.
         22    1    1    2    0    0  0.46967157643E+03  0.19362107950E+03 -0.22359059271E+03  0.55504348053E+03  0.00000000000E+00 0.  1.
<mgrwt>
<rscale>  0 0.20283547E+04</rscale>
<asrwt>0</asrwt>
<pdfrwt beam="1">  1        2 0.37820938E+00 0.20283547E+04</pdfrwt>
<pdfrwt beam="2">  1       -2 0.64367819E-01 0.20283547E+04</pdfrwt>
<totfact> 0.76074621E+00</totfact>
</mgrwt>
</event>
<event>
 6    1  0.1072514E-005  0.3750530E+04  0.7818608E-02  0.8056855E-01
         -3   -1    0    0    0  501 -0.00000000000E+00  0.00000000000E+00  0.15745528382E+04  0.15745528382E+04  0.00000000000E+00 0.  1.
          3   -1    0    0  501    0  0.00000000000E+00 -0.00000000000E+00 -0.22334081673E+04  0.22334081673E+04  0.00000000000E+00 0. -1.
         23    2    1    2    0    0 -0.16557983795E+04 -0.85224923173E+03 -0.11540772941E+03  0.18680299963E+04  0.90664748066E+02 0.  0.
         11    1    3    3    0    0 -0.93919826509E+03 -0.52180346465E+03 -0.95594431037E+02  0.10786614539E+04  0.00000000000E+00 0.  1.
        -11    1    3    3    0    0 -0.71660011445E+03 -0.33044576708E+03 -0.19813298378E+02  0.78936854245E+03  0.00000000000E+00 0. -1.
         22    1    1    2    0    0  0.16557983795E+04  0.85224923173E+03 -0.54344759966E+03  0.19399310091E+04  0.00000000000E+00 0. -1.
<mgrwt>
<rscale>  0 0.37505302E+04</rscale>
<asrwt>0</asrwt>
<pdfrwt beam="1">  1        3 0.34360125E+00 0.37505302E+04</pdfrwt>
<pdfrwt beam="2">  1       -3 0.24223890E+00 0.37505302E+04</pdfrwt>
<totfact> 0.37637715E-03</totfact>
</mgrwt>
</event>
<event>
 6    1  0.1072514E-005  0.2006868E+04  0.7818608E-02  0.8603416E-01
          1   -1    0    0  501    0  0.00000000000E+00  0.00000000000E+00  0.76127047384E+03  0.76127047384E+03  0.00000000000E+00 0. -1.
         -1   -1    0    0    0  501 -0.00000000000E+00 -0.00000000000E+00 -0.13226308483E+04  0.13226308483E+04  0.00000000000E+00 0.  1.
         23    2    1    2    0    0 -0.46657443671E+03  0.75173871066E+01  0.63640556066E+03  0.79844753012E+03  0.12148335124E+03 0.  0.
         11    1    3    3    0    0 -0.34706122256E+03  0.20887328688E+02  0.54877753809E+03  0.64964956632E+03  0.00000000000E+00 0.  1.
        -11    1    3    3    0    0 -0.11951321415E+03 -0.13369941582E+02  0.87628022566E+02  0.14879796381E+03  0.00000000000E+00 0. -1.
         22    1    1    2    0    0  0.46657443671E+03 -0.75173871066E+01 -0.11977659351E+04  0.12854537920E+04  0.00000000000E+00 0.  1.
<mgrwt>
<rscale>  0 0.20068680E+04</rscale>
<asrwt>0</asrwt>
<pdfrwt beam="1">  1        1 0.11711854E+00 0.20068680E+04</pdfrwt>
<pdfrwt beam="2">  1       -1 0.20348167E+00 0.20068680E+04</pdfrwt>
<totfact> 0.31588669E+00</totfact>
</mgrwt>
</event>
<event>
 6    1  0.1072514E-005  0.2044872E+04  0.7818608E-02  0.8585924E-01
         -1   -1    0    0    0  501 -0.00000000000E+00  0.00000000000E+00  0.43133504472E+04  0.43133504472E+04  0.00000000000E+00 0.  1.
          1   -1    0    0  501    0  0.00000000000E+00 -0.00000000000E+00 -0.24235798256E+03  0.24235798256E+03  0.00000000000E+00 0. -1.
         23    2    1    2    0    0  0.84046791706E+03 -0.21857949289E+03  0.32332211407E+04  0.33490501908E+04  0.90856600358E+02 0.  0.
         13    1    3    3    0    0  0.53544890319E+03 -0.14592752040E+03  0.18956175811E+04  0.19751876830E+04  0.00000000000E+00 0.  1.
        -13    1    3    3    0    0  0.30501901387E+03 -0.72651972497E+02  0.13376035596E+04  0.13738625079E+04  0.00000000000E+00 0. -1.
         22    1    1    2    0    0 -0.84046791706E+03  0.21857949289E+03  0.83777132390E+03  0.12066582389E+04  0.00000000000E+00 0. -1.
<mgrwt>
<rscale>  0 0.20448715E+04</rscale>
<asrwt>0</asrwt>
<pdfrwt beam="1">  1        1 0.37285847E-01 0.20448715E+04</pdfrwt>
<pdfrwt beam="2">  1       -1 0.66359232E+00 0.20448715E+04</pdfrwt>
<totfact> 0.27751167E-02</totfact>
</mgrwt>
</event>
<event>
 6    1  0.1072514E-005  0.1258336E+04  0.7818608E-02  0.9063274E-01
          1   -1    0    0  501    0  0.00000000000E+00  0.00000000000E+00  0.13426164599E+04  0.13426164599E+04  0.00000000000E+00 0. -1.
         -1   -1    0    0    0  501 -0.00000000000E+00 -0.00000000000E+00 -0.29483632300E+03  0.29483632300E+03  0.00000000000E+00 0.  1.
         23    2    1    2    0    0 -0.44863241135E+03  0.43583647731E+03  0.51133477668E+03  0.81343937285E+03  0.94846634139E+02 0.  0.
         11    1    3    3    0    0 -0.20098323676E+03  0.24970605807E+03  0.22542674149E+03  0.39187318442E+03  0.00000000000E+00 0.  1.
        -11    1    3    3    0    0 -0.24764917459E+03  0.18613041924E+03  0.28590803519E+03  0.42156618843E+03  0.00000000000E+00 0. -1.
         22    1    1    2    0    0  0.44863241135E+03 -0.43583647731E+03  0.53644536027E+03  0.82401341009E+03  0.00000000000E+00 0. -1.
<mgrwt>
<rscale>  0 0.12583356E+04</rscale>
<asrwt>0</asrwt>
<pdfrwt beam="1">  1        1 0.20655638E+00 0.12583356E+04</pdfrwt>
<pdfrwt beam="2">  1       -1 0.45359435E-01 0.12583356E+04</pdfrwt>
<totfact> 0.40097522E+01</totfact>
</mgrwt>
</event>
<event>
 6    1  0.1072514E-005  0.2471749E+04  0.7818608E-02  0.8413120E-01
         -2   -1    0    0    0  501 -0.00000000000E+00  0.00000000000E+00  0.13815168803E+04  0.13815168803E+04  0.00000000000E+00 0.  1.
          2   -1    0    0  501    0  0.00000000000E+00 -0.00000000000E+00 -0.11055856061E+04  0.11055856061E+04  0.00000000000E+00 0. -1.
         23    2    1    2    0    0  0.28904572354E+03  0.29964326768E+03  0.13071913659E+04  0.13749734944E+04  0.92028934958E+02 0.  0.
         11    1    3    3    0    0  0.18648359075E+02  0.46338413392E+01  0.13485032198E+03  0.13621249252E+03  0.00000000000E+00 0. -1.
        -11    1    3    3    0    0  0.27039736447E+03  0.29500942634E+03  0.11723410440E+04  0.12387610018E+04  0.00000000000E+00 0.  1.
         22    1    1    2    0    0 -0.28904572354E+03 -0.29964326768E+03 -0.10312600917E+04  0.11121289921E+04  0.00000000000E+00 0. -1.
<mgrwt>
<rscale>  0 0.24717485E+04</rscale>
<asrwt>0</asrwt>
<pdfrwt beam="1">  1        2 0.17009009E+00 0.24717485E+04</pdfrwt>
<pdfrwt beam="2">  1       -2 0.21254106E+00 0.24717485E+04</pdfrwt>
<totfact> 0.21305513E+00</totfact>
</mgrwt>
</event>
<event>
 6    1  0.1072514E-005  0.2967458E+04  0.7818608E-02  0.8253085E-01
          2   -1    0    0  501    0  0.00000000000E+00  0.00000000000E+00  0.31676024652E+04  0.31676024652E+04  0.00000000000E+00 0. -1.
         -2   -1    0    0    0  501 -0.00000000000E+00 -0.00000000000E+00 -0.69498993748E+03  0.69498993748E+03  0.00000000000E+00 0.  1.
         23    2    1    2    0    0 -0.37818287840E+03  0.12374965020E+04  0.21787689561E+04  0.25356546021E+04  0.89945624991E+02 0.  0.
         13    1    3    3    0    0 -0.98648209894E+02  0.41293776189E+03  0.77978680426E+03  0.88787190777E+03  0.00000000000E+00 0. -1.
        -13    1    3    3    0    0 -0.27953466851E+03  0.82455874010E+03  0.13989821518E+04  0.16477826944E+04  0.00000000000E+00 0.  1.
         22    1    1    2    0    0  0.37818287840E+03 -0.12374965020E+04  0.29384357166E+03  0.13269378006E+04  0.00000000000E+00 0.  1.
<mgrwt>
<rscale>  0 0.29674581E+04</rscale>
<asrwt>0</asrwt>
<pdfrwt beam="1">  1        2 0.48732345E+00 0.29674581E+04</pdfrwt>
<pdfrwt beam="2">  1       -2 0.10692153E+00 0.29674581E+04</pdfrwt>
<totfact> 0.82163950E-01</totfact>
</mgrwt>
</event>
<event>
 6    1  0.1072514E-005  0.1610191E+04  0.7818608E-02  0.8814312E-01
         -1   -1    0    0    0  501 -0.00000000000E+00  0.00000000000E+00  0.40895212542E+03  0.40895212542E+03  0.00000000000E+00 0.  1.
          1   -1    0    0  501    0  0.00000000000E+00 -0.00000000000E+00 -0.15849746664E+04  0.15849746664E+04  0.00000000000E+00 0. -1.
         23    2    1    2    0    0  0.43295864426E+03  0.58721380580E+03 -0.10038817506E+04  0.12443231012E+04  0.91039384523E+02 0.  0.
         11    1    3    3    0    0  0.32621601003E+03  0.41154080014E+03 -0.78080776723E+03  0.94098006607E+03  0.00000000000E+00 0. -1.
        -11    1    3    3    0    0  0.10674263423E+03  0.17567300567E+03 -0.22307398338E+03  0.30334303510E+03  0.00000000000E+00 0.  1.
         22    1    1    2    0    0 -0.43295864426E+03 -0.58721380580E+03 -0.17214079040E+03  0.74960369068E+03  0.00000000000E+00 0.  1.
<mgrwt>
<rscale>  0 0.16101910E+04</rscale>
<asrwt>0</asrwt>
<pdfrwt beam="1">  1        1 0.24384226E+00 0.16101910E+04</pdfrwt>
<pdfrwt beam="2">  1       -1 0.62915711E-01 0.16101910E+04</pdfrwt>
<totfact> 0.14037539E+01</totfact>
</mgrwt>
</event>
<event>
 6    1  0.1072514E-005  0.2769948E+04  0.7818608E-02  0.8312659E-01
         -2   -1    0    0    0  501 -0.00000000000E+00  0.00000000000E+00  0.10529787601E+04  0.10529787601E+04  0.00000000000E+00 0.  1.
          2   -1    0    0  501    0  0.00000000000E+00 -0.00000000000E+00 -0.18216447762E+04  0.18216447762E+04  0.00000000000E+00 0. -1.
         23    2    1    2    0    0 -0.61202172291E+03  0.26305249177E+03  0.87354867640E+03  0.11024394885E+04  0.92294815675E+02 0.  0.
         13    1    3    3    0    0 -0.16289898903E+03  0.94976549016E+02  0.30588656992E+03  0.35933719422E+03  0.00000000000E+00 0. -1.
        -13    1    3    3    0    0 -0.44912273388E+03  0.16807594275E+03  0.56766210648E+03  0.74310229428E+03  0.00000000000E+00 0.  1.
         22    1    1    2    0    0  0.61202172291E+03 -0.26305249177E+03 -0.16422146926E+04  0.17721840478E+04  0.00000000000E+00 0. -1.
<mgrwt>
<rscale>  0 0.27699482E+04</rscale>
<asrwt>0</asrwt>
<pdfrwt beam="1">  1        2 0.28025304E+00 0.27699482E+04</pdfrwt>
<pdfrwt beam="2">  1       -2 0.16199673E+00 0.27699482E+04</pdfrwt>
<totfact> 0.17830293E+00</totfact>
</mgrwt>
</event>
<event>
 6    1  0.1072514E-005  0.2239938E+04  0.7818608E-02  0.8501986E-01
          1   -1    0    0  501    0  0.00000000000E+00  0.00000000000E+00  0.96319010162E+03  0.96319010162E+03  0.00000000000E+00 0. -1.
         -1   -1    0    0    0  501 -0.00000000000E+00 -0.00000000000E+00 -0.13022673168E+04  0.13022673168E+04  0.00000000000E+00 0.  1.
         23    2    1    2    0    0  0.11979935364E+03  0.57454046421E+03  0.79277981813E+03  0.99048723289E+03  0.90091555353E+02 0.  0.
         13    1    3    3    0    0  0.71690042612E+02  0.37499307857E+03  0.58384967394E+03  0.69759566580E+03  0.00000000000E+00 0. -1.
        -13    1    3    3    0    0  0.48109311028E+02  0.19954738564E+03  0.20893014419E+03  0.29289156710E+03  0.00000000000E+00 0.  1.
         22    1    1    2    0    0 -0.11979935364E+03 -0.57454046421E+03 -0.11318570333E+04  0.12749701855E+04  0.00000000000E+00 0.  1.
<mgrwt>
<rscale>  0 0.22399384E+04</rscale>
<asrwt>0</asrwt>
<pdfrwt beam="1">  1        1 0.14818309E+00 0.22399384E+04</pdfrwt>
<pdfrwt beam="2">  1       -1 0.20034882E+00 0.22399384E+04</pdfrwt>
<totfact> 0.21998952E+00</totfact>
</mgrwt>
</event>
<event>
 6    1  0.1072514E-005  0.1211054E+04  0.7818608E-02  0.9103236E-01
         -2   -1    0    0    0  501 -0.00000000000E+00  0.00000000000E+00  0.23427425156E+03  0.23427425156E+03  0.00000000000E+00 0.  1.
          2   -1    0    0  501    0  0.00000000000E+00 -0.00000000000E+00 -0.15651006898E+04  0.15651006898E+04  0.00000000000E+00 0. -1.
         23    2    1    2    0    0 -0.28953081487E+03 -0.44198388103E+03 -0.24041713681E+03  0.58769417131E+03  0.91685306705E+02 0.  0.
         13    1    3    3    0    0 -0.12498017349E+03 -0.12687380924E+03 -0.10837651258E+03  0.20847655915E+03  0.00000000000E+00 0. -1.
        -13    1    3    3    0    0 -0.16455064139E+03 -0.31511007178E+03 -0.13204062423E+03  0.37921761215E+03  0.00000000000E+00 0.  1.
         22    1    1    2    0    0  0.28953081487E+03  0.44198388103E+03 -0.10904093014E+04  0.12116807700E+04  0.00000000000E+00 0. -1.
<mgrwt>
<rscale>  0 0.12110537E+04</rscale>
<asrwt>0</asrwt>
<pdfrwt beam="1">  1        2 0.24078473E+00 0.12110537E+04</pdfrwt>
<pdfrwt beam="2">  1       -2 0.36042192E-01 0.12110537E+04</pdfrwt>
<totfact> 0.83255041E+01</totfact>
</mgrwt>
</event>
<event>
 6    1  0.1072514E-005  0.4287238E+04  0.7818608E-02  0.7948982E-01
          2   -1    0    0  501    0  0.00000000000E+00  0.00000000000E+00  0.40951149245E+04  0.40951149245E+04  0.00000000000E+00 0. -1.
         -2   -1    0    0    0  501 -0.00000000000E+00 -0.00000000000E+00 -0.11220935240E+04  0.11220935240E+04  0.00000000000E+00 0.  1.
         23    2    1    2    0    0  0.11107317937E+04  0.17148465475E+04  0.22726230413E+04  0.30573515872E+04  0.90329624801E+02 0.  0.
         11    1    3    3    0    0  0.21057183579E+03  0.39361861094E+03  0.49884403827E+03  0.66941876536E+03  0.00000000000E+00 0.  1.
        -11    1    3    3    0    0  0.90015995795E+03  0.13212279366E+04  0.17737790030E+04  0.23879328219E+04  0.00000000000E+00 0. -1.
         22    1    1    2    0    0 -0.11107317937E+04 -0.17148465475E+04  0.70039835924E+03  0.21598568612E+04  0.00000000000E+00 0.  1.
<mgrwt>
<rscale>  0 0.42872378E+04</rscale>
<asrwt>0</asrwt>
<pdfrwt beam="1">  1        2 0.63001768E+00 0.42872378E+04</pdfrwt>
<pdfrwt beam="2">  1       -2 0.17262977E+00 0.42872378E+04</pdfrwt>
<totfact> 0.44755848E-02</totfact>
</mgrwt>
</event>
<event>
 6    1  0.1072514E-005  0.1740566E+04  0.7818608E-02  0.8738560E-01
          2   -1    0    0  501    0  0.00000000000E+00  0.00000000000E+00  0.18684611357E+04  0.18684611357E+04  0.00000000000E+00 0. -1.
         -2   -1    0    0    0  501 -0.00000000000E+00 -0.00000000000E+00 -0.40535646506E+03  0.40535646506E+03  0.00000000000E+00 0.  1.
         23    2    1    2    0    0  0.58990729380E+03  0.12726107369E+03  0.15481114796E+04  0.16643816700E+04  0.96598105189E+02 0.  0.
         11    1    3    3    0    0  0.12033673586E+03 -0.23341742772E+01  0.38522360251E+03  0.40358840704E+03  0.00000000000E+00 0. -1.
        -11    1    3    3    0    0  0.46957055794E+03  0.12959524797E+03  0.11628878771E+04  0.12607932630E+04  0.00000000000E+00 0.  1.
         22    1    1    2    0    0 -0.58990729380E+03 -0.12726107369E+03 -0.85006808968E+02  0.60943593078E+03  0.00000000000E+00 0.  1.
<mgrwt>
<rscale>  0 0.17405663E+04</rscale>
<asrwt>0</asrwt>
<pdfrwt beam="1">  1        2 0.28745555E+00 0.17405663E+04</pdfrwt>
<pdfrwt beam="2">  1       -2 0.62362534E-01 0.17405663E+04</pdfrwt>
<totfact> 0.17889891E+01</totfact>
</mgrwt>
</event>
<event>
 6    1  0.1072514E-005  0.9337239E+03  0.7818608E-02  0.9384380E-01
         -2   -1    0    0    0  501 -0.00000000000E+00  0.00000000000E+00  0.43288245911E+03  0.43288245911E+03  0.00000000000E+00 0.  1.
          2   -1    0    0  501    0  0.00000000000E+00 -0.00000000000E+00 -0.50350863737E+03  0.50350863737E+03  0.00000000000E+00 0. -1.
         23    2    1    2    0    0 -0.81357997976E+02  0.13763384546E+03  0.39972979022E+03  0.43960448603E+03  0.88915688700E+02 0.  0.
         11    1    3    3    0    0 -0.10227331284E+02 -0.27941595332E+01  0.10444081565E+03  0.10497756716E+03  0.00000000000E+00 0.  1.
        -11    1    3    3    0    0 -0.71130666692E+02  0.14042800499E+03  0.29528897456E+03  0.33462691886E+03  0.00000000000E+00 0. -1.
         22    1    1    2    0    0  0.81357997976E+02 -0.13763384546E+03 -0.47035596848E+03  0.49678661046E+03  0.00000000000E+00 0. -1.
<mgrwt>
<rscale>  0 0.93372385E+03</rscale>
<asrwt>0</asrwt>
<pdfrwt beam="1">  1        2 0.77462867E-01 0.93372385E+03</pdfrwt>
<pdfrwt beam="2">  1       -2 0.66597301E-01 0.93372385E+03</pdfrwt>
<totfact> 0.12685422E+02</totfact>
</mgrwt>
</event>
<event>
 6    1  0.1072514E-005  0.4184952E+04  0.7818608E-02  0.7968241E-01
          2   -1    0    0  501    0  0.00000000000E+00  0.00000000000E+00  0.26149487283E+04  0.26149487283E+04  0.00000000000E+00 0. -1.
         -2   -1    0    0    0  501 -0.00000000000E+00 -0.00000000000E+00 -0.16743948069E+04  0.16743948069E+04  0.00000000000E+00 0.  1.
         23    2    1    2    0    0 -0.74643013197E+03 -0.18876516202E+04 -0.46231910046E+02  0.20323249579E+04  0.88435084384E+02 0.  0.
         13    1    3    3    0    0 -0.51583124159E+03 -0.13401935670E+04 -0.70736149033E+02  0.14377775452E+04  0.00000000000E+00 0.  1.
        -13    1    3    3    0    0 -0.23059889037E+03 -0.54745805318E+03  0.24504238987E+02  0.59454741271E+03  0.00000000000E+00 0. -1.
         22    1    1    2    0    0  0.74643013197E+03  0.18876516202E+04  0.98678583143E+03  0.22570185773E+04  0.00000000000E+00 0. -1.
<mgrwt>
<rscale>  0 0.41849524E+04</rscale>
<asrwt>0</asrwt>
<pdfrwt beam="1">  1        2 0.40229980E+00 0.41849524E+04</pdfrwt>
<pdfrwt beam="2">  1       -2 0.25759920E+00 0.41849524E+04</pdfrwt>
<totfact> 0.13376250E-01</totfact>
</mgrwt>
</event>
<event>
 6    1  0.1072514E-005  0.2202686E+04  0.7818608E-02  0.8517311E-01
         -2   -1    0    0    0  501 -0.00000000000E+00  0.00000000000E+00  0.36932586441E+03  0.36932586441E+03  0.00000000000E+00 0.  1.
          2   -1    0    0  501    0  0.00000000000E+00 -0.00000000000E+00 -0.32842434735E+04  0.32842434735E+04  0.00000000000E+00 0. -1.
         23    2    1    2    0    0 -0.81171667012E+03 -0.65224144981E+03 -0.87442615142E+03  0.13627379931E+04  0.90171404837E+02 0.  0.
         11    1    3    3    0    0 -0.24804944351E+03 -0.15168822378E+03 -0.26434052257E+03  0.39295515715E+03  0.00000000000E+00 0. -1.
        -11    1    3    3    0    0 -0.56366722661E+03 -0.50055322603E+03 -0.61008562884E+03  0.96978283598E+03  0.00000000000E+00 0.  1.
         22    1    1    2    0    0  0.81171667012E+03  0.65224144981E+03 -0.20404914577E+04  0.22908313448E+04  0.00000000000E+00 0. -1.
<mgrwt>
<rscale>  0 0.22026857E+04</rscale>
<asrwt>0</asrwt>
<pdfrwt beam="1">  1        2 0.50526820E+00 0.22026857E+04</pdfrwt>
<pdfrwt beam="2">  1       -2 0.56819367E-01 0.22026857E+04</pdfrwt>
<totfact> 0.30361628E+00</totfact>
</mgrwt>
</event>
<event>
 6    1  0.1072514E-005  0.1060605E+04  0.7818608E-02  0.9244463E-01
          2   -1    0    0  501    0  0.00000000000E+00  0.00000000000E+00  0.89458093395E+03  0.89458093395E+03  0.00000000000E+00 0. -1.
         -2   -1    0    0    0  501 -0.00000000000E+00 -0.00000000000E+00 -0.31436004483E+03  0.31436004483E+03  0.00000000000E+00 0.  1.
         23    2    1    2    0    0 -0.46112864033E+03 -0.17081000317E+03  0.77740455195E+02  0.50587464721E+03  0.89721236043E+02 0.  0.
         13    1    3    3    0    0 -0.11255684137E+03 -0.33947536586E+02  0.57441031624E+02  0.13084704771E+03  0.00000000000E+00 0. -1.
        -13    1    3    3    0    0 -0.34857179896E+03 -0.13686246659E+03  0.20299423571E+02  0.37502759950E+03  0.00000000000E+00 0.  1.
         22    1    1    2    0    0  0.46112864033E+03  0.17081000317E+03  0.50248043392E+03  0.70306633157E+03  0.00000000000E+00 0.  1.
<mgrwt>
<rscale>  0 0.10606045E+04</rscale>
<asrwt>0</asrwt>
<pdfrwt beam="1">  1        2 0.13762784E+00 0.10606045E+04</pdfrwt>
<pdfrwt beam="2">  1       -2 0.48363084E-01 0.10606045E+04</pdfrwt>
<totfact> 0.11914543E+02</totfact>
</mgrwt>
</event>
<event>
 6    1  0.1072514E-005  0.3155034E+04  0.7818608E-02  0.8200795E-01
          2   -1    0    0  501    0  0.00000000000E+00  0.00000000000E+00  0.34206728835E+04  0.34206728835E+04  0.00000000000E+00 0. -1.
         -2   -1    0    0    0  501 -0.00000000000E+00 -0.00000000000E+00 -0.72750600102E+03  0.72750600102E+03  0.00000000000E+00 0.  1.
         23    2    1    2    0    0 -0.42618881016E+02 -0.15152048715E+04  0.19158944589E+04  0.24447075487E+04  0.91001368801E+02 0.  0.
         11    1    3    3    0    0 -0.39504605098E+02 -0.52485838004E+03  0.72285012608E+03  0.89417517171E+03  0.00000000000E+00 0. -1.
        -11    1    3    3    0    0 -0.31142759179E+01 -0.99034649147E+03  0.11930443328E+04  0.15505323769E+04  0.00000000000E+00 0.  1.
         22    1    1    2    0    0  0.42618881016E+02  0.15152048715E+04  0.77727242360E+03  0.17034713359E+04  0.00000000000E+00 0. -1.
<mgrwt>
<rscale>  0 0.31550341E+04</rscale>
<asrwt>0</asrwt>
<pdfrwt beam="1">  1        2 0.52625736E+00 0.31550341E+04</pdfrwt>
<pdfrwt beam="2">  1       -2 0.11192400E+00 0.31550341E+04</pdfrwt>
<totfact> 0.49076195E-01</totfact>
</mgrwt>
</event>
<event>
 6    1  0.1072514E-005  0.2139646E+04  0.7818608E-02  0.8543977E-01
         -3   -1    0    0    0  501 -0.00000000000E+00  0.00000000000E+00  0.13646206121E+04  0.13646206121E+04  0.00000000000E+00 0.  1.
          3   -1    0    0  501    0  0.00000000000E+00 -0.00000000000E+00 -0.83870994420E+03  0.83870994420E+03  0.00000000000E+00 0. -1.
         23    2    1    2    0    0 -0.45962961481E+03 -0.77662665711E+03  0.85222713705E+03  0.12437000101E+04  0.78040211226E+02 0.  0.
         11    1    3    3    0    0 -0.24177267055E+03 -0.48031490172E+03  0.52177805099E+03  0.74927215585E+03  0.00000000000E+00 0. -1.
        -11    1    3    3    0    0 -0.21785694426E+03 -0.29631175539E+03  0.33044908606E+03  0.49442785421E+03  0.00000000000E+00 0.  1.
         22    1    1    2    0    0  0.45962961481E+03  0.77662665711E+03 -0.32631646910E+03  0.95963054628E+03  0.00000000000E+00 0. -1.
<mgrwt>
<rscale>  0 0.21396457E+04</rscale>
<asrwt>0</asrwt>
<pdfrwt beam="1">  1        3 0.12903230E+00 0.21396457E+04</pdfrwt>
<pdfrwt beam="2">  1       -3 0.20994163E+00 0.21396457E+04</pdfrwt>
<totfact> 0.14416735E-01</totfact>
</mgrwt>
</event>
<event>
 6    1  0.1072514E-005  0.2783395E+04  0.7818608E-02  0.8308442E-01
          2   -1    0    0  501    0  0.00000000000E+00  0.00000000000E+00  0.28595237156E+04  0.28595237156E+04  0.00000000000E+00 0. -1.
         -2   -1    0    0    0  501 -0.00000000000E+00 -0.00000000000E+00 -0.67732305381E+03  0.67732305381E+03  0.00000000000E+00 0.  1.
         23    2    1    2    0    0 -0.11611840305E+04 -0.52543031873E+03  0.38633878852E+03  0.13346784651E+04  0.87655993529E+02 0.  0.
         13    1    3    3    0    0 -0.40839304670E+03 -0.14263796717E+03  0.14725994102E+03  0.45696385033E+03  0.00000000000E+00 0.  1.
        -13    1    3    3    0    0 -0.75279098381E+03 -0.38279235156E+03  0.23907884750E+03  0.87771461480E+03  0.00000000000E+00 0. -1.
         22    1    1    2    0    0  0.11611840305E+04  0.52543031873E+03  0.17958618732E+04  0.22021683043E+04  0.00000000000E+00 0.  1.
<mgrwt>
<rscale>  0 0.27833946E+04</rscale>
<asrwt>0</asrwt>
<pdfrwt beam="1">  1        2 0.43992672E+00 0.27833946E+04</pdfrwt>
<pdfrwt beam="2">  1       -2 0.10420355E+00 0.27833946E+04</pdfrwt>
<totfact> 0.13871876E+00</totfact>
</mgrwt>
</event>
<event>
 6    1  0.1072514E-005  0.2292228E+04  0.7818608E-02  0.8480992E-01
          2   -1    0    0  501    0  0.00000000000E+00  0.00000000000E+00  0.11976260301E+04  0.11976260301E+04  0.00000000000E+00 0. -1.
         -2   -1    0    0    0  501 -0.00000000000E+00 -0.00000000000E+00 -0.10968176700E+04  0.10968176700E+04  0.00000000000E+00 0.  1.
         23    2    1    2    0    0 -0.73884286284E+03 -0.34710291809E+02  0.92449648998E+03  0.11873955008E+04  0.90115120893E+02 0.  0.
         13    1    3    3    0    0 -0.37441843310E+03 -0.49197901544E+02  0.52144602339E+03  0.64382882187E+03  0.00000000000E+00 0. -1.
        -13    1    3    3    0    0 -0.36442442974E+03  0.14487609735E+02  0.40305046659E+03  0.54356667893E+03  0.00000000000E+00 0.  1.
         22    1    1    2    0    0  0.73884286284E+03  0.34710291809E+02 -0.82368812992E+03  0.11070481994E+04  0.00000000000E+00 0.  1.
<mgrwt>
<rscale>  0 0.22922281E+04</rscale>
<asrwt>0</asrwt>
<pdfrwt beam="1">  1        2 0.18425016E+00 0.22922281E+04</pdfrwt>
<pdfrwt beam="2">  1       -2 0.16874118E+00 0.22922281E+04</pdfrwt>
<totfact> 0.37511581E+00</totfact>
</mgrwt>
</event>
<event>
 6    1  0.1839605E-005  0.2827562E+04  0.7818608E-02  0.8294762E-01
         -1   -1    0    0    0  501 -0.00000000000E+00  0.00000000000E+00  0.16771905343E+04  0.16771905343E+04  0.00000000000E+00 0.  1.
          1   -1    0    0  501    0  0.00000000000E+00 -0.00000000000E+00 -0.11917407343E+04  0.11917407343E+04  0.00000000000E+00 0. -1.
         23    2    1    2    0    0 -0.90035543431E+02 -0.11323783044E+04 -0.60851943454E+03  0.12918593902E+04  0.90651853134E+02 0.  0.
         11    1    3    3    0    0 -0.11922031062E+02 -0.32198658892E+03 -0.12959192995E+03  0.34729176002E+03  0.00000000000E+00 0. -1.
        -11    1    3    3    0    0 -0.78113512369E+02 -0.81039171552E+03 -0.47892750459E+03  0.94456763021E+03  0.00000000000E+00 0.  1.
         22    1    1    2    0    0  0.90035543431E+02  0.11323783044E+04  0.10939692345E+04  0.15770718784E+04  0.00000000000E+00 0.  1.
<mgrwt>
<rscale>  0 0.28275617E+04</rscale>
<asrwt>0</asrwt>
<pdfrwt beam="1">  1        1 0.18334473E+00 0.28275617E+04</pdfrwt>
<pdfrwt beam="2">  1       -1 0.25802931E+00 0.28275617E+04</pdfrwt>
<totfact> 0.57832991E-01</totfact>
</mgrwt>
</event>
<event>
 6    1  0.1072514E-005  0.1221128E+04  0.7818608E-02  0.9094561E-01
         -2   -1    0    0    0  501 -0.00000000000E+00  0.00000000000E+00  0.74687910680E+03  0.74687910680E+03  0.00000000000E+00 0.  1.
          2   -1    0    0  501    0  0.00000000000E+00 -0.00000000000E+00 -0.49912840507E+03  0.49912840507E+03  0.00000000000E+00 0. -1.
         23    2    1    2    0    0 -0.44313669368E+03 -0.41470632248E+03  0.14315868052E+03  0.63014149227E+03  0.90732735496E+02 0.  0.
         13    1    3    3    0    0 -0.31010168827E+03 -0.31243007513E+03  0.64804875771E+02  0.44494413227E+03  0.00000000000E+00 0. -1.
        -13    1    3    3    0    0 -0.13303500541E+03 -0.10227624734E+03  0.78353804749E+02  0.18519736001E+03  0.00000000000E+00 0.  1.
         22    1    1    2    0    0  0.44313669368E+03  0.41470632248E+03  0.10459202121E+03  0.61586601959E+03  0.00000000000E+00 0.  1.
<mgrwt>
<rscale>  0 0.12211283E+04</rscale>
<asrwt>0</asrwt>
<pdfrwt beam="1">  1        2 0.76788986E-01 0.12211283E+04</pdfrwt>
<pdfrwt beam="2">  1       -2 0.11490448E+00 0.12211283E+04</pdfrwt>
<totfact> 0.35919712E+01</totfact>
</mgrwt>
</event>
<event>
 6    1  0.1072514E-005  0.3336026E+04  0.7818608E-02  0.8153789E-01
         -2   -1    0    0    0  501 -0.00000000000E+00  0.00000000000E+00  0.22452547575E+04  0.22452547575E+04  0.00000000000E+00 0.  1.
          2   -1    0    0  501    0  0.00000000000E+00 -0.00000000000E+00 -0.12391768598E+04  0.12391768598E+04  0.00000000000E+00 0. -1.
         23    2    1    2    0    0 -0.88738806253E+03  0.92637706041E+03  0.16150239852E+04  0.20644149381E+04  0.88738562617E+02 0.  0.
         11    1    3    3    0    0 -0.29112470038E+03  0.27950122027E+03  0.56942435746E+03  0.69793883842E+03  0.00000000000E+00 0.  1.
        -11    1    3    3    0    0 -0.59626336215E+03  0.64687584013E+03  0.10455996277E+04  0.13664760997E+04  0.00000000000E+00 0. -1.
         22    1    1    2    0    0  0.88738806253E+03 -0.92637706041E+03 -0.60894608748E+03  0.14200166791E+04  0.00000000000E+00 0. -1.
<mgrwt>
<rscale>  0 0.33360262E+04</rscale>
<asrwt>0</asrwt>
<pdfrwt beam="1">  1        2 0.19064259E+00 0.33360262E+04</pdfrwt>
<pdfrwt beam="2">  1       -2 0.34542381E+00 0.33360262E+04</pdfrwt>
<totfact> 0.24842802E-01</totfact>
</mgrwt>
</event>
<event>
 6    1  0.1072514E-005  0.1286193E+04  0.7818608E-02  0.9040586E-01
          2   -1    0    0  501    0  0.00000000000E+00  0.00000000000E+00  0.26119987839E+03  0.26119987839E+03  0.00000000000E+00 0. -1.
         -2   -1    0    0    0  501 -0.00000000000E+00 -0.00000000000E+00 -0.15833597768E+04  0.15833597768E+04  0.00000000000E+00 0.  1.
         23    2    1    2    0    0  0.10975240520E+03  0.59824570604E+03 -0.94934067052E+03  0.11311609644E+04  0.91290215979E+02 0.  0.
         11    1    3    3    0    0  0.12105668366E+01  0.25439952038E+03 -0.38439146145E+03  0.46095268421E+03  0.00000000000E+00 0.  1.
        -11    1    3    3    0    0  0.10854183836E+03  0.34384618566E+03 -0.56494920907E+03  0.67020828023E+03  0.00000000000E+00 0. -1.
         22    1    1    2    0    0 -0.10975240520E+03 -0.59824570604E+03 -0.37281922786E+03  0.71339869071E+03  0.00000000000E+00 0.  1.
<mgrwt>
<rscale>  0 0.12861934E+04</rscale>
<asrwt>0</asrwt>
<pdfrwt beam="1">  1        2 0.40184597E-01 0.12861934E+04</pdfrwt>
<pdfrwt beam="2">  1       -2 0.24359381E+00 0.12861934E+04</pdfrwt>
<totfact> 0.88614084E+00</totfact>
</mgrwt>
</event>
<event>
 6    1  0.1072514E-005  0.1096322E+04  0.7818608E-02  0.9208784E-01
          1   -1    0    0  501    0  0.00000000000E+00  0.00000000000E+00  0.34229427320E+03  0.34229427320E+03  0.00000000000E+00 0.  1.
         -1   -1    0    0    0  501 -0.00000000000E+00 -0.00000000000E+00 -0.87784237075E+03  0.87784237075E+03  0.00000000000E+00 0. -1.
         23    2    1    2    0    0 -0.79133668340E+02  0.50558340678E+03 -0.47647791951E+03  0.70499976446E+03  0.90092959971E+02 0.  0.
         13    1    3    3    0    0 -0.28326289893E+02  0.54302798697E+02 -0.30191896576E+02  0.68284136256E+02  0.00000000000E+00 0. -1.
        -13    1    3    3    0    0 -0.50807378447E+02  0.45128060808E+03 -0.44628602293E+03  0.63671562821E+03  0.00000000000E+00 0.  1.
         22    1    1    2    0    0  0.79133668340E+02 -0.50558340678E+03 -0.59070178049E+02  0.51513687949E+03  0.00000000000E+00 0.  1.
<mgrwt>
<rscale>  0 0.10963219E+04</rscale>
<asrwt>0</asrwt>
<pdfrwt beam="1">  1        1 0.52660657E-01 0.10963219E+04</pdfrwt>
<pdfrwt beam="2">  1       -1 0.13505267E+00 0.10963219E+04</pdfrwt>
<totfact> 0.33834561E+01</totfact>
</mgrwt>
</event>
<event>
 6    1  0.1072514E-005  0.3753470E+04  0.7818608E-02  0.8056215E-01
         -1   -1    0    0    0  501 -0.00000000000E+00  0.00000000000E+00  0.10972262814E+04  0.10972262814E+04  0.00000000000E+00 0.  1.
          1   -1    0    0  501    0  0.00000000000E+00 -0.00000000000E+00 -0.32100337589E+04  0.32100337589E+04  0.00000000000E+00 0. -1.
         23    2    1    2    0    0  0.31576495107E+03  0.21319306348E+02 -0.31784658547E+04  0.31955992135E+04  0.95116387990E+02 0.  0.
         11    1    3    3    0    0  0.19810737551E+03  0.39080493295E+02 -0.16073615976E+04  0.16199954082E+04  0.00000000000E+00 0. -1.
        -11    1    3    3    0    0  0.11765757556E+03 -0.17761186947E+02 -0.15711042571E+04  0.15756038054E+04  0.00000000000E+00 0.  1.
         22    1    1    2    0    0 -0.31576495107E+03 -0.21319306348E+02  0.10656583771E+04  0.11116608268E+04  0.00000000000E+00 0.  1.
<mgrwt>
<rscale>  0 0.37534695E+04</rscale>
<asrwt>0</asrwt>
<pdfrwt beam="1">  1        1 0.49385134E+00 0.37534695E+04</pdfrwt>
<pdfrwt beam="2">  1       -1 0.16880404E+00 0.37534695E+04</pdfrwt>
<totfact> 0.83709034E-02</totfact>
</mgrwt>
</event>
<event>
 6    1  0.1072514E-005  0.2696669E+04  0.7818608E-02  0.8336086E-01
          1   -1    0    0  501    0  0.00000000000E+00  0.00000000000E+00  0.17095007561E+04  0.17095007561E+04  0.00000000000E+00 0. -1.
         -1   -1    0    0    0  501 -0.00000000000E+00 -0.00000000000E+00 -0.10634720558E+04  0.10634720558E+04  0.00000000000E+00 0.  1.
         23    2    1    2    0    0  0.26250490964E+03 -0.11394101742E+04  0.10105842125E+04  0.15482013663E+04  0.92101289313E+02 0.  0.
         13    1    3    3    0    0  0.16716843377E+03 -0.89518791143E+03  0.77893673863E+03  0.11983526713E+04  0.00000000000E+00 0. -1.
        -13    1    3    3    0    0  0.95336475869E+02 -0.24422226274E+03  0.23164747387E+03  0.34984869501E+03  0.00000000000E+00 0.  1.
         22    1    1    2    0    0 -0.26250490964E+03  0.11394101742E+04 -0.36455551219E+03  0.12247714456E+04  0.00000000000E+00 0. -1.
<mgrwt>
<rscale>  0 0.26966693E+04</rscale>
<asrwt>0</asrwt>
<pdfrwt beam="1">  1        1 0.26300012E+00 0.26966693E+04</pdfrwt>
<pdfrwt beam="2">  1       -1 0.16361109E+00 0.26966693E+04</pdfrwt>
<totfact> 0.11256300E+00</totfact>
</mgrwt>
</event>
<event>
 6    1  0.1072514E-005  0.1336321E+04  0.7818608E-02  0.9001248E-01
          3   -1    0    0  501    0  0.00000000000E+00  0.00000000000E+00  0.13233147159E+04  0.13233147159E+04  0.00000000000E+00 0. -1.
         -3   -1    0    0    0  501 -0.00000000000E+00 -0.00000000000E+00 -0.33736397985E+03  0.33736397985E+03  0.00000000000E+00 0.  1.
         23    2    1    2    0    0  0.52294391717E+03  0.40564120820E+03  0.57753963618E+03  0.88298032438E+03  0.89928258013E+02 0.  0.
         11    1    3    3    0    0  0.31581754775E+03  0.29365816321E+03  0.34798229532E+03  0.55413673235E+03  0.00000000000E+00 0.  1.
        -11    1    3    3    0    0  0.20712636943E+03  0.11198304499E+03  0.22955734086E+03  0.32884359203E+03  0.00000000000E+00 0. -1.
         22    1    1    2    0    0 -0.52294391717E+03 -0.40564120820E+03  0.40841109984E+03  0.77769837133E+03  0.00000000000E+00 0.  1.
<mgrwt>
<rscale>  0 0.13363214E+04</rscale>
<asrwt>0</asrwt>
<pdfrwt beam="1">  1        3 0.20358688E+00 0.13363214E+04</pdfrwt>
<pdfrwt beam="2">  1       -3 0.51902151E-01 0.13363214E+04</pdfrwt>
<totfact> 0.13180844E+00</totfact>
</mgrwt>
</event>
<event>
 6    1  0.1072514E-005  0.1722379E+03  0.7818608E-02  0.1175534E+00
          1   -1    0    0  501    0  0.00000000000E+00  0.00000000000E+00  0.50117865592E+02  0.50117865592E+02  0.00000000000E+00 0. -1.
         -1   -1    0    0    0  501 -0.00000000000E+00 -0.00000000000E+00 -0.14798056357E+03  0.14798056357E+03  0.00000000000E+00 0.  1.
         23    2    1    2    0    0  0.46437442137E+02 -0.20387660649E+01 -0.11165347218E+03  0.14961360626E+03  0.88074631579E+02 0.  0.
         13    1    3    3    0    0  0.18199812182E+02  0.42102495567E+02 -0.64324154777E+02  0.79002849216E+02  0.00000000000E+00 0. -1.
        -13    1    3    3    0    0  0.28237629955E+02 -0.44141261632E+02 -0.47329317402E+02  0.70610757040E+02  0.00000000000E+00 0.  1.
         22    1    1    2    0    0 -0.46437442137E+02  0.20387660649E+01  0.13790774201E+02  0.48484822907E+02  0.00000000000E+00 0. -1.
<mgrwt>
<rscale>  0 0.17223786E+03</rscale>
<asrwt>0</asrwt>
<pdfrwt beam="1">  1        1 0.77104410E-02 0.17223786E+03</pdfrwt>
<pdfrwt beam="2">  1       -1 0.22766240E-01 0.17223786E+03</pdfrwt>
<totfact> 0.14188963E+04</totfact>
</mgrwt>
</event>
<event>
 6    1  0.1072514E-005  0.1564476E+04  0.7818608E-02  0.8842674E-01
          2   -1    0    0  501    0  0.00000000000E+00  0.00000000000E+00  0.15504035274E+04  0.15504035274E+04  0.00000000000E+00 0. -1.
         -2   -1    0    0    0  501 -0.00000000000E+00 -0.00000000000E+00 -0.39466895181E+03  0.39466895181E+03  0.00000000000E+00 0.  1.
         23    2    1    2    0    0  0.47615164270E+03 -0.16150580782E+03  0.13205765540E+04  0.14159435813E+04  0.90384057056E+02 0.  0.
         13    1    3    3    0    0  0.34889588738E+03 -0.85816591669E+02  0.85613993294E+03  0.92847639303E+03  0.00000000000E+00 0. -1.
        -13    1    3    3    0    0  0.12725575532E+03 -0.75689216148E+02  0.46443662101E+03  0.48746718827E+03  0.00000000000E+00 0.  1.
         22    1    1    2    0    0 -0.47615164270E+03  0.16150580782E+03 -0.16484197835E+03  0.52912889793E+03  0.00000000000E+00 0.  1.
<mgrwt>
<rscale>  0 0.15644758E+04</rscale>
<asrwt>0</asrwt>
<pdfrwt beam="1">  1        2 0.23852362E+00 0.15644758E+04</pdfrwt>
<pdfrwt beam="2">  1       -2 0.60718301E-01 0.15644758E+04</pdfrwt>
<totfact> 0.28867937E+01</totfact>
</mgrwt>
</event>
<event>
 6    1  0.1072514E-005  0.2706376E+04  0.7818608E-02  0.8332939E-01
          1   -1    0    0  501    0  0.00000000000E+00  0.00000000000E+00  0.76553300592E+03  0.76553300592E+03  0.00000000000E+00 0. -1.
         -1   -1    0    0    0  501 -0.00000000000E+00 -0.00000000000E+00 -0.23919517525E+04  0.23919517525E+04  0.00000000000E+00 0.  1.
         23    2    1    2    0    0  0.66394909388E+03 -0.22214745658E+03 -0.21630095084E+04  0.22753807184E+04  0.92570992543E+02 0.  0.
         11    1    3    3    0    0  0.41124300104E+03 -0.17595121373E+03 -0.12893775541E+04  0.13647615588E+04  0.00000000000E+00 0.  1.
        -11    1    3    3    0    0  0.25270609284E+03 -0.46196242845E+02 -0.87363195432E+03  0.91061915959E+03  0.00000000000E+00 0. -1.
         22    1    1    2    0    0 -0.66394909388E+03  0.22214745658E+03  0.53659076180E+03  0.88210404000E+03  0.00000000000E+00 0. -1.
<mgrwt>
<rscale>  0 0.27063762E+04</rscale>
<asrwt>0</asrwt>
<pdfrwt beam="1">  1        1 0.11777431E+00 0.27063762E+04</pdfrwt>
<pdfrwt beam="2">  1       -1 0.36799258E+00 0.27063762E+04</pdfrwt>
<totfact> 0.24391416E-01</totfact>
</mgrwt>
</event>
<event>
 6    1  0.1072514E-005  0.3009319E+04  0.7818608E-02  0.8241075E-01
         -2   -1    0    0    0  501 -0.00000000000E+00  0.00000000000E+00  0.12318801765E+04  0.12318801765E+04  0.00000000000E+00 0.  1.
          2   -1    0    0  501    0  0.00000000000E+00 -0.00000000000E+00 -0.18378409850E+04  0.18378409850E+04  0.00000000000E+00 0. -1.
         23    2    1    2    0    0  0.11613811657E+04  0.93613326351E+03 -0.49302336488E+03  0.15737577377E+04  0.92139456818E+02 0.  0.
         13    1    3    3    0    0  0.88342147977E+03  0.73887987585E+03 -0.41438533785E+03  0.12239657634E+04  0.00000000000E+00 0. -1.
        -13    1    3    3    0    0  0.27795968595E+03  0.19725338766E+03 -0.78638027029E+02  0.34979197425E+03  0.00000000000E+00 0.  1.
         22    1    1    2    0    0 -0.11613811657E+04 -0.93613326351E+03 -0.11293744367E+03  0.14959634238E+04  0.00000000000E+00 0. -1.
<mgrwt>
<rscale>  0 0.30093188E+04</rscale>
<asrwt>0</asrwt>
<pdfrwt beam="1">  1        2 0.28274477E+00 0.30093188E+04</pdfrwt>
<pdfrwt beam="2">  1       -2 0.18952003E+00 0.30093188E+04</pdfrwt>
<totfact> 0.10982572E+00</totfact>
</mgrwt>
</event>
<event>
 6    1  0.1072514E-005  0.2691023E+04  0.7818608E-02  0.8337923E-01
         -2   -1    0    0    0  501 -0.00000000000E+00  0.00000000000E+00  0.83704344130E+03  0.83704344130E+03  0.00000000000E+00 0.  1.
          2   -1    0    0  501    0  0.00000000000E+00 -0.00000000000E+00 -0.21628529106E+04  0.21628529106E+04  0.00000000000E+00 0. -1.
         23    2    1    2    0    0 -0.43898770462E+03  0.79567079787E+02 -0.20769237957E+04  0.21262752348E+04  0.91612203702E+02 0.  0.
         11    1    3    3    0    0 -0.41638634458E+03  0.52161037025E+02 -0.19339380424E+04  0.19789428272E+04  0.00000000000E+00 0.  1.
        -11    1    3    3    0    0 -0.22601360036E+02  0.27406042762E+02 -0.14298575335E+03  0.14733240756E+03  0.00000000000E+00 0. -1.
         22    1    1    2    0    0  0.43898770462E+03 -0.79567079787E+02  0.75111432640E+03  0.87362111714E+03  0.00000000000E+00 0.  1.
<mgrwt>
<rscale>  0 0.26910235E+04</rscale>
<asrwt>0</asrwt>
<pdfrwt beam="1">  1        2 0.33274660E+00 0.26910235E+04</pdfrwt>
<pdfrwt beam="2">  1       -2 0.12877591E+00 0.26910235E+04</pdfrwt>
<totfact> 0.21158794E+00</totfact>
</mgrwt>
</event>
<event>
 6    1  0.1072514E-005  0.6610686E+03  0.7818608E-02  0.9786229E-01
         -1   -1    0    0    0  501 -0.00000000000E+00  0.00000000000E+00  0.24109964403E+03  0.24109964403E+03  0.00000000000E+00 0.  1.
          1   -1    0    0  501    0  0.00000000000E+00 -0.00000000000E+00 -0.45314430677E+03  0.45314430677E+03  0.00000000000E+00 0. -1.
         23    2    1    2    0    0 -0.14003747082E+03  0.26724003634E+03 -0.22761272709E+03  0.39213454200E+03  0.10456679799E+03 0.  0.
         13    1    3    3    0    0 -0.56031032777E+02  0.21072956040E+03 -0.15740170328E+03  0.26892697979E+03  0.00000000000E+00 0. -1.
        -13    1    3    3    0    0 -0.84006438041E+02  0.56510475943E+02 -0.70211023807E+02  0.12320756222E+03  0.00000000000E+00 0.  1.
         22    1    1    2    0    0  0.14003747082E+03 -0.26724003634E+03  0.15568064359E+02  0.30210940880E+03  0.00000000000E+00 0.  1.
<mgrwt>
<rscale>  0 0.66106862E+03</rscale>
<asrwt>0</asrwt>
<pdfrwt beam="1">  1        1 0.69714508E-01 0.66106862E+03</pdfrwt>
<pdfrwt beam="2">  1       -1 0.37092253E-01 0.66106862E+03</pdfrwt>
<totfact> 0.35886322E+02</totfact>
</mgrwt>
</event>
<event>
 6    1  0.1072514E-005  0.3964882E+04  0.7818608E-02  0.8011669E-01
          2   -1    0    0  501    0  0.00000000000E+00  0.00000000000E+00  0.20580147140E+04  0.20580147140E+04  0.00000000000E+00 0. -1.
         -2   -1    0    0    0  501 -0.00000000000E+00 -0.00000000000E+00 -0.19096427938E+04  0.19096427938E+04  0.00000000000E+00 0.  1.
         23    2    1    2    0    0 -0.14554800570E+04 -0.99486002411E+03 -0.83065087015E+03  0.19510627820E+04  0.92176175044E+02 0.  0.
         13    1    3    3    0    0 -0.11010334894E+04 -0.72290602926E+03 -0.58484752865E+03  0.14411504098E+04  0.00000000000E+00 0. -1.
        -13    1    3    3    0    0 -0.35444656757E+03 -0.27195399485E+03 -0.24580334150E+03  0.50991237215E+03  0.00000000000E+00 0.  1.
         22    1    1    2    0    0  0.14554800570E+04  0.99486002411E+03  0.97902279036E+03  0.20165947258E+04  0.00000000000E+00 0. -1.
<mgrwt>
<rscale>  0 0.39648823E+04</rscale>
<asrwt>0</asrwt>
<pdfrwt beam="1">  1        2 0.31661765E+00 0.39648823E+04</pdfrwt>
<pdfrwt beam="2">  1       -2 0.29379120E+00 0.39648823E+04</pdfrwt>
<totfact> 0.17020504E-01</totfact>
</mgrwt>
</event>
<event>
 6    1  0.1072514E-005  0.1147915E+04  0.7818608E-02  0.9159709E-01
         -1   -1    0    0    0  501 -0.00000000000E+00  0.00000000000E+00  0.20736871762E+03  0.20736871762E+03  0.00000000000E+00 0.  1.
          1   -1    0    0  501    0  0.00000000000E+00 -0.00000000000E+00 -0.15886064429E+04  0.15886064429E+04  0.00000000000E+00 0. -1.
         23    2    1    2    0    0 -0.22750520798E+02 -0.45341870982E+03 -0.15250777275E+03  0.48605783150E+03  0.82990856115E+02 0.  0.
         11    1    3    3    0    0 -0.29858425738E+02 -0.19619148859E+03 -0.28760903767E+02  0.20052385237E+03  0.00000000000E+00 0.  1.
        -11    1    3    3    0    0  0.71079049408E+01 -0.25722722123E+03 -0.12374686898E+03  0.28553397913E+03  0.00000000000E+00 0. -1.
         22    1    1    2    0    0  0.22750520798E+02  0.45341870982E+03 -0.12287299525E+04  0.13099173290E+04  0.00000000000E+00 0. -1.
<mgrwt>
<rscale>  0 0.11479151E+04</rscale>
<asrwt>0</asrwt>
<pdfrwt beam="1">  1        1 0.24440099E+00 0.11479151E+04</pdfrwt>
<pdfrwt beam="2">  1       -1 0.31902880E-01 0.11479151E+04</pdfrwt>
<totfact> 0.51664691E+01</totfact>
</mgrwt>
</event>
<event>
 6    1  0.1072514E-005  0.3393493E+04  0.7818608E-02  0.8139505E-01
         -2   -1    0    0    0  501 -0.00000000000E+00  0.00000000000E+00  0.11059157995E+04  0.11059157995E+04  0.00000000000E+00 0.  1.
          2   -1    0    0  501    0  0.00000000000E+00 -0.00000000000E+00 -0.26032254672E+04  0.26032254672E+04  0.00000000000E+00 0. -1.
         23    2    1    2    0    0 -0.43689365569E+03  0.58308229925E+03 -0.24225985468E+04  0.25314229031E+04  0.90868923287E+02 0.  0.
         13    1    3    3    0    0 -0.41738856745E+03  0.51272560870E+03 -0.21939356812E+04  0.22913870339E+04  0.00000000000E+00 0. -1.
        -13    1    3    3    0    0 -0.19505088236E+02  0.70356690550E+02 -0.22866286567E+03  0.24003586922E+03  0.00000000000E+00 0.  1.
         22    1    1    2    0    0  0.43689365569E+03 -0.58308229925E+03  0.92528887915E+03  0.11777183636E+04  0.00000000000E+00 0.  1.
<mgrwt>
<rscale>  0 0.33934927E+04</rscale>
<asrwt>0</asrwt>
<pdfrwt beam="1">  1        2 0.40049622E+00 0.33934927E+04</pdfrwt>
<pdfrwt beam="2">  1       -2 0.17014090E+00 0.33934927E+04</pdfrwt>
<totfact> 0.53391843E-01</totfact>
</mgrwt>
</event>
<event>
 6    1  0.1072514E-005  0.8453040E+03  0.7818608E-02  0.9496661E-01
          1   -1    0    0  501    0  0.00000000000E+00  0.00000000000E+00  0.64746393505E+03  0.64746393505E+03  0.00000000000E+00 0. -1.
         -1   -1    0    0    0  501 -0.00000000000E+00 -0.00000000000E+00 -0.27589911327E+03  0.27589911327E+03  0.00000000000E+00 0.  1.
         23    2    1    2    0    0 -0.23041508228E+03 -0.22431469541E+03  0.47915991054E+03  0.58426881976E+03  0.91474811610E+02 0.  0.
         13    1    3    3    0    0 -0.33526666396E+02 -0.80224047681E+02  0.16487655961E+03  0.18639800185E+03  0.00000000000E+00 0. -1.
        -13    1    3    3    0    0 -0.19688841589E+03 -0.14409064773E+03  0.31428335093E+03  0.39787081791E+03  0.00000000000E+00 0.  1.
         22    1    1    2    0    0  0.23041508228E+03  0.22431469541E+03 -0.10759508876E+03  0.33909422856E+03  0.00000000000E+00 0.  1.
<mgrwt>
<rscale>  0 0.84530403E+03</rscale>
<asrwt>0</asrwt>
<pdfrwt beam="1">  1        1 0.99609836E-01 0.84530403E+03</pdfrwt>
<pdfrwt beam="2">  1       -1 0.42446017E-01 0.84530403E+03</pdfrwt>
<totfact> 0.16881103E+02</totfact>
</mgrwt>
</event>
<event>
 6    1  0.1072514E-005  0.1993492E+04  0.7818608E-02  0.8609669E-01
          3   -1    0    0  501    0  0.00000000000E+00  0.00000000000E+00  0.11110148803E+04  0.11110148803E+04  0.00000000000E+00 0. -1.
         -3   -1    0    0    0  501 -0.00000000000E+00 -0.00000000000E+00 -0.89422998784E+03  0.89422998784E+03  0.00000000000E+00 0.  1.
         23    2    1    2    0    0 -0.96208187771E+03 -0.21277823634E+03  0.24618527245E+03  0.10194758792E+04  0.88587598130E+02 0.  0.
         11    1    3    3    0    0 -0.59330568253E+02 -0.18467730956E+02  0.38119241928E+02  0.72898902742E+02  0.00000000000E+00 0. -1.
        -11    1    3    3    0    0 -0.90275130946E+03 -0.19431050538E+03  0.20806603052E+03  0.94657697642E+03  0.00000000000E+00 0.  1.
         22    1    1    2    0    0  0.96208187771E+03  0.21277823634E+03 -0.29400379998E+02  0.98576898898E+03  0.00000000000E+00 0. -1.
<mgrwt>
<rscale>  0 0.19934922E+04</rscale>
<asrwt>0</asrwt>
<pdfrwt beam="1">  1        3 0.17092537E+00 0.19934922E+04</pdfrwt>
<pdfrwt beam="2">  1       -3 0.13757384E+00 0.19934922E+04</pdfrwt>
<totfact> 0.22384608E-01</totfact>
</mgrwt>
</event>
<event>
 6    1  0.1072514E-005  0.2721746E+04  0.7818608E-02  0.8327983E-01
          2   -1    0    0  501    0  0.00000000000E+00  0.00000000000E+00  0.20539716701E+04  0.20539716701E+04  0.00000000000E+00 0. -1.
         -2   -1    0    0    0  501 -0.00000000000E+00 -0.00000000000E+00 -0.90165574062E+03  0.90165574062E+03  0.00000000000E+00 0.  1.
         23    2    1    2    0    0  0.39285867734E+03 -0.46514630979E+03 -0.74304049221E+03  0.96488006484E+03  0.90472850033E+02 0.  0.
         11    1    3    3    0    0  0.20401572420E+03 -0.17243316199E+03 -0.31537516342E+03  0.41330025983E+03  0.00000000000E+00 0. -1.
        -11    1    3    3    0    0  0.18884295314E+03 -0.29271314780E+03 -0.42766532879E+03  0.55157980501E+03  0.00000000000E+00 0.  1.
         22    1    1    2    0    0 -0.39285867734E+03  0.46514630979E+03  0.18953564217E+04  0.19907473459E+04  0.00000000000E+00 0. -1.
<mgrwt>
<rscale>  0 0.27217460E+04</rscale>
<asrwt>0</asrwt>
<pdfrwt beam="1">  1        2 0.31599564E+00 0.27217460E+04</pdfrwt>
<pdfrwt beam="2">  1       -2 0.13871627E+00 0.27217460E+04</pdfrwt>
<totfact> 0.20083974E+00</totfact>
</mgrwt>
</event>
<event>
 6    1  0.1072514E-005  0.1672054E+04  0.7818608E-02  0.8777465E-01
         -1   -1    0    0    0  501 -0.00000000000E+00  0.00000000000E+00  0.16206303651E+04  0.16206303651E+04  0.00000000000E+00 0.  1.
          1   -1    0    0  501    0  0.00000000000E+00 -0.00000000000E+00 -0.43127752797E+03  0.43127752797E+03  0.00000000000E+00 0. -1.
         23    2    1    2    0    0  0.50988934798E+03 -0.33308737430E+02 -0.21158637297E+03  0.56069117857E+03  0.92245245499E+02 0.  0.
         13    1    3    3    0    0  0.36778664384E+03 -0.64753879166E+02 -0.16005180784E+03  0.40629627299E+03  0.00000000000E+00 0.  1.
        -13    1    3    3    0    0  0.14210270415E+03  0.31445141736E+02 -0.51534565131E+02  0.15439490558E+03  0.00000000000E+00 0. -1.
         22    1    1    2    0    0 -0.50988934798E+03  0.33308737430E+02  0.14009392101E+04  0.14912167145E+04  0.00000000000E+00 0.  1.
<mgrwt>
<rscale>  0 0.16720544E+04</rscale>
<asrwt>0</asrwt>
<pdfrwt beam="1">  1        1 0.66350390E-01 0.16720544E+04</pdfrwt>
<pdfrwt beam="2">  1       -1 0.24932774E+00 0.16720544E+04</pdfrwt>
<totfact> 0.36441855E+00</totfact>
</mgrwt>
</event>
<event>
 6    1  0.1072514E-005  0.4942597E+04  0.7818608E-02  0.7837424E-01
          2   -1    0    0  501    0  0.00000000000E+00  0.00000000000E+00  0.37780260023E+04  0.37780260023E+04  0.00000000000E+00 0. -1.
         -2   -1    0    0    0  501 -0.00000000000E+00 -0.00000000000E+00 -0.16165366477E+04  0.16165366477E+04  0.00000000000E+00 0.  1.
         23    2    1    2    0    0  0.26826436474E+03 -0.88155483705E+03 -0.14206827858E+04  0.16957706927E+04  0.90520518751E+02 0.  0.
         11    1    3    3    0    0  0.23159274344E+02 -0.20525821664E+03 -0.31804670879E+03  0.37923738801E+03  0.00000000000E+00 0. -1.
        -11    1    3    3    0    0  0.24510509040E+03 -0.67629662041E+03 -0.11026360770E+04  0.13165333047E+04  0.00000000000E+00 0.  1.
         22    1    1    2    0    0 -0.26826436474E+03  0.88155483705E+03  0.35821721404E+04  0.36987919573E+04  0.00000000000E+00 0. -1.
<mgrwt>
<rscale>  0 0.49425975E+04</rscale>
<asrwt>0</asrwt>
<pdfrwt beam="1">  1        2 0.58123477E+00 0.49425975E+04</pdfrwt>
<pdfrwt beam="2">  1       -2 0.24869795E+00 0.49425975E+04</pdfrwt>
<totfact> 0.24351863E-02</totfact>
</mgrwt>
</event>
<event>
 6    1  0.1072514E-005  0.2229229E+04  0.7818608E-02  0.8506360E-01
         -1   -1    0    0    0  501 -0.00000000000E+00  0.00000000000E+00  0.38289612443E+03  0.38289612443E+03  0.00000000000E+00 0.  1.
          1   -1    0    0  501    0  0.00000000000E+00 -0.00000000000E+00 -0.32446526569E+04  0.32446526569E+04  0.00000000000E+00 0. -1.
         23    2    1    2    0    0 -0.99387019939E+03 -0.49882620655E+03 -0.14974326815E+04  0.18674393734E+04  0.91758487897E+02 0.  0.
         11    1    3    3    0    0 -0.57510414653E+03 -0.25065592697E+03 -0.89362446097E+03  0.10918506539E+04  0.00000000000E+00 0. -1.
        -11    1    3    3    0    0 -0.41876605286E+03 -0.24817027959E+03 -0.60380822053E+03  0.77558871954E+03  0.00000000000E+00 0.  1.
         22    1    1    2    0    0  0.99387019939E+03  0.49882620655E+03 -0.13643238510E+04  0.17601094079E+04  0.00000000000E+00 0. -1.
<mgrwt>
<rscale>  0 0.22292285E+04</rscale>
<asrwt>0</asrwt>
<pdfrwt beam="1">  1        1 0.49917734E+00 0.22292285E+04</pdfrwt>
<pdfrwt beam="2">  1       -1 0.58907095E-01 0.22292285E+04</pdfrwt>
<totfact> 0.10465379E+00</totfact>
</mgrwt>
</event>
<event>
 6    1  0.1072514E-005  0.5284440E+04  0.7818608E-02  0.7786067E-01
          3   -1    0    0  501    0  0.00000000000E+00  0.00000000000E+00  0.38082555948E+04  0.38082555948E+04  0.00000000000E+00 0. -1.
         -3   -1    0    0    0  501 -0.00000000000E+00 -0.00000000000E+00 -0.18332085070E+04  0.18332085070E+04  0.00000000000E+00 0.  1.
         23    2    1    2    0    0 -0.92529827152E+03  0.22691396623E+04  0.20403345320E+04  0.31900493778E+04  0.90985340449E+02 0.  0.
         11    1    3    3    0    0 -0.87010050232E+03  0.20665637977E+04  0.18637584361E+04  0.29157085455E+04  0.00000000000E+00 0.  1.
        -11    1    3    3    0    0 -0.55197769207E+02  0.20257586459E+03  0.17657609592E+03  0.27434083234E+03  0.00000000000E+00 0. -1.
         22    1    1    2    0    0  0.92529827152E+03 -0.22691396623E+04 -0.65287444169E+02  0.24514147239E+04  0.00000000000E+00 0.  1.
<mgrwt>
<rscale>  0 0.52844400E+04</rscale>
<asrwt>0</asrwt>
<pdfrwt beam="1">  1        3 0.58588548E+00 0.52844400E+04</pdfrwt>
<pdfrwt beam="2">  1       -3 0.28203208E+00 0.52844400E+04</pdfrwt>
<totfact> 0.11573675E-04</totfact>
</mgrwt>
</event>
<event>
 6    1  0.1072514E-005  0.2123140E+04  0.7818608E-02  0.8551118E-01
         -1   -1    0    0    0  501 -0.00000000000E+00  0.00000000000E+00  0.64158261510E+03  0.64158261510E+03  0.00000000000E+00 0. -1.
          1   -1    0    0  501    0  0.00000000000E+00 -0.00000000000E+00 -0.17564866827E+04  0.17564866827E+04  0.00000000000E+00 0.  1.
         23    2    1    2    0    0  0.54049900273E+03 -0.91093740729E+03 -0.59221257137E+03  0.12169035464E+04  0.90511765247E+02 0.  0.
         13    1    3    3    0    0  0.31431500771E+03 -0.55472204733E+03 -0.40454706027E+03  0.75509522435E+03  0.00000000000E+00 0.  1.
        -13    1    3    3    0    0  0.22618399502E+03 -0.35621535996E+03 -0.18766551109E+03  0.46180832206E+03  0.00000000000E+00 0. -1.
         22    1    1    2    0    0 -0.54049900273E+03  0.91093740729E+03 -0.52269149618E+03  0.11811657513E+04  0.00000000000E+00 0. -1.
<mgrwt>
<rscale>  0 0.21231404E+04</rscale>
<asrwt>0</asrwt>
<pdfrwt beam="1">  1        1 0.27022872E+00 0.21231404E+04</pdfrwt>
<pdfrwt beam="2">  1       -1 0.98705018E-01 0.21231404E+04</pdfrwt>
<totfact> 0.39303276E+00</totfact>
</mgrwt>
</event>
<event>
 6    1  0.1072514E-005  0.4731749E+04  0.7818608E-02  0.7871275E-01
         -2   -1    0    0    0  501 -0.00000000000E+00  0.00000000000E+00  0.37407989661E+04  0.37407989661E+04  0.00000000000E+00 0.  1.
          2   -1    0    0  501    0  0.00000000000E+00 -0.00000000000E+00 -0.14963010125E+04  0.14963010125E+04  0.00000000000E+00 0. -1.
         23    2    1    2    0    0  0.22472585864E+04 -0.61854465224E+03  0.15658220106E+04  0.28094736325E+04  0.92600658784E+02 0.  0.
         13    1    3    3    0    0  0.18601630441E+04 -0.49762015305E+03  0.13315978208E+04  0.23411503847E+04  0.00000000000E+00 0.  1.
        -13    1    3    3    0    0  0.38709554232E+03 -0.12092449919E+03  0.23422418972E+03  0.46832324781E+03  0.00000000000E+00 0. -1.
         22    1    1    2    0    0 -0.22472585864E+04  0.61854465224E+03  0.67867594297E+03  0.24276263461E+04  0.00000000000E+00 0. -1.
<mgrwt>
<rscale>  0 0.47317486E+04</rscale>
<asrwt>0</asrwt>
<pdfrwt beam="1">  1        2 0.23020016E+00 0.47317486E+04</pdfrwt>
<pdfrwt beam="2">  1       -2 0.57550753E+00 0.47317486E+04</pdfrwt>
<totfact> 0.61508414E-03</totfact>
</mgrwt>
</event>
<event>
 6    1  0.1072514E-005  0.1047736E+04  0.7818608E-02  0.9257685E-01
         -2   -1    0    0    0  501 -0.00000000000E+00  0.00000000000E+00  0.22212192656E+03  0.22212192656E+03  0.00000000000E+00 0.  1.
          2   -1    0    0  501    0  0.00000000000E+00 -0.00000000000E+00 -0.12355269024E+04  0.12355269024E+04  0.00000000000E+00 0. -1.
         23    2    1    2    0    0  0.17956914158E+03 -0.23597991754E+03  0.83943761632E+02  0.32094048919E+03  0.89580379525E+02 0.  0.
         11    1    3    3    0    0  0.48315027490E+02 -0.11301271423E+03  0.67781576017E+02  0.14035867449E+03  0.00000000000E+00 0. -1.
        -11    1    3    3    0    0  0.13125411409E+03 -0.12296720331E+03  0.16162185615E+02  0.18058181470E+03  0.00000000000E+00 0.  1.
         22    1    1    2    0    0 -0.17956914158E+03  0.23597991754E+03 -0.10973487374E+04  0.11367083397E+04  0.00000000000E+00 0. -1.
<mgrwt>
<rscale>  0 0.10477359E+04</rscale>
<asrwt>0</asrwt>
<pdfrwt beam="1">  1        2 0.19008107E+00 0.10477359E+04</pdfrwt>
<pdfrwt beam="2">  1       -2 0.34172603E-01 0.10477359E+04</pdfrwt>
<totfact> 0.14389786E+02</totfact>
</mgrwt>
</event>
<event>
 6    1  0.1072514E-005  0.1886764E+04  0.7818608E-02  0.8661473E-01
          1   -1    0    0  501    0  0.00000000000E+00  0.00000000000E+00  0.16658030251E+04  0.16658030251E+04  0.00000000000E+00 0. -1.
         -1   -1    0    0    0  501 -0.00000000000E+00 -0.00000000000E+00 -0.53425841033E+03  0.53425841033E+03  0.00000000000E+00 0.  1.
         23    2    1    2    0    0  0.30680608234E+03  0.72355147325E+03 -0.36804548555E+02  0.79197888313E+03  0.90660189339E+02 0.  0.
         11    1    3    3    0    0  0.57699557145E+02  0.24259902668E+03 -0.51637215467E+01  0.24941970785E+03  0.00000000000E+00 0.  1.
        -11    1    3    3    0    0  0.24910652519E+03  0.48095244657E+03 -0.31640827008E+02  0.54255917529E+03  0.00000000000E+00 0. -1.
         22    1    1    2    0    0 -0.30680608234E+03 -0.72355147325E+03  0.11683491633E+04  0.14080825523E+04  0.00000000000E+00 0. -1.
<mgrwt>
<rscale>  0 0.18867637E+04</rscale>
<asrwt>0</asrwt>
<pdfrwt beam="1">  1        1 0.25627738E+00 0.18867637E+04</pdfrwt>
<pdfrwt beam="2">  1       -1 0.82193603E-01 0.18867637E+04</pdfrwt>
<totfact> 0.69344735E+00</totfact>
</mgrwt>
</event>
<event>
 6    1  0.1072514E-005  0.1286436E+04  0.7818608E-02  0.9040391E-01
         -2   -1    0    0    0  501 -0.00000000000E+00  0.00000000000E+00  0.29455144907E+03  0.29455144907E+03  0.00000000000E+00 0.  1.
          2   -1    0    0  501    0  0.00000000000E+00 -0.00000000000E+00 -0.14046083921E+04  0.14046083921E+04  0.00000000000E+00 0. -1.
         23    2    1    2    0    0 -0.50365030246E+03  0.37851025900E+03 -0.40921578774E+03  0.75676291403E+03  0.91098319298E+02 0.  0.
         11    1    3    3    0    0 -0.16516032366E+03  0.17707551130E+03 -0.17103861581E+03  0.29645889650E+03  0.00000000000E+00 0. -1.
        -11    1    3    3    0    0 -0.33848997880E+03  0.20143474771E+03 -0.23817717193E+03  0.46030401753E+03  0.00000000000E+00 0.  1.
         22    1    1    2    0    0  0.50365030246E+03 -0.37851025900E+03 -0.70084115530E+03  0.94239692715E+03  0.00000000000E+00 0.  1.
<mgrwt>
<rscale>  0 0.12864361E+04</rscale>
<asrwt>0</asrwt>
<pdfrwt beam="1">  1        2 0.21609360E+00 0.12864361E+04</pdfrwt>
<pdfrwt beam="2">  1       -2 0.45315607E-01 0.12864361E+04</pdfrwt>
<totfact> 0.65139168E+01</totfact>
</mgrwt>
</event>
<event>
 6    1  0.1072514E-005  0.1626849E+04  0.7818608E-02  0.8804221E-01
         -2   -1    0    0    0  501 -0.00000000000E+00  0.00000000000E+00  0.54547903149E+03  0.54547903149E+03  0.00000000000E+00 0.  1.
          2   -1    0    0  501    0  0.00000000000E+00 -0.00000000000E+00 -0.12129877237E+04  0.12129877237E+04  0.00000000000E+00 0. -1.
         23    2    1    2    0    0  0.51954401982E+03 -0.37996544938E+03  0.19815252512E+03  0.67973181349E+03  0.92039034101E+02 0.  0.
         11    1    3    3    0    0  0.24500514868E+03 -0.15951402619E+03  0.13499234254E+03  0.32201735974E+03  0.00000000000E+00 0.  1.
        -11    1    3    3    0    0  0.27453887114E+03 -0.22045142318E+03  0.63160182583E+02  0.35771445374E+03  0.00000000000E+00 0. -1.
         22    1    1    2    0    0 -0.51954401982E+03  0.37996544938E+03 -0.86566121731E+03  0.10787349417E+04  0.00000000000E+00 0. -1.
<mgrwt>
<rscale>  0 0.16268489E+04</rscale>
<asrwt>0</asrwt>
<pdfrwt beam="1">  1        2 0.18661350E+00 0.16268489E+04</pdfrwt>
<pdfrwt beam="2">  1       -2 0.83919851E-01 0.16268489E+04</pdfrwt>
<totfact> 0.22089733E+01</totfact>
</mgrwt>
</event>
<event>
 6    1  0.1072514E-005  0.9634777E+03  0.7818608E-02  0.9349534E-01
         -1   -1    0    0    0  501 -0.00000000000E+00  0.00000000000E+00  0.19694408714E+03  0.19694408714E+03  0.00000000000E+00 0.  1.
          1   -1    0    0  501    0  0.00000000000E+00 -0.00000000000E+00 -0.11783666066E+04  0.11783666066E+04  0.00000000000E+00 0. -1.
         23    2    1    2    0    0  0.98124908170E+00  0.20217822567E+03 -0.11127076705E+04  0.11342447512E+04  0.86693700778E+02 0.  0.
         11    1    3    3    0    0  0.37915801824E+02  0.11623235081E+03 -0.73665005239E+03  0.74672676869E+03  0.00000000000E+00 0. -1.
        -11    1    3    3    0    0 -0.36934552742E+02  0.85945874867E+02 -0.37605761814E+03  0.38751798249E+03  0.00000000000E+00 0.  1.
         22    1    1    2    0    0 -0.98124908170E+00 -0.20217822567E+03  0.13128515104E+03  0.24106594258E+03  0.00000000000E+00 0.  1.
<mgrwt>
<rscale>  0 0.96347773E+03</rscale>
<asrwt>0</asrwt>
<pdfrwt beam="1">  1        1 0.18128717E+00 0.96347773E+03</pdfrwt>
<pdfrwt beam="2">  1       -1 0.30299090E-01 0.96347773E+03</pdfrwt>
<totfact> 0.11152328E+02</totfact>
</mgrwt>
</event>
<event>
 6    1  0.1072514E-005  0.2435375E+04  0.7818608E-02  0.8426377E-01
         -2   -1    0    0    0  501 -0.00000000000E+00  0.00000000000E+00  0.79607621755E+03  0.79607621755E+03  0.00000000000E+00 0.  1.
          2   -1    0    0  501    0  0.00000000000E+00 -0.00000000000E+00 -0.18625896944E+04  0.18625896944E+04  0.00000000000E+00 0. -1.
         23    2    1    2    0    0  0.92436267947E+03 -0.53793162043E+03 -0.11656350505E+04  0.15845886904E+04  0.91648543346E+02 0.  0.
         13    1    3    3    0    0  0.33796906564E+03 -0.14822317358E+03 -0.41841102351E+03  0.55790768332E+03  0.00000000000E+00 0. -1.
        -13    1    3    3    0    0  0.58639361382E+03 -0.38970844685E+03 -0.74722402696E+03  0.10266810071E+04  0.00000000000E+00 0.  1.
         22    1    1    2    0    0 -0.92436267947E+03  0.53793162043E+03  0.99121573615E+02  0.10740772215E+04  0.00000000000E+00 0.  1.
<mgrwt>
<rscale>  0 0.24353754E+04</rscale>
<asrwt>0</asrwt>
<pdfrwt beam="1">  1        2 0.28655226E+00 0.24353754E+04</pdfrwt>
<pdfrwt beam="2">  1       -2 0.12247326E+00 0.24353754E+04</pdfrwt>
<totfact> 0.36044972E+00</totfact>
</mgrwt>
</event>
<event>
 6    1  0.1072514E-005  0.1060152E+04  0.7818608E-02  0.9244925E-01
          2   -1    0    0  501    0  0.00000000000E+00  0.00000000000E+00  0.63475225918E+03  0.63475225918E+03  0.00000000000E+00 0.  1.
         -2   -1    0    0    0  501 -0.00000000000E+00 -0.00000000000E+00 -0.44266192383E+03  0.44266192383E+03  0.00000000000E+00 0. -1.
         23    2    1    2    0    0  0.49796735019E+03 -0.85313080147E+02  0.24398395733E+03  0.56953353610E+03  0.97930964549E+02 0.  0.
         13    1    3    3    0    0  0.49687801942E+02 -0.31401158392E+02  0.58357924622E+01  0.59067477379E+02  0.00000000000E+00 0.  1.
        -13    1    3    3    0    0  0.44827954824E+03 -0.53911921755E+02  0.23814816486E+03  0.51046605872E+03  0.00000000000E+00 0. -1.
         22    1    1    2    0    0 -0.49796735019E+03  0.85313080147E+02 -0.51893621972E+02  0.50788064690E+03  0.00000000000E+00 0.  1.
<mgrwt>
<rscale>  0 0.10601522E+04</rscale>
<asrwt>0</asrwt>
<pdfrwt beam="1">  1        2 0.97654194E-01 0.10601522E+04</pdfrwt>
<pdfrwt beam="2">  1       -2 0.68101835E-01 0.10601522E+04</pdfrwt>
<totfact> 0.91001598E+01</totfact>
</mgrwt>
</event>
<event>
 6    1  0.1072514E-005  0.4138119E+04  0.7818608E-02  0.7977249E-01
          1   -1    0    0  501    0  0.00000000000E+00  0.00000000000E+00  0.16816578435E+04  0.16816578435E+04  0.00000000000E+00 0. -1.
         -1   -1    0    0    0  501 -0.00000000000E+00 -0.00000000000E+00 -0.25457067170E+04  0.25457067170E+04  0.00000000000E+00 0.  1.
         23    2    1    2    0    0 -0.73412436774E+03 -0.18078433972E+04  0.26672646819E+03  0.19721729478E+04  0.10529383304E+03 0.  0.
         13    1    3    3    0    0 -0.45917094346E+03 -0.11067334588E+04  0.21462714934E+03  0.12172763521E+04  0.00000000000E+00 0. -1.
        -13    1    3    3    0    0 -0.27495342428E+03 -0.70110993840E+03  0.52099318846E+02  0.75489659575E+03  0.00000000000E+00 0.  1.
         22    1    1    2    0    0  0.73412436774E+03  0.18078433972E+04 -0.11307753418E+04  0.22551916126E+04  0.00000000000E+00 0.  1.
<mgrwt>
<rscale>  0 0.41381192E+04</rscale>
<asrwt>0</asrwt>
<pdfrwt beam="1">  1        1 0.25871659E+00 0.41381192E+04</pdfrwt>
<pdfrwt beam="2">  1       -1 0.39164719E+00 0.41381192E+04</pdfrwt>
<totfact> 0.30948429E-02</totfact>
</mgrwt>
</event>
<event>
 6    1  0.1072514E-005  0.2918613E+04  0.7818608E-02  0.8267361E-01
          2   -1    0    0  501    0  0.00000000000E+00  0.00000000000E+00  0.27514714702E+04  0.27514714702E+04  0.00000000000E+00 0.  1.
         -2   -1    0    0    0  501 -0.00000000000E+00 -0.00000000000E+00 -0.77397714871E+03  0.77397714871E+03  0.00000000000E+00 0. -1.
         23    2    1    2    0    0  0.96088888479E+03  0.16022237934E+03 -0.32107212352E+03  0.10289738320E+04  0.81982794543E+02 0.  0.
         11    1    3    3    0    0  0.87589524189E+03  0.15593597276E+03 -0.31449512802E+03  0.94361840164E+03  0.00000000000E+00 0. -1.
        -11    1    3    3    0    0  0.84993642898E+02  0.42864065726E+01 -0.65769954947E+01  0.85355430314E+02  0.00000000000E+00 0.  1.
         22    1    1    2    0    0 -0.96088888479E+03 -0.16022237934E+03  0.22985664450E+04  0.24964747869E+04  0.00000000000E+00 0.  1.
<mgrwt>
<rscale>  0 0.29186134E+04</rscale>
<asrwt>0</asrwt>
<pdfrwt beam="1">  1        2 0.42330330E+00 0.29186134E+04</pdfrwt>
<pdfrwt beam="2">  1       -2 0.11907341E+00 0.29186134E+04</pdfrwt>
<totfact> 0.11534969E+00</totfact>
</mgrwt>
</event>
<event>
 6    1  0.1072514E-005  0.9997183E+03  0.7818608E-02  0.9308854E-01
         -2   -1    0    0    0  501 -0.00000000000E+00  0.00000000000E+00  0.35180228566E+03  0.35180228566E+03  0.00000000000E+00 0.  1.
          2   -1    0    0  501    0  0.00000000000E+00 -0.00000000000E+00 -0.71022614203E+03  0.71022614203E+03  0.00000000000E+00 0. -1.
         23    2    1    2    0    0  0.41389597393E+03 -0.18784604606E+03 -0.39052690709E+03  0.60636778629E+03  0.92599205341E+02 0.  0.
         13    1    3    3    0    0  0.30205692000E+03 -0.90567795583E+02 -0.27566925730E+03  0.41884895599E+03  0.00000000000E+00 0.  1.
        -13    1    3    3    0    0  0.11183905393E+03 -0.97278250474E+02 -0.11485764979E+03  0.18751883030E+03  0.00000000000E+00 0. -1.
         22    1    1    2    0    0 -0.41389597393E+03  0.18784604606E+03  0.32103050726E+02  0.45566064140E+03  0.00000000000E+00 0.  1.
<mgrwt>
<rscale>  0 0.99971832E+03</rscale>
<asrwt>0</asrwt>
<pdfrwt beam="1">  1        2 0.10926556E+00 0.99971832E+03</pdfrwt>
<pdfrwt beam="2">  1       -2 0.54123429E-01 0.99971832E+03</pdfrwt>
<totfact> 0.12913470E+02</totfact>
</mgrwt>
</event>
<event>
 6    1  0.1072514E-005  0.1100345E+04  0.7818608E-02  0.9204855E-01
         -1   -1    0    0    0  501 -0.00000000000E+00  0.00000000000E+00  0.28326521999E+03  0.28326521999E+03  0.00000000000E+00 0.  1.
          1   -1    0    0  501    0  0.00000000000E+00 -0.00000000000E+00 -0.10685742827E+04  0.10685742827E+04  0.00000000000E+00 0. -1.
         23    2    1    2    0    0 -0.27180693998E+03  0.32890332904E+02  0.18567541823E+03  0.34299281024E+03  0.90597573501E+02 0.  0.
         13    1    3    3    0    0 -0.43456297217E+02  0.40332046194E+02  0.47665059629E+02  0.76072870509E+02  0.00000000000E+00 0.  1.
        -13    1    3    3    0    0 -0.22835064276E+03 -0.74417132901E+01  0.13801035860E+03  0.26691993973E+03  0.00000000000E+00 0. -1.
         22    1    1    2    0    0  0.27180693998E+03 -0.32890332904E+02 -0.97098448094E+03  0.10088466924E+04  0.00000000000E+00 0. -1.
<mgrwt>
<rscale>  0 0.11003453E+04</rscale>
<asrwt>0</asrwt>
<pdfrwt beam="1">  1        1 0.16439604E+00 0.11003453E+04</pdfrwt>
<pdfrwt beam="2">  1       -1 0.43579264E-01 0.11003453E+04</pdfrwt>
<totfact> 0.69350391E+01</totfact>
</mgrwt>
</event>
<event>
 6    1  0.1072514E-005  0.9340410E+03  0.7818608E-02  0.9384001E-01
          2   -1    0    0  501    0  0.00000000000E+00  0.00000000000E+00  0.72238034446E+03  0.72238034446E+03  0.00000000000E+00 0. -1.
         -2   -1    0    0    0  501 -0.00000000000E+00 -0.00000000000E+00 -0.30192976640E+03  0.30192976640E+03  0.00000000000E+00 0.  1.
         23    2    1    2    0    0 -0.25157444443E+03  0.65226646898E+02  0.63186538427E+03  0.68928707159E+03  0.91206286313E+02 0.  0.
         11    1    3    3    0    0 -0.25340563262E+03  0.72262730942E+02  0.58174324756E+03  0.63864037064E+03  0.00000000000E+00 0. -1.
        -11    1    3    3    0    0  0.18311881860E+01 -0.70360840444E+01  0.50122136710E+02  0.50646700952E+02  0.00000000000E+00 0.  1.
         22    1    1    2    0    0  0.25157444443E+03 -0.65226646898E+02 -0.21141480621E+03  0.33502303927E+03  0.00000000000E+00 0.  1.
<mgrwt>
<rscale>  0 0.93404096E+03</rscale>
<asrwt>0</asrwt>
<pdfrwt beam="1">  1        2 0.11113544E+00 0.93404096E+03</pdfrwt>
<pdfrwt beam="2">  1       -2 0.46450733E-01 0.93404096E+03</pdfrwt>
<totfact> 0.17320192E+02</totfact>
</mgrwt>
</event>
<event>
 6    1  0.1072514E-005  0.2757211E+04  0.7818608E-02  0.8316677E-01
         -2   -1    0    0    0  501 -0.00000000000E+00  0.00000000000E+00  0.10485347905E+04  0.10485347905E+04  0.00000000000E+00 0.  1.
          2   -1    0    0  501    0  0.00000000000E+00 -0.00000000000E+00 -0.18125797284E+04  0.18125797284E+04  0.00000000000E+00 0. -1.
         23    2    1    2    0    0  0.61262012128E+03 -0.12334638189E+04 -0.36357318834E+03  0.14268502378E+04  0.83544792227E+02 0.  0.
         11    1    3    3    0    0  0.21225838624E+03 -0.38850692338E+03 -0.15319780001E+03  0.46846645341E+03  0.00000000000E+00 0. -1.
        -11    1    3    3    0    0  0.40036173504E+03 -0.84495689554E+03 -0.21037538832E+03  0.95838378441E+03  0.00000000000E+00 0.  1.
         22    1    1    2    0    0 -0.61262012128E+03  0.12334638189E+04 -0.40047174956E+03  0.14342642810E+04  0.00000000000E+00 0.  1.
<mgrwt>
<rscale>  0 0.27572108E+04</rscale>
<asrwt>0</asrwt>
<pdfrwt beam="1">  1        2 0.27885842E+00 0.27572108E+04</pdfrwt>
<pdfrwt beam="2">  1       -2 0.16131305E+00 0.27572108E+04</pdfrwt>
<totfact> 0.18267082E+00</totfact>
</mgrwt>
</event>
<event>
 6    1  0.1078749E-005  0.4274250E+04  0.7818608E-02  0.7951397E-01
         -1   -1    0    0    0  501 -0.00000000000E+00  0.00000000000E+00  0.16624911572E+04  0.16624911572E+04  0.00000000000E+00 0.  1.
          1   -1    0    0  501    0  0.00000000000E+00 -0.00000000000E+00 -0.27472646510E+04  0.27472646510E+04  0.00000000000E+00 0. -1.
         23    2    1    2    0    0  0.60816858609E+03  0.15704500557E+04 -0.18983321854E+04  0.25394456331E+04  0.94533753933E+02 0.  0.
         13    1    3    3    0    0  0.33629995270E+03  0.74312924950E+03 -0.93859464925E+03  0.12435025755E+04  0.00000000000E+00 0. -1.
        -13    1    3    3    0    0  0.27186863339E+03  0.82732080620E+03 -0.95973753612E+03  0.12959430576E+04  0.00000000000E+00 0.  1.
         22    1    1    2    0    0 -0.60816858609E+03 -0.15704500557E+04  0.81355869161E+03  0.18703101751E+04  0.00000000000E+00 0.  1.
<mgrwt>
<rscale>  0 0.42742500E+04</rscale>
<asrwt>0</asrwt>
<pdfrwt beam="1">  1        1 0.42265610E+00 0.42742500E+04</pdfrwt>
<pdfrwt beam="2">  1       -1 0.25576787E+00 0.42742500E+04</pdfrwt>
<totfact> 0.44453759E-02</totfact>
</mgrwt>
</event>
<event>
 6    1  0.1072514E-005  0.2698362E+04  0.7818608E-02  0.8335537E-01
         -1   -1    0    0    0  501 -0.00000000000E+00  0.00000000000E+00  0.10238418575E+04  0.10238418575E+04  0.00000000000E+00 0.  1.
          1   -1    0    0  501    0  0.00000000000E+00 -0.00000000000E+00 -0.17779014073E+04  0.17779014073E+04  0.00000000000E+00 0. -1.
         23    2    1    2    0    0  0.55303525374E+03 -0.90688021628E+03  0.48369218787E+03  0.11706978692E+04  0.91080457350E+02 0.  0.
         11    1    3    3    0    0  0.23047231287E+03 -0.30970239666E+03  0.14743411560E+03  0.41324312449E+03  0.00000000000E+00 0. -1.
        -11    1    3    3    0    0  0.32256294087E+03 -0.59717781962E+03  0.33625807227E+03  0.75745474468E+03  0.00000000000E+00 0.  1.
         22    1    1    2    0    0 -0.55303525374E+03  0.90688021628E+03 -0.12377517376E+04  0.16310453956E+04  0.00000000000E+00 0. -1.
<mgrwt>
<rscale>  0 0.26983624E+04</rscale>
<asrwt>0</asrwt>
<pdfrwt beam="1">  1        1 0.27352329E+00 0.26983624E+04</pdfrwt>
<pdfrwt beam="2">  1       -1 0.15751413E+00 0.26983624E+04</pdfrwt>
<totfact> 0.11242747E+00</totfact>
</mgrwt>
</event>
<event>
 6    1  0.1072514E-005  0.3577083E+04  0.7818608E-02  0.8095761E-01
          1   -1    0    0  501    0  0.00000000000E+00  0.00000000000E+00  0.13751628536E+04  0.13751628536E+04  0.00000000000E+00 0. -1.
         -1   -1    0    0    0  501 -0.00000000000E+00 -0.00000000000E+00 -0.23261826447E+04  0.23261826447E+04  0.00000000000E+00 0.  1.
         23    2    1    2    0    0  0.10640751204E+04  0.52711751949E+03 -0.18579867220E+04  0.22071240438E+04  0.95776532733E+02 0.  0.
         11    1    3    3    0    0  0.46632270674E+03  0.28107095476E+03 -0.87962419550E+03  0.10345030081E+04  0.00000000000E+00 0.  1.
        -11    1    3    3    0    0  0.59775241368E+03  0.24604656474E+03 -0.97836252650E+03  0.11726210357E+04  0.00000000000E+00 0. -1.
         22    1    1    2    0    0 -0.10640751204E+04 -0.52711751949E+03  0.90696693099E+03  0.14942214545E+04  0.00000000000E+00 0. -1.
<mgrwt>
<rscale>  0 0.35770826E+04</rscale>
<asrwt>0</asrwt>
<pdfrwt beam="1">  1        1 0.21156352E+00 0.35770826E+04</pdfrwt>
<pdfrwt beam="2">  1       -1 0.35787425E+00 0.35770826E+04</pdfrwt>
<totfact> 0.89258053E-02</totfact>
</mgrwt>
</event>
<event>
 6    1  0.1072514E-005  0.2825402E+04  0.7818608E-02  0.8295425E-01
         -1   -1    0    0    0  501 -0.00000000000E+00  0.00000000000E+00  0.10526361854E+04  0.10526361854E+04  0.00000000000E+00 0.  1.
          1   -1    0    0  501    0  0.00000000000E+00 -0.00000000000E+00 -0.18959300495E+04  0.18959300495E+04  0.00000000000E+00 0. -1.
         23    2    1    2    0    0  0.13865166059E+04  0.25738989439E+03 -0.47976828720E+03  0.14922597076E+04  0.89350822359E+02 0.  0.
         11    1    3    3    0    0  0.91555229634E+03  0.18889425580E+03 -0.27760997867E+03  0.97518426334E+03  0.00000000000E+00 0. -1.
        -11    1    3    3    0    0  0.47096430957E+03  0.68495638586E+02 -0.20215830853E+03  0.51707544430E+03  0.00000000000E+00 0.  1.
         22    1    1    2    0    0 -0.13865166059E+04 -0.25738989439E+03 -0.36352557687E+03  0.14563065272E+04  0.00000000000E+00 0. -1.
<mgrwt>
<rscale>  0 0.28254023E+04</rscale>
<asrwt>0</asrwt>
<pdfrwt beam="1">  1        1 0.29168154E+00 0.28254023E+04</pdfrwt>
<pdfrwt beam="2">  1       -1 0.16194403E+00 0.28254023E+04</pdfrwt>
<totfact> 0.85569616E-01</totfact>
</mgrwt>
</event>
<event>
 6    1  0.1072514E-005  0.1928828E+04  0.7818608E-02  0.8640638E-01
         -2   -1    0    0    0  501 -0.00000000000E+00  0.00000000000E+00  0.82990681556E+03  0.82990681556E+03  0.00000000000E+00 0.  1.
          2   -1    0    0  501    0  0.00000000000E+00 -0.00000000000E+00 -0.11207215306E+04  0.11207215306E+04  0.00000000000E+00 0. -1.
         23    2    1    2    0    0  0.72835471941E+03  0.21354996202E+03 -0.74411354543E+03  0.10665559435E+04  0.87934228634E+02 0.  0.
         11    1    3    3    0    0  0.46447244881E+03  0.91723965003E+02 -0.45966205266E+03  0.65987661279E+03  0.00000000000E+00 0. -1.
        -11    1    3    3    0    0  0.26388227060E+03  0.12182599701E+03 -0.28445149277E+03  0.40667933071E+03  0.00000000000E+00 0.  1.
         22    1    1    2    0    0 -0.72835471941E+03 -0.21354996202E+03  0.45329883036E+03  0.88407240268E+03  0.00000000000E+00 0.  1.
<mgrwt>
<rscale>  0 0.19288281E+04</rscale>
<asrwt>0</asrwt>
<pdfrwt beam="1">  1        2 0.17241870E+00 0.19288281E+04</pdfrwt>
<pdfrwt beam="2">  1       -2 0.12767797E+00 0.19288281E+04</pdfrwt>
<totfact> 0.89865155E+00</totfact>
</mgrwt>
</event>
<event>
 6    1  0.1072514E-005  0.1795816E+04  0.7818608E-02  0.8708528E-01
          1   -1    0    0  501    0  0.00000000000E+00  0.00000000000E+00  0.95152813788E+03  0.95152813788E+03  0.00000000000E+00 0. -1.
         -1   -1    0    0    0  501 -0.00000000000E+00 -0.00000000000E+00 -0.84730916922E+03  0.84730916922E+03  0.00000000000E+00 0.  1.
         23    2    1    2    0    0 -0.29930161924E+03  0.56042875426E+02  0.89599303791E+03  0.95052814181E+03  0.89319433617E+02 0.  0.
         13    1    3    3    0    0 -0.14429046743E+03  0.23013707040E+02  0.56437388767E+03  0.58298135029E+03  0.00000000000E+00 0.  1.
        -13    1    3    3    0    0 -0.15501115181E+03  0.33029168385E+02  0.33161915024E+03  0.36754679152E+03  0.00000000000E+00 0. -1.
         22    1    1    2    0    0  0.29930161924E+03 -0.56042875426E+02 -0.79177406926E+03  0.84830916529E+03  0.00000000000E+00 0.  1.
<mgrwt>
<rscale>  0 0.17958157E+04</rscale>
<asrwt>0</asrwt>
<pdfrwt beam="1">  1        1 0.14638894E+00 0.17958157E+04</pdfrwt>
<pdfrwt beam="2">  1       -1 0.13035526E+00 0.17958157E+04</pdfrwt>
<totfact> 0.78590793E+00</totfact>
</mgrwt>
</event>
<event>
 6    1  0.1072514E-005  0.6551818E+03  0.7818608E-02  0.9797104E-01
          1   -1    0    0  501    0  0.00000000000E+00  0.00000000000E+00  0.46365100112E+03  0.46365100112E+03  0.00000000000E+00 0. -1.
         -1   -1    0    0    0  501 -0.00000000000E+00 -0.00000000000E+00 -0.23145815708E+03  0.23145815708E+03  0.00000000000E+00 0.  1.
         23    2    1    2    0    0 -0.29131716393E+03  0.13738209411E+02 -0.24446008782E+02  0.30662758956E+03  0.91479194023E+02 0.  0.
         13    1    3    3    0    0 -0.14728444619E+03 -0.51749336977E+01  0.31944173923E+02  0.15079760699E+03  0.00000000000E+00 0.  1.
        -13    1    3    3    0    0 -0.14403271774E+03  0.18913143108E+02 -0.56390182705E+02  0.15582998257E+03  0.00000000000E+00 0. -1.
         22    1    1    2    0    0  0.29131716393E+03 -0.13738209411E+02  0.25663885281E+03  0.38848156864E+03  0.00000000000E+00 0. -1.
<mgrwt>
<rscale>  0 0.65518183E+03</rscale>
<asrwt>0</asrwt>
<pdfrwt beam="1">  1        1 0.71330923E-01 0.65518183E+03</pdfrwt>
<pdfrwt beam="2">  1       -1 0.35608947E-01 0.65518183E+03</pdfrwt>
<totfact> 0.37434606E+02</totfact>
</mgrwt>
</event>
<event>
 6    1  0.1072514E-005  0.1640751E+04  0.7818608E-02  0.8795897E-01
         -2   -1    0    0    0  501 -0.00000000000E+00  0.00000000000E+00  0.14468086288E+04  0.14468086288E+04  0.00000000000E+00 0.  1.
          2   -1    0    0  501    0  0.00000000000E+00 -0.00000000000E+00 -0.46517300168E+03  0.46517300168E+03  0.00000000000E+00 0. -1.
         23    2    1    2    0    0 -0.69674345087E+03 -0.20749237867E+03  0.93145032127E+03  0.11832683203E+04  0.63401050941E+02 0.  0.
         11    1    3    3    0    0 -0.21389715806E+03 -0.74777788616E+02  0.24691657986E+03  0.33512909349E+03  0.00000000000E+00 0. -1.
        -11    1    3    3    0    0 -0.48284629282E+03 -0.13271459005E+03  0.68453374141E+03  0.84813922680E+03  0.00000000000E+00 0.  1.
         22    1    1    2    0    0  0.69674345087E+03  0.20749237867E+03  0.50185305856E+02  0.72871331020E+03  0.00000000000E+00 0. -1.
<mgrwt>
<rscale>  0 0.16407514E+04</rscale>
<asrwt>0</asrwt>
<pdfrwt beam="1">  1        2 0.71565078E-01 0.16407514E+04</pdfrwt>
<pdfrwt beam="2">  1       -2 0.22258594E+00 0.16407514E+04</pdfrwt>
<totfact> 0.60876147E+00</totfact>
</mgrwt>
</event>
<event>
 6    1  0.1072514E-005  0.1192013E+04  0.7818608E-02  0.9119876E-01
         -1   -1    0    0    0  501 -0.00000000000E+00  0.00000000000E+00  0.26181183245E+03  0.26181183245E+03  0.00000000000E+00 0.  1.
          1   -1    0    0  501    0  0.00000000000E+00 -0.00000000000E+00 -0.13567901449E+04  0.13567901449E+04  0.00000000000E+00 0. -1.
         23    2    1    2    0    0  0.11171513319E+03 -0.20654683207E+03  0.18756639759E+03  0.31473741458E+03  0.93469897865E+02 0.  0.
         11    1    3    3    0    0  0.42638548005E+02 -0.12690033755E+03  0.15409136097E+03  0.20412224027E+03  0.00000000000E+00 0. -1.
        -11    1    3    3    0    0  0.69076585188E+02 -0.79646494521E+02  0.33475036618E+02  0.11061517431E+03  0.00000000000E+00 0.  1.
         22    1    1    2    0    0 -0.11171513319E+03  0.20654683207E+03 -0.12825447100E+04  0.13038645628E+04  0.00000000000E+00 0. -1.
<mgrwt>
<rscale>  0 0.11920129E+04</rscale>
<asrwt>0</asrwt>
<pdfrwt beam="1">  1        1 0.20873694E+00 0.11920129E+04</pdfrwt>
<pdfrwt beam="2">  1       -1 0.40278744E-01 0.11920129E+04</pdfrwt>
<totfact> 0.49061572E+01</totfact>
</mgrwt>
</event>
<event>
 6    1  0.1072514E-005  0.1745986E+04  0.7818608E-02  0.8735563E-01
         -2   -1    0    0    0  501 -0.00000000000E+00  0.00000000000E+00  0.41990610906E+03  0.41990610906E+03  0.00000000000E+00 0.  1.
          2   -1    0    0  501    0  0.00000000000E+00 -0.00000000000E+00 -0.18149701236E+04  0.18149701236E+04  0.00000000000E+00 0. -1.
         23    2    1    2    0    0  0.50738903480E+03  0.58861877473E+03 -0.19722132075E+03  0.80703071803E+03  0.92122938958E+02 0.  0.
         11    1    3    3    0    0  0.36253970898E+03  0.47040640061E+03 -0.12708795440E+03  0.60734551161E+03  0.00000000000E+00 0.  1.
        -11    1    3    3    0    0  0.14484932582E+03  0.11821237412E+03 -0.70133366357E+02  0.19968520642E+03  0.00000000000E+00 0. -1.
         22    1    1    2    0    0 -0.50738903480E+03 -0.58861877473E+03 -0.11978426938E+04  0.14278455147E+04  0.00000000000E+00 0. -1.
<mgrwt>
<rscale>  0 0.17459863E+04</rscale>
<asrwt>0</asrwt>
<pdfrwt beam="1">  1        2 0.27922618E+00 0.17459863E+04</pdfrwt>
<pdfrwt beam="2">  1       -2 0.64600939E-01 0.17459863E+04</pdfrwt>
<totfact> 0.17754108E+01</totfact>
</mgrwt>
</event>
<event>
 6    1  0.1072514E-005  0.3907458E+04  0.7818608E-02  0.8023480E-01
         -2   -1    0    0    0  501 -0.00000000000E+00  0.00000000000E+00  0.19824836138E+04  0.19824836138E+04  0.00000000000E+00 0.  1.
          2   -1    0    0  501    0  0.00000000000E+00 -0.00000000000E+00 -0.19253913060E+04  0.19253913060E+04  0.00000000000E+00 0. -1.
         23    2    1    2    0    0 -0.14134976075E+04  0.49879621671E+03 -0.12230346885E+04  0.19367081893E+04  0.90838366566E+02 0.  0.
         13    1    3    3    0    0 -0.54561064495E+03  0.15252567250E+03 -0.49105289960E+03  0.74972528760E+03  0.00000000000E+00 0. -1.
        -13    1    3    3    0    0 -0.86788696259E+03  0.34627054421E+03 -0.73198178894E+03  0.11869829017E+04  0.00000000000E+00 0.  1.
         22    1    1    2    0    0  0.14134976075E+04 -0.49879621671E+03  0.12801269963E+04  0.19711667304E+04  0.00000000000E+00 0.  1.
<mgrwt>
<rscale>  0 0.39074579E+04</rscale>
<asrwt>0</asrwt>
<pdfrwt beam="1">  1        2 0.29621405E+00 0.39074579E+04</pdfrwt>
<pdfrwt beam="2">  1       -2 0.30499748E+00 0.39074579E+04</pdfrwt>
<totfact> 0.17304238E-01</totfact>
</mgrwt>
</event>
<event>
 6    1  0.1072514E-005  0.1876131E+04  0.7818608E-02  0.8666830E-01
         -2   -1    0    0    0  501 -0.00000000000E+00  0.00000000000E+00  0.64541598656E+03  0.64541598656E+03  0.00000000000E+00 0.  1.
          2   -1    0    0  501    0  0.00000000000E+00 -0.00000000000E+00 -0.13634097847E+04  0.13634097847E+04  0.00000000000E+00 0. -1.
         23    2    1    2    0    0  0.54761636872E+03  0.19464052558E+03  0.42579754667E+03  0.72584983152E+03  0.88237212575E+02 0.  0.
         11    1    3    3    0    0  0.31848602482E+03  0.10170677921E+03  0.19190969291E+03  0.38549571616E+03  0.00000000000E+00 0.  1.
        -11    1    3    3    0    0  0.22913034390E+03  0.92933746375E+02  0.23388785375E+03  0.34035411536E+03  0.00000000000E+00 0. -1.
         22    1    1    2    0    0 -0.54761636872E+03 -0.19464052558E+03 -0.11437913448E+04  0.12829759397E+04  0.00000000000E+00 0. -1.
<mgrwt>
<rscale>  0 0.18761306E+04</rscale>
<asrwt>0</asrwt>
<pdfrwt beam="1">  1        2 0.20975535E+00 0.18761306E+04</pdfrwt>
<pdfrwt beam="2">  1       -2 0.99294767E-01 0.18761306E+04</pdfrwt>
<totfact> 0.11973192E+01</totfact>
</mgrwt>
</event>
<event>
 6    1  0.1072514E-005  0.4977147E+04  0.7818608E-02  0.7832042E-01
         -2   -1    0    0    0  501 -0.00000000000E+00  0.00000000000E+00  0.18219546481E+04  0.18219546481E+04  0.00000000000E+00 0. -1.
          2   -1    0    0  501    0  0.00000000000E+00 -0.00000000000E+00 -0.33990952551E+04  0.33990952551E+04  0.00000000000E+00 0.  1.
         23    2    1    2    0    0 -0.18444426768E+04 -0.88485074293E+02  0.95925635648E+03  0.20836771245E+04  0.10834761205E+03 0.  0.
         11    1    3    3    0    0 -0.57917868138E+03  0.20568134246E+02  0.31623786148E+03  0.66021010152E+03  0.00000000000E+00 0.  1.
        -11    1    3    3    0    0 -0.12652639954E+04 -0.10905320854E+03  0.64301849500E+03  0.14234670229E+04  0.00000000000E+00 0. -1.
         22    1    1    2    0    0  0.18444426768E+04  0.88485074293E+02 -0.25363969634E+04  0.31373727787E+04  0.00000000000E+00 0.  1.
<mgrwt>
<rscale>  0 0.49771467E+04</rscale>
<asrwt>0</asrwt>
<pdfrwt beam="1">  1        2 0.52293772E+00 0.49771467E+04</pdfrwt>
<pdfrwt beam="2">  1       -2 0.28030072E+00 0.49771467E+04</pdfrwt>
<totfact> 0.29154821E-02</totfact>
</mgrwt>
</event>
<event>
 6    1  0.1072514E-005  0.1786535E+04  0.7818608E-02  0.8713493E-01
         -2   -1    0    0    0  501 -0.00000000000E+00  0.00000000000E+00  0.10815066862E+04  0.10815066862E+04  0.00000000000E+00 0.  1.
          2   -1    0    0  501    0  0.00000000000E+00 -0.00000000000E+00 -0.73779167054E+03  0.73779167054E+03  0.00000000000E+00 0. -1.
         23    2    1    2    0    0  0.68219122094E+03  0.42159200238E+03  0.56742832206E+03  0.98672864677E+03  0.92378803129E+02 0.  0.
         13    1    3    3    0    0  0.37298045575E+03  0.28339931596E+03  0.32043106372E+03  0.56754353072E+03  0.00000000000E+00 0. -1.
        -13    1    3    3    0    0  0.30921076519E+03  0.13819268642E+03  0.24699725834E+03  0.41918511605E+03  0.00000000000E+00 0.  1.
         22    1    1    2    0    0 -0.68219122094E+03 -0.42159200238E+03 -0.22371330644E+03  0.83256970993E+03  0.00000000000E+00 0. -1.
<mgrwt>
<rscale>  0 0.17865348E+04</rscale>
<asrwt>0</asrwt>
<pdfrwt beam="1">  1        2 0.11350641E+00 0.17865348E+04</pdfrwt>
<pdfrwt beam="2">  1       -2 0.16638564E+00 0.17865348E+04</pdfrwt>
<totfact> 0.81852494E+00</totfact>
</mgrwt>
</event>
<event>
 6    1  0.1072514E-005  0.2033484E+04  0.7818608E-02  0.8591124E-01
         -1   -1    0    0    0  501 -0.00000000000E+00  0.00000000000E+00  0.15035926551E+04  0.15035926551E+04  0.00000000000E+00 0.  1.
          1   -1    0    0  501    0  0.00000000000E+00 -0.00000000000E+00 -0.68752921331E+03  0.68752921331E+03  0.00000000000E+00 0. -1.
         23    2    1    2    0    0 -0.71196913488E+03  0.68421675498E+03  0.15692937246E+03  0.10038938624E+04  0.90130140665E+02 0.  0.
         11    1    3    3    0    0 -0.32598574844E+03  0.29799760664E+03  0.26258477517E+02  0.44244636894E+03  0.00000000000E+00 0. -1.
        -11    1    3    3    0    0 -0.38598338645E+03  0.38621914834E+03  0.13067089494E+03  0.56144749349E+03  0.00000000000E+00 0.  1.
         22    1    1    2    0    0  0.71196913488E+03 -0.68421675498E+03  0.65913406934E+03  0.11872280060E+04  0.00000000000E+00 0.  1.
<mgrwt>
<rscale>  0 0.20334836E+04</rscale>
<asrwt>0</asrwt>
<pdfrwt beam="1">  1        1 0.10577373E+00 0.20334836E+04</pdfrwt>
<pdfrwt beam="2">  1       -1 0.23132195E+00 0.20334836E+04</pdfrwt>
<totfact> 0.23954094E+00</totfact>
</mgrwt>
</event>
<event>
 6    1  0.1072514E-005  0.2710601E+04  0.7818608E-02  0.8331574E-01
          2   -1    0    0  501    0  0.00000000000E+00  0.00000000000E+00  0.79265349920E+03  0.79265349920E+03  0.00000000000E+00 0. -1.
         -2   -1    0    0    0  501 -0.00000000000E+00 -0.00000000000E+00 -0.23173290006E+04  0.23173290006E+04  0.00000000000E+00 0.  1.
         23    2    1    2    0    0 -0.65586705208E+03 -0.10925751256E+04 -0.23695466255E+03  0.12983238803E+04  0.74935912344E+02 0.  0.
         13    1    3    3    0    0 -0.40474350512E+03 -0.72091378774E+03 -0.18052171570E+03  0.84623996841E+03  0.00000000000E+00 0.  1.
        -13    1    3    3    0    0 -0.25112354696E+03 -0.37166133781E+03 -0.56432946848E+02  0.45208391185E+03  0.00000000000E+00 0. -1.
         22    1    1    2    0    0  0.65586705208E+03  0.10925751256E+04 -0.12877208388E+04  0.18116586195E+04  0.00000000000E+00 0.  1.
<mgrwt>
<rscale>  0 0.27106006E+04</rscale>
<asrwt>0</asrwt>
<pdfrwt beam="1">  1        2 0.12194669E+00 0.27106006E+04</pdfrwt>
<pdfrwt beam="2">  1       -2 0.35651215E+00 0.27106006E+04</pdfrwt>
<totfact> 0.43256820E-01</totfact>
</mgrwt>
</event>
<event>
 6    1  0.1072514E-005  0.8801273E+03  0.7818608E-02  0.9450770E-01
          1   -1    0    0  501    0  0.00000000000E+00  0.00000000000E+00  0.14862866977E+04  0.14862866977E+04  0.00000000000E+00 0. -1.
         -1   -1    0    0    0  501 -0.00000000000E+00 -0.00000000000E+00 -0.13029518492E+03  0.13029518492E+03  0.00000000000E+00 0.  1.
         23    2    1    2    0    0 -0.18314373729E+03 -0.21964527555E+03  0.80219239178E+02  0.30914906612E+03  0.85745805548E+02 0.  0.
         11    1    3    3    0    0 -0.15271577622E+03 -0.20524803917E+03  0.94306114568E+02  0.27265822770E+03  0.00000000000E+00 0.  1.
        -11    1    3    3    0    0 -0.30427961069E+02 -0.14397236383E+02 -0.14086875389E+02  0.36490838419E+02  0.00000000000E+00 0. -1.
         22    1    1    2    0    0  0.18314373729E+03  0.21964527555E+03  0.12757722736E+04  0.13074328165E+04  0.00000000000E+00 0. -1.
<mgrwt>
<rscale>  0 0.88012726E+03</rscale>
<asrwt>0</asrwt>
<pdfrwt beam="1">  1        1 0.22865948E+00 0.88012726E+03</pdfrwt>
<pdfrwt beam="2">  1       -1 0.20045414E-01 0.88012726E+03</pdfrwt>
<totfact> 0.13759193E+02</totfact>
</mgrwt>
</event>
<event>
 6    1  0.1072514E-005  0.1764979E+04  0.7818608E-02  0.8725148E-01
          2   -1    0    0  501    0  0.00000000000E+00  0.00000000000E+00  0.19612017614E+04  0.19612017614E+04  0.00000000000E+00 0. -1.
         -2   -1    0    0    0  501 -0.00000000000E+00 -0.00000000000E+00 -0.39709705195E+03  0.39709705195E+03  0.00000000000E+00 0.  1.
         23    2    1    2    0    0  0.53509914866E+03  0.38005536345E+02  0.17164288972E+04  0.18006446392E+04  0.91746596911E+02 0.  0.
         11    1    3    3    0    0  0.27978264417E+03 -0.23912673693E+02  0.93284219286E+03  0.97418925303E+03  0.00000000000E+00 0. -1.
        -11    1    3    3    0    0  0.25531650449E+03  0.61918210038E+02  0.78358670431E+03  0.82645538620E+03  0.00000000000E+00 0.  1.
         22    1    1    2    0    0 -0.53509914866E+03 -0.38005536345E+02 -0.15232418776E+03  0.55765417408E+03  0.00000000000E+00 0.  1.
<mgrwt>
<rscale>  0 0.17649787E+04</rscale>
<asrwt>0</asrwt>
<pdfrwt beam="1">  1        2 0.30172334E+00 0.17649787E+04</pdfrwt>
<pdfrwt beam="2">  1       -2 0.61091855E-01 0.17649787E+04</pdfrwt>
<totfact> 0.16570020E+01</totfact>
</mgrwt>
</event>
<event>
 6    1  0.1072514E-005  0.2001900E+04  0.7818608E-02  0.8605733E-01
         -1   -1    0    0    0  501 -0.00000000000E+00  0.00000000000E+00  0.11269790587E+04  0.11269790587E+04  0.00000000000E+00 0.  1.
          1   -1    0    0  501    0  0.00000000000E+00 -0.00000000000E+00 -0.88901494854E+03  0.88901494854E+03  0.00000000000E+00 0. -1.
         23    2    1    2    0    0 -0.16369256964E+03 -0.50316762788E+03 -0.73390030741E+03  0.90942572409E+03  0.92046549718E+02 0.  0.
         13    1    3    3    0    0 -0.46154505425E+02 -0.28814133831E+03 -0.41133074344E+03  0.50432990166E+03  0.00000000000E+00 0.  1.
        -13    1    3    3    0    0 -0.11753806421E+03 -0.21502628957E+03 -0.32256956398E+03  0.40509582243E+03  0.00000000000E+00 0. -1.
         22    1    1    2    0    0  0.16369256964E+03  0.50316762788E+03  0.97186441758E+03  0.11065682831E+04  0.00000000000E+00 0.  1.
<mgrwt>
<rscale>  0 0.20019003E+04</rscale>
<asrwt>0</asrwt>
<pdfrwt beam="1">  1        1 0.13677153E+00 0.20019003E+04</pdfrwt>
<pdfrwt beam="2">  1       -1 0.17338139E+00 0.20019003E+04</pdfrwt>
<totfact> 0.40052293E+00</totfact>
</mgrwt>
</event>
<event>
 6    1  0.1072514E-005  0.3386020E+04  0.7818608E-02  0.8141346E-01
         -2   -1    0    0    0  501 -0.00000000000E+00  0.00000000000E+00  0.11661385468E+04  0.11661385468E+04  0.00000000000E+00 0.  1.
          2   -1    0    0  501    0  0.00000000000E+00 -0.00000000000E+00 -0.24579265634E+04  0.24579265634E+04  0.00000000000E+00 0. -1.
         23    2    1    2    0    0 -0.44551763116E+03  0.10497940007E+04 -0.19838311865E+04  0.22900946636E+04  0.91618711292E+02 0.  0.
         11    1    3    3    0    0 -0.25702881190E+02  0.12814490627E+03 -0.25191206820E+03  0.28379824737E+03  0.00000000000E+00 0. -1.
        -11    1    3    3    0    0 -0.41981474997E+03  0.92164909440E+03 -0.17319191183E+04  0.20062964162E+04  0.00000000000E+00 0.  1.
         22    1    1    2    0    0  0.44551763116E+03 -0.10497940007E+04  0.69204316990E+03  0.13339704466E+04  0.00000000000E+00 0.  1.
<mgrwt>
<rscale>  0 0.33860200E+04</rscale>
<asrwt>0</asrwt>
<pdfrwt beam="1">  1        2 0.37814254E+00 0.33860200E+04</pdfrwt>
<pdfrwt beam="2">  1       -2 0.17940593E+00 0.33860200E+04</pdfrwt>
<totfact> 0.55891397E-01</totfact>
</mgrwt>
</event>
<event>
 6    1  0.1072514E-005  0.8316508E+03  0.7818608E-02  0.9515301E-01
          2   -1    0    0  501    0  0.00000000000E+00  0.00000000000E+00  0.23625111347E+04  0.23625111347E+04  0.00000000000E+00 0. -1.
         -2   -1    0    0    0  501 -0.00000000000E+00 -0.00000000000E+00 -0.73189400623E+02  0.73189400623E+02  0.00000000000E+00 0.  1.
         23    2    1    2    0    0  0.23212627591E+02  0.83792798062E+02  0.23344025030E+04  0.23377600696E+04  0.90150087160E+02 0.  0.
         11    1    3    3    0    0 -0.51826210225E+01  0.94557790194E+02  0.17119429418E+04  0.17145601976E+04  0.00000000000E+00 0. -1.
        -11    1    3    3    0    0  0.28395248614E+02 -0.10764992132E+02  0.62245956118E+03  0.62319987204E+03  0.00000000000E+00 0.  1.
         22    1    1    2    0    0 -0.23212627591E+02 -0.83792798062E+02 -0.45080768923E+02  0.97940465659E+02  0.00000000000E+00 0.  1.
<mgrwt>
<rscale>  0 0.83165083E+03</rscale>
<asrwt>0</asrwt>
<pdfrwt beam="1">  1        2 0.36346319E+00 0.83165083E+03</pdfrwt>
<pdfrwt beam="2">  1       -2 0.11259910E-01 0.83165083E+03</pdfrwt>
<totfact> 0.24227217E+02</totfact>
</mgrwt>
</event>
<event>
 6    1  0.1072514E-005  0.2115658E+04  0.7818608E-02  0.8554377E-01
         -2   -1    0    0    0  501 -0.00000000000E+00  0.00000000000E+00  0.54993495225E+03  0.54993495225E+03  0.00000000000E+00 0.  1.
          2   -1    0    0  501    0  0.00000000000E+00 -0.00000000000E+00 -0.20347899858E+04  0.20347899858E+04  0.00000000000E+00 0. -1.
         23    2    1    2    0    0 -0.10511837833E+04 -0.87968611743E+02 -0.69034368371E+03  0.12641288196E+04  0.93388693183E+02 0.  0.
         13    1    3    3    0    0 -0.22048703726E+03 -0.51922029585E+02 -0.17057020376E+03  0.28355709331E+03  0.00000000000E+00 0. -1.
        -13    1    3    3    0    0 -0.83069674604E+03 -0.36046582158E+02 -0.51977347995E+03  0.98057172630E+03  0.00000000000E+00 0.  1.
         22    1    1    2    0    0  0.10511837833E+04  0.87968611743E+02 -0.79451134980E+03  0.13205961184E+04  0.00000000000E+00 0.  1.
<mgrwt>
<rscale>  0 0.21156579E+04</rscale>
<asrwt>0</asrwt>
<pdfrwt beam="1">  1        2 0.31304461E+00 0.21156579E+04</pdfrwt>
<pdfrwt beam="2">  1       -2 0.84605378E-01 0.21156579E+04</pdfrwt>
<totfact> 0.71607526E+00</totfact>
</mgrwt>
</event>
<event>
 6    1  0.1072514E-005  0.1010863E+04  0.7818608E-02  0.9296710E-01
          2   -1    0    0  501    0  0.00000000000E+00  0.00000000000E+00  0.56830341398E+03  0.56830341398E+03  0.00000000000E+00 0. -1.
         -2   -1    0    0    0  501 -0.00000000000E+00 -0.00000000000E+00 -0.44951536700E+03  0.44951536700E+03  0.00000000000E+00 0.  1.
         23    2    1    2    0    0  0.25054318270E+03 -0.41205342027E+03  0.19696882789E+03  0.52927795151E+03  0.93693773782E+02 0.  0.
         11    1    3    3    0    0  0.16663566724E+03 -0.34752075355E+03  0.15386470487E+03  0.41498489991E+03  0.00000000000E+00 0. -1.
        -11    1    3    3    0    0  0.83907515461E+02 -0.64532666715E+02  0.43104123017E+02  0.11429305160E+03  0.00000000000E+00 0.  1.
         22    1    1    2    0    0 -0.25054318270E+03  0.41205342027E+03 -0.78180780909E+02  0.48854082947E+03  0.00000000000E+00 0.  1.
<mgrwt>
<rscale>  0 0.10108632E+04</rscale>
<asrwt>0</asrwt>
<pdfrwt beam="1">  1        2 0.87431294E-01 0.10108632E+04</pdfrwt>
<pdfrwt beam="2">  1       -2 0.69156210E-01 0.10108632E+04</pdfrwt>
<totfact> 0.10091916E+02</totfact>
</mgrwt>
</event>
<event>
 6    1  0.1072514E-005  0.7796268E+03  0.7818608E-02  0.9589984E-01
         -2   -1    0    0    0  501 -0.00000000000E+00  0.00000000000E+00  0.92737989923E+02  0.92737989923E+02  0.00000000000E+00 0.  1.
          2   -1    0    0  501    0  0.00000000000E+00 -0.00000000000E+00 -0.16385355083E+04  0.16385355083E+04  0.00000000000E+00 0. -1.
         23    2    1    2    0    0 -0.31119760247E+03  0.63371262227E+02 -0.12645984090E+04  0.13070886284E+04  0.91715221207E+02 0.  0.
         11    1    3    3    0    0 -0.16940952222E+03  0.12456455551E+02 -0.82753778064E+03  0.84479200274E+03  0.00000000000E+00 0.  1.
        -11    1    3    3    0    0 -0.14178808025E+03  0.50914806676E+02 -0.43706062833E+03  0.46229662564E+03  0.00000000000E+00 0. -1.
         22    1    1    2    0    0  0.31119760247E+03 -0.63371262227E+02 -0.28119910936E+03  0.42418486980E+03  0.00000000000E+00 0.  1.
<mgrwt>
<rscale>  0 0.77962681E+03</rscale>
<asrwt>0</asrwt>
<pdfrwt beam="1">  1        2 0.25208239E+00 0.77962681E+03</pdfrwt>
<pdfrwt beam="2">  1       -2 0.14267383E-01 0.77962681E+03</pdfrwt>
<totfact> 0.41001484E+02</totfact>
</mgrwt>
</event>
<event>
 6    1  0.1072514E-005  0.1276072E+04  0.7818608E-02  0.9048759E-01
         -1   -1    0    0    0  501 -0.00000000000E+00  0.00000000000E+00  0.44556794110E+03  0.44556794110E+03  0.00000000000E+00 0.  1.
          1   -1    0    0  501    0  0.00000000000E+00 -0.00000000000E+00 -0.91364264800E+03  0.91364264800E+03  0.00000000000E+00 0. -1.
         23    2    1    2    0    0 -0.33408588734E+03  0.44739213435E+03 -0.55688243020E+03  0.79382584071E+03  0.90930315738E+02 0.  0.
         13    1    3    3    0    0 -0.19204817453E+03  0.20367464477E+03 -0.32268881617E+03  0.42719308789E+03  0.00000000000E+00 0. -1.
        -13    1    3    3    0    0 -0.14203771281E+03  0.24371748958E+03 -0.23419361403E+03  0.36663275282E+03  0.00000000000E+00 0.  1.
         22    1    1    2    0    0  0.33408588734E+03 -0.44739213435E+03  0.88807723299E+02  0.56538474839E+03  0.00000000000E+00 0.  1.
<mgrwt>
<rscale>  0 0.12760719E+04</rscale>
<asrwt>0</asrwt>
<pdfrwt beam="1">  1        1 0.14056041E+00 0.12760719E+04</pdfrwt>
<pdfrwt beam="2">  1       -1 0.68548914E-01 0.12760719E+04</pdfrwt>
<totfact> 0.37604889E+01</totfact>
</mgrwt>
</event>
<event>
 6    1  0.1072514E-005  0.2297532E+04  0.7818608E-02  0.8478895E-01
         -1   -1    0    0    0  501 -0.00000000000E+00  0.00000000000E+00  0.88412050187E+03  0.88412050187E+03  0.00000000000E+00 0.  1.
          1   -1    0    0  501    0  0.00000000000E+00 -0.00000000000E+00 -0.14926286390E+04  0.14926286390E+04  0.00000000000E+00 0. -1.
         23    2    1    2    0    0 -0.33876803657E+03 -0.92665492320E+03  0.30034336478E+03  0.10353080569E+04  0.90573211199E+02 0.  0.
         11    1    3    3    0    0 -0.12620410444E+03 -0.45744021258E+03  0.16881192937E+03  0.50366307345E+03  0.00000000000E+00 0. -1.
        -11    1    3    3    0    0 -0.21256393213E+03 -0.46921471063E+03  0.13153143542E+03  0.53164498344E+03  0.00000000000E+00 0.  1.
         22    1    1    2    0    0  0.33876803657E+03  0.92665492320E+03 -0.90885150192E+03  0.13414410840E+04  0.00000000000E+00 0. -1.
<mgrwt>
<rscale>  0 0.22975322E+04</rscale>
<asrwt>0</asrwt>
<pdfrwt beam="1">  1        1 0.22963518E+00 0.22975322E+04</pdfrwt>
<pdfrwt beam="2">  1       -1 0.13601854E+00 0.22975322E+04</pdfrwt>
<totfact> 0.27039069E+00</totfact>
</mgrwt>
</event>
<event>
 6    1  0.1072514E-005  0.2650947E+04  0.7818608E-02  0.8351099E-01
          2   -1    0    0  501    0  0.00000000000E+00  0.00000000000E+00  0.23789963760E+04  0.23789963760E+04  0.00000000000E+00 0. -1.
         -2   -1    0    0    0  501 -0.00000000000E+00 -0.00000000000E+00 -0.73849635275E+03  0.73849635275E+03  0.00000000000E+00 0.  1.
         23    2    1    2    0    0 -0.46659289850E+03  0.39574610892E+03  0.22018967162E+04  0.22871372852E+04  0.91235393969E+02 0.  0.
         11    1    3    3    0    0 -0.87076728613E+02  0.12268523510E+03  0.49396676811E+03  0.51636923957E+03  0.00000000000E+00 0.  1.
        -11    1    3    3    0    0 -0.37951616989E+03  0.27306087382E+03  0.17079299481E+04  0.17707680457E+04  0.00000000000E+00 0. -1.
         22    1    1    2    0    0  0.46659289850E+03 -0.39574610892E+03 -0.56139669297E+03  0.83035544349E+03  0.00000000000E+00 0.  1.
<mgrwt>
<rscale>  0 0.26509471E+04</rscale>
<asrwt>0</asrwt>
<pdfrwt beam="1">  1        2 0.36599944E+00 0.26509471E+04</pdfrwt>
<pdfrwt beam="2">  1       -2 0.11361482E+00 0.26509471E+04</pdfrwt>
<totfact> 0.21861644E+00</totfact>
</mgrwt>
</event>
<event>
 6    1  0.1072514E-005  0.3636013E+04  0.7818608E-02  0.8082292E-01
          2   -1    0    0  501    0  0.00000000000E+00  0.00000000000E+00  0.16501386864E+04  0.16501386864E+04  0.00000000000E+00 0. -1.
         -2   -1    0    0    0  501 -0.00000000000E+00 -0.00000000000E+00 -0.20029509967E+04  0.20029509967E+04  0.00000000000E+00 0.  1.
         23    2    1    2    0    0  0.78096988751E+03 -0.29285627383E+03 -0.17982016284E+04  0.19843089775E+04  0.90962957737E+02 0.  0.
         11    1    3    3    0    0  0.15120958260E+03 -0.53975074064E+02 -0.26769797977E+03  0.31215357577E+03  0.00000000000E+00 0.  1.
        -11    1    3    3    0    0  0.62976030491E+03 -0.23888119977E+03 -0.15305036486E+04  0.16721554018E+04  0.00000000000E+00 0. -1.
         22    1    1    2    0    0 -0.78096988751E+03  0.29285627383E+03  0.14453893181E+04  0.16687807055E+04  0.00000000000E+00 0. -1.
<mgrwt>
<rscale>  0 0.36360126E+04</rscale>
<asrwt>0</asrwt>
<pdfrwt beam="1">  1        2 0.25386749E+00 0.36360126E+04</pdfrwt>
<pdfrwt beam="2">  1       -2 0.30814631E+00 0.36360126E+04</pdfrwt>
<totfact> 0.24065885E-01</totfact>
</mgrwt>
</event>
<event>
 6    1  0.1072514E-005  0.1807514E+04  0.7818608E-02  0.8702314E-01
          2   -1    0    0  501    0  0.00000000000E+00  0.00000000000E+00  0.76683893742E+03  0.76683893742E+03  0.00000000000E+00 0. -1.
         -2   -1    0    0    0  501 -0.00000000000E+00 -0.00000000000E+00 -0.10651220081E+04  0.10651220081E+04  0.00000000000E+00 0.  1.
         23    2    1    2    0    0 -0.18123384134E+03  0.17262764022E+03 -0.10272445694E+04  0.10612269614E+04  0.91242812487E+02 0.  0.
         11    1    3    3    0    0 -0.13883806782E+03  0.72950795834E+02 -0.55626453615E+03  0.57795160859E+03  0.00000000000E+00 0. -1.
        -11    1    3    3    0    0 -0.42395773518E+02  0.99676844382E+02 -0.47098003328E+03  0.48327535285E+03  0.00000000000E+00 0.  1.
         22    1    1    2    0    0  0.18123384134E+03 -0.17262764022E+03  0.72896149880E+03  0.77073398404E+03  0.00000000000E+00 0. -1.
<mgrwt>
<rscale>  0 0.18075143E+04</rscale>
<asrwt>0</asrwt>
<pdfrwt beam="1">  1        2 0.11797522E+00 0.18075143E+04</pdfrwt>
<pdfrwt beam="2">  1       -2 0.16386492E+00 0.18075143E+04</pdfrwt>
<totfact> 0.81057714E+00</totfact>
</mgrwt>
</event>
<event>
 6    1  0.1072514E-005  0.7827323E+03  0.7818608E-02  0.9585353E-01
         -1   -1    0    0    0  501 -0.00000000000E+00  0.00000000000E+00  0.21480858387E+03  0.21480858387E+03  0.00000000000E+00 0.  1.
          1   -1    0    0  501    0  0.00000000000E+00 -0.00000000000E+00 -0.71304164443E+03  0.71304164443E+03  0.00000000000E+00 0. -1.
         23    2    1    2    0    0 -0.25582345105E+02  0.14833487811E+03 -0.67372229629E+03  0.69664866191E+03  0.93594514683E+02 0.  0.
         11    1    3    3    0    0 -0.40785457924E+02  0.25920870121E+02 -0.27724360015E+03  0.28142380658E+03  0.00000000000E+00 0.  1.
        -11    1    3    3    0    0  0.15203112819E+02  0.12241400799E+03 -0.39647869613E+03  0.41522485533E+03  0.00000000000E+00 0. -1.
         22    1    1    2    0    0  0.25582345105E+02 -0.14833487811E+03  0.17548923572E+03  0.23120156639E+03  0.00000000000E+00 0.  1.
<mgrwt>
<rscale>  0 0.78273231E+03</rscale>
<asrwt>0</asrwt>
<pdfrwt beam="1">  1        1 0.10969872E+00 0.78273231E+03</pdfrwt>
<pdfrwt beam="2">  1       -1 0.33047474E-01 0.78273231E+03</pdfrwt>
<totfact> 0.23010504E+02</totfact>
</mgrwt>
</event>
<event>
 6    1  0.1072514E-005  0.4217259E+04  0.7818608E-02  0.7962097E-01
          2   -1    0    0  501    0  0.00000000000E+00  0.00000000000E+00  0.27122909049E+04  0.27122909049E+04  0.00000000000E+00 0. -1.
         -2   -1    0    0    0  501 -0.00000000000E+00 -0.00000000000E+00 -0.16393218387E+04  0.16393218387E+04  0.00000000000E+00 0.  1.
         23    2    1    2    0    0 -0.10229774279E+04  0.17889405669E+04  0.80631858775E+02  0.20643601770E+04  0.91050939880E+02 0.  0.
         13    1    3    3    0    0 -0.39787032904E+03  0.78353069524E+03  0.22957988249E+02  0.87906098670E+03  0.00000000000E+00 0. -1.
        -13    1    3    3    0    0 -0.62510709889E+03  0.10054098717E+04  0.57673870526E+02  0.11852991903E+04  0.00000000000E+00 0.  1.
         22    1    1    2    0    0  0.10229774279E+04 -0.17889405669E+04  0.99233720742E+03  0.22872525666E+04  0.00000000000E+00 0. -1.
<mgrwt>
<rscale>  0 0.42172587E+04</rscale>
<asrwt>0</asrwt>
<pdfrwt beam="1">  1        2 0.41727553E+00 0.42172587E+04</pdfrwt>
<pdfrwt beam="2">  1       -2 0.25220336E+00 0.42172587E+04</pdfrwt>
<totfact> 0.12605346E-01</totfact>
</mgrwt>
</event>
<event>
 6    1  0.1072514E-005  0.1988300E+04  0.7818608E-02  0.8612110E-01
         -2   -1    0    0    0  501 -0.00000000000E+00  0.00000000000E+00  0.67653219856E+03  0.67653219856E+03  0.00000000000E+00 0.  1.
          2   -1    0    0  501    0  0.00000000000E+00 -0.00000000000E+00 -0.14608829579E+04  0.14608829579E+04  0.00000000000E+00 0. -1.
         23    2    1    2    0    0  0.38773254719E+03 -0.60441785565E+03  0.34288357868E+03  0.80088430191E+03  0.90493337474E+02 0.  0.
         13    1    3    3    0    0  0.30719819885E+03 -0.53683714950E+03  0.29819401424E+03  0.68664731019E+03  0.00000000000E+00 0.  1.
        -13    1    3    3    0    0  0.80534348342E+02 -0.67580706152E+02  0.44689564444E+02  0.11423699172E+03  0.00000000000E+00 0. -1.
         22    1    1    2    0    0 -0.38773254719E+03  0.60441785565E+03 -0.11272343381E+04  0.13365308546E+04  0.00000000000E+00 0. -1.
<mgrwt>
<rscale>  0 0.19883001E+04</rscale>
<asrwt>0</asrwt>
<pdfrwt beam="1">  1        2 0.22475122E+00 0.19883001E+04</pdfrwt>
<pdfrwt beam="2">  1       -2 0.10408188E+00 0.19883001E+04</pdfrwt>
<totfact> 0.93274416E+00</totfact>
</mgrwt>
</event>
<event>
 6    1  0.1072514E-005  0.5779755E+03  0.7818608E-02  0.9952184E-01
          2   -1    0    0  501    0  0.00000000000E+00  0.00000000000E+00  0.70284353683E+03  0.70284353683E+03  0.00000000000E+00 0. -1.
         -2   -1    0    0    0  501 -0.00000000000E+00 -0.00000000000E+00 -0.11882291933E+03  0.11882291933E+03  0.00000000000E+00 0.  1.
         23    2    1    2    0    0 -0.21930882380E+03  0.50528889533E+02  0.54070358052E+03  0.59248117180E+03  0.89577051071E+02 0.  0.
         13    1    3    3    0    0 -0.13599516674E+03  0.75061571022E+02  0.35199438372E+03  0.38474533264E+03  0.00000000000E+00 0. -1.
        -13    1    3    3    0    0 -0.83313657060E+02 -0.24532681489E+02  0.18870919679E+03  0.20773583915E+03  0.00000000000E+00 0.  1.
         22    1    1    2    0    0  0.21930882380E+03 -0.50528889533E+02  0.43317036993E+02  0.22918528436E+03  0.00000000000E+00 0.  1.
<mgrwt>
<rscale>  0 0.57797550E+03</rscale>
<asrwt>0</asrwt>
<pdfrwt beam="1">  1        2 0.10812977E+00 0.57797550E+03</pdfrwt>
<pdfrwt beam="2">  1       -2 0.18280450E-01 0.57797550E+03</pdfrwt>
<totfact> 0.10219263E+03</totfact>
</mgrwt>
</event>
<event>
 6    1  0.1072514E-005  0.2776339E+04  0.7818608E-02  0.8310652E-01
         -2   -1    0    0    0  501 -0.00000000000E+00  0.00000000000E+00  0.18173178808E+04  0.18173178808E+04  0.00000000000E+00 0.  1.
          2   -1    0    0  501    0  0.00000000000E+00 -0.00000000000E+00 -0.10603617280E+04  0.10603617280E+04  0.00000000000E+00 0. -1.
         23    2    1    2    0    0  0.29358461885E+02  0.13145723170E+04 -0.77301178576E+02  0.13204552862E+04  0.93082730741E+02 0.  0.
         11    1    3    3    0    0  0.42973337248E+02  0.31150405096E+03 -0.35102798699E+02  0.31640747140E+03  0.00000000000E+00 0. -1.
        -11    1    3    3    0    0 -0.13614875363E+02  0.10030682660E+04 -0.42198379878E+02  0.10040478148E+04  0.00000000000E+00 0.  1.
         22    1    1    2    0    0 -0.29358461885E+02 -0.13145723170E+04  0.83425733141E+03  0.15572243226E+04  0.00000000000E+00 0. -1.
<mgrwt>
<rscale>  0 0.27763388E+04</rscale>
<asrwt>0</asrwt>
<pdfrwt beam="1">  1        2 0.16313257E+00 0.27763388E+04</pdfrwt>
<pdfrwt beam="2">  1       -2 0.27958737E+00 0.27763388E+04</pdfrwt>
<totfact> 0.85155280E-01</totfact>
</mgrwt>
</event>
<event>
 6    1  0.1072514E-005  0.1091390E+04  0.7818608E-02  0.9213625E-01
         -2   -1    0    0    0  501 -0.00000000000E+00  0.00000000000E+00  0.24978423391E+03  0.24978423391E+03  0.00000000000E+00 0.  1.
          2   -1    0    0  501    0  0.00000000000E+00 -0.00000000000E+00 -0.11921600458E+04  0.11921600458E+04  0.00000000000E+00 0. -1.
         23    2    1    2    0    0 -0.15176444284E+03  0.37619815853E+03 -0.94965511643E+03  0.10362220979E+04  0.85754856389E+02 0.  0.
         13    1    3    3    0    0 -0.14205781926E+03  0.29678366491E+03 -0.68839922159E+03  0.76299046917E+03  0.00000000000E+00 0. -1.
        -13    1    3    3    0    0 -0.97066235850E+01  0.79414493618E+02 -0.26125589485E+03  0.27323162871E+03  0.00000000000E+00 0.  1.
         22    1    1    2    0    0  0.15176444284E+03 -0.37619815853E+03  0.72793045025E+01  0.40572218187E+03  0.00000000000E+00 0.  1.
<mgrwt>
<rscale>  0 0.10913895E+04</rscale>
<asrwt>0</asrwt>
<pdfrwt beam="1">  1        2 0.18340924E+00 0.10913895E+04</pdfrwt>
<pdfrwt beam="2">  1       -2 0.38428343E-01 0.10913895E+04</pdfrwt>
<totfact> 0.12154295E+02</totfact>
</mgrwt>
</event>
<event>
 6    1  0.1072514E-005  0.9490281E+03  0.7818608E-02  0.9366287E-01
          2   -1    0    0  501    0  0.00000000000E+00  0.00000000000E+00  0.13895078165E+04  0.13895078165E+04  0.00000000000E+00 0. -1.
         -2   -1    0    0    0  501 -0.00000000000E+00 -0.00000000000E+00 -0.16204557422E+03  0.16204557422E+03  0.00000000000E+00 0.  1.
         23    2    1    2    0    0 -0.12098596227E+03 -0.37840474978E+03  0.10299419050E+04  0.11078845487E+04  0.93808783612E+02 0.  0.
         11    1    3    3    0    0 -0.23926025013E+02 -0.11431578117E+02  0.99937708420E+02  0.10339575047E+03  0.00000000000E+00 0. -1.
        -11    1    3    3    0    0 -0.97059937259E+02 -0.36697317166E+03  0.93000419657E+03  0.10044887982E+04  0.00000000000E+00 0.  1.
         22    1    1    2    0    0  0.12098596227E+03  0.37840474978E+03  0.19752033725E+03  0.44366884198E+03  0.00000000000E+00 0.  1.
<mgrwt>
<rscale>  0 0.94902812E+03</rscale>
<asrwt>0</asrwt>
<pdfrwt beam="1">  1        2 0.21377043E+00 0.94902812E+03</pdfrwt>
<pdfrwt beam="2">  1       -2 0.24930089E-01 0.94902812E+03</pdfrwt>
<totfact> 0.21148002E+02</totfact>
</mgrwt>
</event>
<event>
 6    1  0.1072514E-005  0.4971516E+04  0.7818608E-02  0.7832916E-01
         -2   -1    0    0    0  501 -0.00000000000E+00  0.00000000000E+00  0.24889349474E+04  0.24889349474E+04  0.00000000000E+00 0.  1.
          2   -1    0    0  501    0  0.00000000000E+00 -0.00000000000E+00 -0.24825855957E+04  0.24825855957E+04  0.00000000000E+00 0. -1.
         23    2    1    2    0    0  0.88829359001E+03  0.22876072419E+04 -0.38706147611E+03  0.24861665493E+04  0.94842656605E+02 0.  0.
         13    1    3    3    0    0  0.48505815835E+03  0.12059856010E+04 -0.15975677376E+03  0.13096583194E+04  0.00000000000E+00 0. -1.
        -13    1    3    3    0    0  0.40323543166E+03  0.10816216409E+04 -0.22730470236E+03  0.11765082299E+04  0.00000000000E+00 0.  1.
         22    1    1    2    0    0 -0.88829359001E+03 -0.22876072419E+04  0.39341082778E+03  0.24853539938E+04  0.00000000000E+00 0. -1.
<mgrwt>
<rscale>  0 0.49715165E+04</rscale>
<asrwt>0</asrwt>
<pdfrwt beam="1">  1        2 0.38193624E+00 0.49715165E+04</pdfrwt>
<pdfrwt beam="2">  1       -2 0.38291307E+00 0.49715165E+04</pdfrwt>
<totfact> 0.24934954E-02</totfact>
</mgrwt>
</event>
<event>
 6    1  0.1072514E-005  0.1293390E+04  0.7818608E-02  0.9034824E-01
         -3   -1    0    0    0  501 -0.00000000000E+00  0.00000000000E+00  0.34765786529E+03  0.34765786529E+03  0.00000000000E+00 0.  1.
          3   -1    0    0  501    0  0.00000000000E+00 -0.00000000000E+00 -0.12029478270E+04  0.12029478270E+04  0.00000000000E+00 0. -1.
         23    2    1    2    0    0 -0.44540257885E+03  0.44009255037E+03 -0.60764194369E+03  0.87725997797E+03  0.91057273645E+02 0.  0.
         11    1    3    3    0    0 -0.13448176658E+03  0.16611292169E+03 -0.25822717982E+03  0.33520161797E+03  0.00000000000E+00 0. -1.
        -11    1    3    3    0    0 -0.31092081227E+03  0.27397962868E+03 -0.34941476387E+03  0.54205836000E+03  0.00000000000E+00 0.  1.
         22    1    1    2    0    0  0.44540257885E+03 -0.44009255037E+03 -0.24764801800E+03  0.67334571429E+03  0.00000000000E+00 0.  1.
<mgrwt>
<rscale>  0 0.12933898E+04</rscale>
<asrwt>0</asrwt>
<pdfrwt beam="1">  1        3 0.18506890E+00 0.12933898E+04</pdfrwt>
<pdfrwt beam="2">  1       -3 0.53485826E-01 0.12933898E+04</pdfrwt>
<totfact> 0.16322438E+00</totfact>
</mgrwt>
</event>
<event>
 6    1  0.1072514E-005  0.4208750E+04  0.7818608E-02  0.7963710E-01
         -3   -1    0    0    0  501 -0.00000000000E+00  0.00000000000E+00  0.25254291429E+04  0.25254291429E+04  0.00000000000E+00 0.  1.
          3   -1    0    0  501    0  0.00000000000E+00 -0.00000000000E+00 -0.17535215443E+04  0.17535215443E+04  0.00000000000E+00 0. -1.
         23    2    1    2    0    0  0.11531318009E+04  0.85767060468E+02 -0.14001301017E+04  0.18182969710E+04  0.93651663938E+02 0.  0.
         13    1    3    3    0    0  0.99607981023E+03  0.96874561491E+02 -0.12436741226E+04  0.15963348622E+04  0.00000000000E+00 0. -1.
        -13    1    3    3    0    0  0.15705199072E+03 -0.11107501023E+02 -0.15645597913E+03  0.22196210887E+03  0.00000000000E+00 0.  1.
         22    1    1    2    0    0 -0.11531318009E+04 -0.85767060468E+02  0.21720377004E+04  0.24606537162E+04  0.00000000000E+00 0.  1.
<mgrwt>
<rscale>  0 0.42087501E+04</rscale>
<asrwt>0</asrwt>
<pdfrwt beam="1">  1        3 0.26977255E+00 0.42087501E+04</pdfrwt>
<pdfrwt beam="2">  1       -3 0.38852756E+00 0.42087501E+04</pdfrwt>
<totfact> 0.13909596E-03</totfact>
</mgrwt>
</event>
<event>
 6    1  0.1072514E-005  0.9875375E+03  0.7818608E-02  0.9322320E-01
          1   -1    0    0  501    0  0.00000000000E+00  0.00000000000E+00  0.92298183938E+03  0.92298183938E+03  0.00000000000E+00 0.  1.
         -1   -1    0    0    0  501 -0.00000000000E+00 -0.00000000000E+00 -0.26415207635E+03  0.26415207635E+03  0.00000000000E+00 0. -1.
         23    2    1    2    0    0 -0.26253946175E+03 -0.26587897749E+03  0.71270422850E+03  0.80961430342E+03  0.88934826385E+02 0.  0.
         11    1    3    3    0    0 -0.11557321725E+03 -0.11143425997E+03  0.40129473360E+03  0.43221779933E+03  0.00000000000E+00 0. -1.
        -11    1    3    3    0    0 -0.14696624450E+03 -0.15444471751E+03  0.31140949490E+03  0.37739650409E+03  0.00000000000E+00 0.  1.
         22    1    1    2    0    0  0.26253946175E+03  0.26587897749E+03 -0.53874465476E+02  0.37751961231E+03  0.00000000000E+00 0. -1.
<mgrwt>
<rscale>  0 0.98753748E+03</rscale>
<asrwt>0</asrwt>
<pdfrwt beam="1">  1        1 0.14199720E+00 0.98753748E+03</pdfrwt>
<pdfrwt beam="2">  1       -1 0.40638782E-01 0.98753748E+03</pdfrwt>
<totfact> 0.10335038E+02</totfact>
</mgrwt>
</event>
<event>
 6    1  0.1072514E-005  0.7822437E+03  0.7818608E-02  0.9586080E-01
         -2   -1    0    0    0  501 -0.00000000000E+00  0.00000000000E+00  0.76593433656E+02  0.76593433656E+02  0.00000000000E+00 0.  1.
          2   -1    0    0  501    0  0.00000000000E+00 -0.00000000000E+00 -0.19972507685E+04  0.19972507685E+04  0.00000000000E+00 0. -1.
         23    2    1    2    0    0  0.25528042651E+03 -0.28785065652E+03 -0.89546503987E+03  0.97883491530E+03  0.90741705769E+02 0.  0.
         11    1    3    3    0    0  0.25643539196E+03 -0.26031541113E+03 -0.85568681943E+03  0.93044245199E+03  0.00000000000E+00 0. -1.
        -11    1    3    3    0    0 -0.11549654524E+01 -0.27535245387E+02 -0.39778220440E+02  0.48392463309E+02  0.00000000000E+00 0.  1.
         22    1    1    2    0    0 -0.25528042651E+03  0.28785065652E+03 -0.10251922949E+04  0.10950092868E+04  0.00000000000E+00 0. -1.
<mgrwt>
<rscale>  0 0.78224368E+03</rscale>
<asrwt>0</asrwt>
<pdfrwt beam="1">  1        2 0.30726930E+00 0.78224368E+03</pdfrwt>
<pdfrwt beam="2">  1       -2 0.11783607E-01 0.78224368E+03</pdfrwt>
<totfact> 0.35905311E+02</totfact>
</mgrwt>
</event>
<event>
 6    1  0.2959537E-005  0.3436853E+04  0.7818608E-02  0.8128920E-01
          1   -1    0    0  501    0  0.00000000000E+00  0.00000000000E+00  0.15844493915E+04  0.15844493915E+04  0.00000000000E+00 0. -1.
         -1   -1    0    0    0  501 -0.00000000000E+00 -0.00000000000E+00 -0.18637328656E+04  0.18637328656E+04  0.00000000000E+00 0.  1.
         23    2    1    2    0    0 -0.46720937709E+03 -0.81959649944E+03  0.12998549951E+04  0.16086982727E+04  0.90907098155E+02 0.  0.
         11    1    3    3    0    0 -0.19149968979E+03 -0.26583068921E+03  0.40695635798E+03  0.52244766610E+03  0.00000000000E+00 0. -1.
        -11    1    3    3    0    0 -0.27570968730E+03 -0.55376581023E+03  0.89289863710E+03  0.10862506066E+04  0.00000000000E+00 0.  1.
         22    1    1    2    0    0  0.46720937709E+03  0.81959649944E+03 -0.15791384692E+04  0.18394839844E+04  0.00000000000E+00 0.  1.
<mgrwt>
<rscale>  0 0.34368534E+04</rscale>
<asrwt>0</asrwt>
<pdfrwt beam="1">  1        1 0.24376144E+00 0.34368534E+04</pdfrwt>
<pdfrwt beam="2">  1       -1 0.28672813E+00 0.34368534E+04</pdfrwt>
<totfact> 0.18882596E-01</totfact>
</mgrwt>
</event>
<event>
 6    1  0.1072514E-005  0.1182206E+04  0.7818608E-02  0.9128576E-01
          2   -1    0    0  501    0  0.00000000000E+00  0.00000000000E+00  0.41247796393E+04  0.41247796393E+04  0.00000000000E+00 0. -1.
         -2   -1    0    0    0  501 -0.00000000000E+00 -0.00000000000E+00 -0.84708225811E+02  0.84708225811E+02  0.00000000000E+00 0.  1.
         23    2    1    2    0    0  0.11534535819E+03  0.17727319071E+03  0.39840935580E+04  0.39907097672E+04  0.89624949199E+02 0.  0.
         13    1    3    3    0    0  0.62015295786E+02  0.32137769955E+02  0.16670907300E+04  0.16685533360E+04  0.00000000000E+00 0.  1.
        -13    1    3    3    0    0  0.53330062403E+02  0.14513542076E+03  0.23170028280E+04  0.23221564312E+04  0.00000000000E+00 0. -1.
         22    1    1    2    0    0 -0.11534535819E+03 -0.17727319071E+03  0.55977855463E+02  0.21877809786E+03  0.00000000000E+00 0.  1.
<mgrwt>
<rscale>  0 0.11822060E+04</rscale>
<asrwt>0</asrwt>
<pdfrwt beam="1">  1        2 0.63458133E+00 0.11822060E+04</pdfrwt>
<pdfrwt beam="2">  1       -2 0.13032038E-01 0.11822060E+04</pdfrwt>
<totfact> 0.12406532E+01</totfact>
</mgrwt>
</event>
<event>
 6    1  0.1072514E-005  0.5939932E+03  0.7818608E-02  0.9917947E-01
         -2   -1    0    0    0  501 -0.00000000000E+00  0.00000000000E+00  0.17654200695E+03  0.17654200695E+03  0.00000000000E+00 0.  1.
          2   -1    0    0  501    0  0.00000000000E+00 -0.00000000000E+00 -0.49963740286E+03  0.49963740286E+03  0.00000000000E+00 0. -1.
         23    2    1    2    0    0  0.26293112410E+03  0.40216996329E+02 -0.29640756743E+03  0.40885484490E+03  0.92491379893E+02 0.  0.
         11    1    3    3    0    0  0.14688328932E+03  0.20721407420E+02 -0.23014241361E+03  0.27380578509E+03  0.00000000000E+00 0.  1.
        -11    1    3    3    0    0  0.11604783479E+03  0.19495588908E+02 -0.66265153820E+02  0.13504905982E+03  0.00000000000E+00 0. -1.
         22    1    1    2    0    0 -0.26293112410E+03 -0.40216996329E+02 -0.26687828482E+02  0.26732456491E+03  0.00000000000E+00 0. -1.
<mgrwt>
<rscale>  0 0.59399323E+03</rscale>
<asrwt>0</asrwt>
<pdfrwt beam="1">  1        2 0.76867292E-01 0.59399323E+03</pdfrwt>
<pdfrwt beam="2">  1       -2 0.27160309E-01 0.59399323E+03</pdfrwt>
<totfact> 0.76326281E+02</totfact>
</mgrwt>
</event>
<event>
 6    1  0.1072514E-005  0.3006134E+04  0.7818608E-02  0.8241981E-01
         -1   -1    0    0    0  501 -0.00000000000E+00  0.00000000000E+00  0.70506186704E+03  0.70506186704E+03  0.00000000000E+00 0.  1.
          1   -1    0    0  501    0  0.00000000000E+00 -0.00000000000E+00 -0.32042728581E+04  0.32042728581E+04  0.00000000000E+00 0. -1.
         23    2    1    2    0    0 -0.13433828443E+04  0.24731830703E+03 -0.43946529618E+03  0.14378177540E+04  0.91358282480E+02 0.  0.
         13    1    3    3    0    0 -0.12987919157E+04  0.22380619938E+03 -0.43155394594E+03  0.13867907065E+04  0.00000000000E+00 0. -1.
        -13    1    3    3    0    0 -0.44590928529E+02  0.23512107657E+02 -0.79113502416E+01  0.51027047496E+02  0.00000000000E+00 0.  1.
         22    1    1    2    0    0  0.13433828443E+04 -0.24731830703E+03 -0.20597456949E+04  0.24715169712E+04  0.00000000000E+00 0. -1.
<mgrwt>
<rscale>  0 0.30061341E+04</rscale>
<asrwt>0</asrwt>
<pdfrwt beam="1">  1        1 0.49296504E+00 0.30061341E+04</pdfrwt>
<pdfrwt beam="2">  1       -1 0.10847106E+00 0.30061341E+04</pdfrwt>
<totfact> 0.28288450E-01</totfact>
</mgrwt>
</event>
<event>
 6    1  0.1072514E-005  0.5682745E+04  0.7818608E-02  0.7731032E-01
         -2   -1    0    0    0  501 -0.00000000000E+00  0.00000000000E+00  0.31777396442E+04  0.31777396442E+04  0.00000000000E+00 0.  1.
          2   -1    0    0  501    0  0.00000000000E+00 -0.00000000000E+00 -0.25406101175E+04  0.25406101175E+04  0.00000000000E+00 0. -1.
         23    2    1    2    0    0 -0.27918775450E+04 -0.50931786075E+03  0.19353020337E+03  0.28459352252E+04  0.88929503379E+02 0.  0.
         11    1    3    3    0    0 -0.22975326822E+04 -0.45348623110E+03  0.15989135486E+03  0.23473115329E+04  0.00000000000E+00 0. -1.
        -11    1    3    3    0    0 -0.49434486289E+03 -0.55831629646E+02  0.33638848513E+02  0.49862369224E+03  0.00000000000E+00 0.  1.
         22    1    1    2    0    0  0.27918775450E+04  0.50931786075E+03  0.44359932329E+03  0.28724145365E+04  0.00000000000E+00 0.  1.
<mgrwt>
<rscale>  0 0.56827449E+04</rscale>
<asrwt>0</asrwt>
<pdfrwt beam="1">  1        2 0.39086310E+00 0.56827449E+04</pdfrwt>
<pdfrwt beam="2">  1       -2 0.48888302E+00 0.56827449E+04</pdfrwt>
<totfact> 0.44442119E-03</totfact>
</mgrwt>
</event>
<event>
 6    1  0.1072514E-005  0.1000240E+04  0.7818608E-02  0.9308282E-01
         -2   -1    0    0    0  501 -0.00000000000E+00  0.00000000000E+00  0.24275562132E+03  0.24275562132E+03  0.00000000000E+00 0.  1.
          2   -1    0    0  501    0  0.00000000000E+00 -0.00000000000E+00 -0.10303360264E+04  0.10303360264E+04  0.00000000000E+00 0. -1.
         23    2    1    2    0    0  0.14882300666E+02 -0.48239415694E+02 -0.10250137586E+04  0.10303507952E+04  0.91766179823E+02 0.  0.
         13    1    3    3    0    0  0.46341604239E+02 -0.26031300284E+01 -0.34983152857E+03  0.35289717901E+03  0.00000000000E+00 0. -1.
        -13    1    3    3    0    0 -0.31459303573E+02 -0.45636285666E+02 -0.67518223006E+03  0.67745361623E+03  0.00000000000E+00 0.  1.
         22    1    1    2    0    0 -0.14882300666E+02  0.48239415694E+02  0.23743335354E+03  0.24274085250E+03  0.00000000000E+00 0.  1.
<mgrwt>
<rscale>  0 0.10002397E+04</rscale>
<asrwt>0</asrwt>
<pdfrwt beam="1">  1        2 0.15851324E+00 0.10002397E+04</pdfrwt>
<pdfrwt beam="2">  1       -2 0.37347018E-01 0.10002397E+04</pdfrwt>
<totfact> 0.16240582E+02</totfact>
</mgrwt>
</event>
<event>
 6    1  0.1072514E-005  0.2466933E+04  0.7818608E-02  0.8414861E-01
          1   -1    0    0  501    0  0.00000000000E+00  0.00000000000E+00  0.76734073015E+03  0.76734073015E+03  0.00000000000E+00 0. -1.
         -1   -1    0    0    0  501 -0.00000000000E+00 -0.00000000000E+00 -0.19827437721E+04  0.19827437721E+04  0.00000000000E+00 0.  1.
         23    2    1    2    0    0 -0.10883763944E+04 -0.55353795271E+03 -0.78860887578E+03  0.14565928319E+04  0.93761814364E+02 0.  0.
         13    1    3    3    0    0 -0.39743493310E+03 -0.18373273572E+03 -0.33304426875E+03  0.55011883186E+03  0.00000000000E+00 0. -1.
        -13    1    3    3    0    0 -0.69094146133E+03 -0.36980521699E+03 -0.45556460703E+03  0.90647400000E+03  0.00000000000E+00 0.  1.
         22    1    1    2    0    0  0.10883763944E+04  0.55353795271E+03 -0.42679416616E+03  0.12934916704E+04  0.00000000000E+00 0. -1.
<mgrwt>
<rscale>  0 0.24669334E+04</rscale>
<asrwt>0</asrwt>
<pdfrwt beam="1">  1        1 0.11805242E+00 0.24669334E+04</pdfrwt>
<pdfrwt beam="2">  1       -1 0.30503751E+00 0.24669334E+04</pdfrwt>
<totfact> 0.64490910E-01</totfact>
</mgrwt>
</event>
<event>
 6    1  0.1072514E-005  0.3421063E+03  0.7818608E-02  0.1065902E+00
          1   -1    0    0  501    0  0.00000000000E+00  0.00000000000E+00  0.58789357876E+03  0.58789357876E+03  0.00000000000E+00 0. -1.
         -1   -1    0    0    0  501 -0.00000000000E+00 -0.00000000000E+00 -0.49769504014E+02  0.49769504014E+02  0.00000000000E+00 0.  1.
         23    2    1    2    0    0 -0.13723745121E+03 -0.25020019927E+02  0.14542303378E+03  0.22092068393E+03  0.90542644233E+02 0.  0.
         13    1    3    3    0    0 -0.15139273136E+02 -0.18909833927E+02 -0.72951868621E+01  0.25298204711E+02  0.00000000000E+00 0.  1.
        -13    1    3    3    0    0 -0.12209817808E+03 -0.61101860006E+01  0.15271822064E+03  0.19562247922E+03  0.00000000000E+00 0. -1.
         22    1    1    2    0    0  0.13723745121E+03  0.25020019927E+02  0.39270104097E+03  0.41674239884E+03  0.00000000000E+00 0. -1.
<mgrwt>
<rscale>  0 0.34210625E+03</rscale>
<asrwt>0</asrwt>
<pdfrwt beam="1">  1        1 0.90445161E-01 0.34210625E+03</pdfrwt>
<pdfrwt beam="2">  1       -1 0.76568472E-02 0.34210625E+03</pdfrwt>
<totfact> 0.33417803E+03</totfact>
</mgrwt>
</event>
<event>
 6    1  0.1072514E-005  0.7405225E+03  0.7818608E-02  0.9650337E-01
          1   -1    0    0  501    0  0.00000000000E+00  0.00000000000E+00  0.29527197824E+03  0.29527197824E+03  0.00000000000E+00 0. -1.
         -1   -1    0    0    0  501 -0.00000000000E+00 -0.00000000000E+00 -0.46429532771E+03  0.46429532771E+03  0.00000000000E+00 0.  1.
         23    2    1    2    0    0  0.18296636488E+03  0.24340488870E+03  0.11964740542E+03  0.33998008588E+03  0.92457161170E+02 0.  0.
         11    1    3    3    0    0  0.17951399408E+03  0.23422793764E+03  0.89654045343E+02  0.30842478611E+03  0.00000000000E+00 0.  1.
        -11    1    3    3    0    0  0.34523708019E+01  0.91769510590E+01  0.29993360076E+02  0.31555299769E+02  0.00000000000E+00 0. -1.
         22    1    1    2    0    0 -0.18296636488E+03 -0.24340488870E+03 -0.28867075489E+03  0.41958722007E+03  0.00000000000E+00 0.  1.
<mgrwt>
<rscale>  0 0.74052252E+03</rscale>
<asrwt>0</asrwt>
<pdfrwt beam="1">  1        1 0.45426458E-01 0.74052252E+03</pdfrwt>
<pdfrwt beam="2">  1       -1 0.71430051E-01 0.74052252E+03</pdfrwt>
<totfact> 0.17962346E+02</totfact>
</mgrwt>
</event>
<event>
 6    1  0.1072514E-005  0.5410193E+04  0.7818608E-02  0.7768169E-01
          2   -1    0    0  501    0  0.00000000000E+00  0.00000000000E+00  0.36465454490E+04  0.36465454490E+04  0.00000000000E+00 0. -1.
         -2   -1    0    0    0  501 -0.00000000000E+00 -0.00000000000E+00 -0.20067069792E+04  0.20067069792E+04  0.00000000000E+00 0.  1.
         23    2    1    2    0    0 -0.16464495007E+04 -0.21282967925E+04  0.53860420369E+03  0.27458205538E+04  0.94830535160E+02 0.  0.
         11    1    3    3    0    0 -0.94271710796E+03 -0.12781766644E+04  0.28808309527E+03  0.16141384701E+04  0.00000000000E+00 0.  1.
        -11    1    3    3    0    0 -0.70373239275E+03 -0.85012012809E+03  0.25052110842E+03  0.11316820837E+04  0.00000000000E+00 0. -1.
         22    1    1    2    0    0  0.16464495007E+04  0.21282967925E+04  0.11012342661E+04  0.29074318743E+04  0.00000000000E+00 0.  1.
<mgrwt>
<rscale>  0 0.54101934E+04</rscale>
<asrwt>0</asrwt>
<pdfrwt beam="1">  1        2 0.56100699E+00 0.54101934E+04</pdfrwt>
<pdfrwt beam="2">  1       -2 0.30872415E+00 0.54101934E+04</pdfrwt>
<totfact> 0.12616658E-02</totfact>
</mgrwt>
</event>
<event>
 6    1  0.1072514E-005  0.2158502E+04  0.7818608E-02  0.8535902E-01
          2   -1    0    0  501    0  0.00000000000E+00  0.00000000000E+00  0.15542606692E+04  0.15542606692E+04  0.00000000000E+00 0. -1.
         -2   -1    0    0    0  501 -0.00000000000E+00 -0.00000000000E+00 -0.74941305144E+03  0.74941305144E+03  0.00000000000E+00 0.  1.
         23    2    1    2    0    0  0.56398154371E+03  0.45423406502E+02 -0.57533783359E+03  0.81201345515E+03  0.90629802344E+02 0.  0.
         13    1    3    3    0    0  0.40100994979E+03  0.21085455284E+02 -0.34887652408E+03  0.53194774679E+03  0.00000000000E+00 0. -1.
        -13    1    3    3    0    0  0.16297159392E+03  0.24337951218E+02 -0.22646130951E+03  0.28006570836E+03  0.00000000000E+00 0.  1.
         22    1    1    2    0    0 -0.56398154371E+03 -0.45423406502E+02  0.13801854514E+04  0.14916602655E+04  0.00000000000E+00 0. -1.
<mgrwt>
<rscale>  0 0.21585025E+04</rscale>
<asrwt>0</asrwt>
<pdfrwt beam="1">  1        2 0.23911702E+00 0.21585025E+04</pdfrwt>
<pdfrwt beam="2">  1       -2 0.11529432E+00 0.21585025E+04</pdfrwt>
<totfact> 0.63590905E+00</totfact>
</mgrwt>
</event>
<event>
 6    1  0.1072514E-005  0.1011968E+04  0.7818608E-02  0.9295515E-01
         -2   -1    0    0    0  501 -0.00000000000E+00  0.00000000000E+00  0.36532758938E+03  0.36532758938E+03  0.00000000000E+00 0.  1.
          2   -1    0    0  501    0  0.00000000000E+00 -0.00000000000E+00 -0.70079475790E+03  0.70079475790E+03  0.00000000000E+00 0. -1.
         23    2    1    2    0    0  0.19824186147E+03 -0.36873700646E+03  0.12184887257E+03  0.44611849487E+03  0.94380867455E+02 0.  0.
         11    1    3    3    0    0  0.66953714600E+02 -0.49641364116E+02  0.13336382966E+02  0.84409265135E+02  0.00000000000E+00 0. -1.
        -11    1    3    3    0    0  0.13128814687E+03 -0.31909564234E+03  0.10851248960E+03  0.36170922973E+03  0.00000000000E+00 0.  1.
         22    1    1    2    0    0 -0.19824186147E+03  0.36873700646E+03 -0.45731604109E+03  0.62000385241E+03  0.00000000000E+00 0. -1.
<mgrwt>
<rscale>  0 0.10119677E+04</rscale>
<asrwt>0</asrwt>
<pdfrwt beam="1">  1        2 0.10781458E+00 0.10119677E+04</pdfrwt>
<pdfrwt beam="2">  1       -2 0.56204245E-01 0.10119677E+04</pdfrwt>
<totfact> 0.12135676E+02</totfact>
</mgrwt>
</event>
<event>
 6    1  0.1072514E-005  0.7940362E+03  0.7818608E-02  0.9568690E-01
          1   -1    0    0  501    0  0.00000000000E+00  0.00000000000E+00  0.16588390713E+03  0.16588390713E+03  0.00000000000E+00 0. -1.
         -1   -1    0    0    0  501 -0.00000000000E+00 -0.00000000000E+00 -0.95020300319E+03  0.95020300319E+03  0.00000000000E+00 0.  1.
         23    2    1    2    0    0  0.26101328372E+03  0.33224811028E+02 -0.80433719237E+03  0.85220711472E+03  0.10033356867E+03 0.  0.
         11    1    3    3    0    0  0.18417408845E+03  0.68996286352E+02 -0.57543887662E+03  0.60812045115E+03  0.00000000000E+00 0. -1.
        -11    1    3    3    0    0  0.76839195273E+02 -0.35771475325E+02 -0.22889831575E+03  0.24408666357E+03  0.00000000000E+00 0.  1.
         22    1    1    2    0    0 -0.26101328372E+03 -0.33224811028E+02  0.20018096305E+02  0.26387979560E+03  0.00000000000E+00 0. -1.
<mgrwt>
<rscale>  0 0.79403624E+03</rscale>
<asrwt>0</asrwt>
<pdfrwt beam="1">  1        1 0.25520601E-01 0.79403624E+03</pdfrwt>
<pdfrwt beam="2">  1       -1 0.14618508E+00 0.79403624E+03</pdfrwt>
<totfact> 0.72102363E+01</totfact>
</mgrwt>
</event>
<event>
 6    1  0.1072514E-005  0.5475042E+04  0.7818608E-02  0.7759133E-01
         -1   -1    0    0    0  501 -0.00000000000E+00  0.00000000000E+00  0.27791858641E+04  0.27791858641E+04  0.00000000000E+00 0.  1.
          1   -1    0    0  501    0  0.00000000000E+00 -0.00000000000E+00 -0.26964803752E+04  0.26964803752E+04  0.00000000000E+00 0. -1.
         23    2    1    2    0    0 -0.25162756520E+04  0.92980098370E+03 -0.50078099065E+03  0.27303739966E+04  0.89373005966E+02 0.  0.
         13    1    3    3    0    0 -0.93493670530E+03  0.36253667584E+03 -0.14638018629E+03  0.10133936270E+04  0.00000000000E+00 0. -1.
        -13    1    3    3    0    0 -0.15813389467E+04  0.56726430786E+03 -0.35440080436E+03  0.17169803696E+04  0.00000000000E+00 0.  1.
         22    1    1    2    0    0  0.25162756520E+04 -0.92980098370E+03  0.58348647954E+03  0.27452922428E+04  0.00000000000E+00 0.  1.
<mgrwt>
<rscale>  0 0.54750416E+04</rscale>
<asrwt>0</asrwt>
<pdfrwt beam="1">  1        1 0.41484313E+00 0.54750416E+04</pdfrwt>
<pdfrwt beam="2">  1       -1 0.42756706E+00 0.54750416E+04</pdfrwt>
<totfact> 0.31796126E-03</totfact>
</mgrwt>
</event>
<event>
 6    1  0.1072514E-005  0.4366089E+04  0.7818608E-02  0.7934509E-01
         -1   -1    0    0    0  501 -0.00000000000E+00  0.00000000000E+00  0.22880264400E+04  0.22880264400E+04  0.00000000000E+00 0.  1.
          1   -1    0    0  501    0  0.00000000000E+00 -0.00000000000E+00 -0.20828792089E+04  0.20828792089E+04  0.00000000000E+00 0. -1.
         23    2    1    2    0    0 -0.12310674664E+04 -0.14716596054E+04  0.11431130421E+04  0.22352350367E+04  0.90879817658E+02 0.  0.
         13    1    3    3    0    0 -0.17711965544E+03 -0.25691501080E+03  0.20554036286E+03  0.37366232869E+03  0.00000000000E+00 0.  1.
        -13    1    3    3    0    0 -0.10539478109E+04 -0.12147445946E+04  0.93757267922E+03  0.18615727080E+04  0.00000000000E+00 0. -1.
         22    1    1    2    0    0  0.12310674664E+04  0.14716596054E+04 -0.93796581100E+03  0.21356706121E+04  0.00000000000E+00 0. -1.
<mgrwt>
<rscale>  0 0.43660887E+04</rscale>
<asrwt>0</asrwt>
<pdfrwt beam="1">  1        1 0.32044296E+00 0.43660887E+04</pdfrwt>
<pdfrwt beam="2">  1       -1 0.35200407E+00 0.43660887E+04</pdfrwt>
<totfact> 0.29960439E-02</totfact>
</mgrwt>
</event>
<event>
 6    1  0.1072514E-005  0.2971489E+04  0.7818608E-02  0.8251919E-01
         -1   -1    0    0    0  501 -0.00000000000E+00  0.00000000000E+00  0.12736364720E+04  0.12736364720E+04  0.00000000000E+00 0.  1.
          1   -1    0    0  501    0  0.00000000000E+00 -0.00000000000E+00 -0.17331768426E+04  0.17331768426E+04  0.00000000000E+00 0. -1.
         23    2    1    2    0    0  0.14536736012E+03 -0.99312172764E+03  0.87660044925E+03  0.13356775554E+04  0.90464076434E+02 0.  0.
         13    1    3    3    0    0  0.13736010580E+03 -0.81245636997E+03  0.75647096536E+03  0.11185711748E+04  0.00000000000E+00 0.  1.
        -13    1    3    3    0    0  0.80072543203E+01 -0.18066535768E+03  0.12012948389E+03  0.21710638057E+03  0.00000000000E+00 0. -1.
         22    1    1    2    0    0 -0.14536736012E+03  0.99312172764E+03 -0.13361408198E+04  0.16711357592E+04  0.00000000000E+00 0. -1.
<mgrwt>
<rscale>  0 0.29714893E+04</rscale>
<asrwt>0</asrwt>
<pdfrwt beam="1">  1        1 0.26664259E+00 0.29714893E+04</pdfrwt>
<pdfrwt beam="2">  1       -1 0.19594407E+00 0.29714893E+04</pdfrwt>
<totfact> 0.61975414E-01</totfact>
</mgrwt>
</event>
<event>
 6    1  0.1072514E-005  0.2487344E+04  0.7818608E-02  0.8407508E-01
         -1   -1    0    0    0  501 -0.00000000000E+00  0.00000000000E+00  0.55618190859E+03  0.55618190859E+03  0.00000000000E+00 0.  1.
          1   -1    0    0  501    0  0.00000000000E+00 -0.00000000000E+00 -0.27809603469E+04  0.27809603469E+04  0.00000000000E+00 0. -1.
         23    2    1    2    0    0 -0.99577242149E+03  0.73961888507E+03 -0.10363534960E+04  0.16193085458E+04  0.97635994124E+02 0.  0.
         11    1    3    3    0    0 -0.50079334929E+03  0.31896199270E+03 -0.46393228190E+03  0.75350109069E+03  0.00000000000E+00 0. -1.
        -11    1    3    3    0    0 -0.49497907220E+03  0.42065689237E+03 -0.57242121406E+03  0.86580745510E+03  0.00000000000E+00 0.  1.
         22    1    1    2    0    0  0.99577242149E+03 -0.73961888507E+03 -0.11884249424E+04  0.17178337097E+04  0.00000000000E+00 0.  1.
<mgrwt>
<rscale>  0 0.24873438E+04</rscale>
<asrwt>0</asrwt>
<pdfrwt beam="1">  1        1 0.42784006E+00 0.24873438E+04</pdfrwt>
<pdfrwt beam="2">  1       -1 0.85566447E-01 0.24873438E+04</pdfrwt>
<totfact> 0.10317728E+00</totfact>
</mgrwt>
</event>
<event>
 6    1  0.1072514E-005  0.6296284E+04  0.7818608E-02  0.7654714E-01
          2   -1    0    0  501    0  0.00000000000E+00  0.00000000000E+00  0.43464622432E+04  0.43464622432E+04  0.00000000000E+00 0. -1.
         -2   -1    0    0    0  501 -0.00000000000E+00 -0.00000000000E+00 -0.22801986588E+04  0.22801986588E+04  0.00000000000E+00 0.  1.
         23    2    1    2    0    0 -0.88840653875E+03  0.29569215524E+04  0.38966593830E+03  0.31133105193E+04  0.90617884637E+02 0.  0.
         13    1    3    3    0    0 -0.32500807565E+03  0.10630128994E+04  0.96830176804E+02  0.11157969155E+04  0.00000000000E+00 0.  1.
        -13    1    3    3    0    0 -0.56339846309E+03  0.18939086530E+04  0.29283576149E+03  0.19975136038E+04  0.00000000000E+00 0. -1.
         22    1    1    2    0    0  0.88840653875E+03 -0.29569215524E+04  0.16765976461E+04  0.35133503827E+04  0.00000000000E+00 0. -1.
<mgrwt>
<rscale>  0 0.62962838E+04</rscale>
<asrwt>0</asrwt>
<pdfrwt beam="1">  1        2 0.66868650E+00 0.62962838E+04</pdfrwt>
<pdfrwt beam="2">  1       -2 0.35079980E+00 0.62962838E+04</pdfrwt>
<totfact> 0.17244855E-03</totfact>
</mgrwt>
</event>
<event>
 6    1  0.1072514E-005  0.2575663E+04  0.7818608E-02  0.8376515E-01
         -2   -1    0    0    0  501 -0.00000000000E+00  0.00000000000E+00  0.39232328168E+03  0.39232328168E+03  0.00000000000E+00 0.  1.
          2   -1    0    0  501    0  0.00000000000E+00 -0.00000000000E+00 -0.42274075252E+04  0.42274075252E+04  0.00000000000E+00 0. -1.
         23    2    1    2    0    0  0.66900603434E+03 -0.35129353729E+03 -0.53045144445E+02  0.76294510241E+03  0.91078090780E+02 0.  0.
         11    1    3    3    0    0  0.39092017526E+03 -0.25490801209E+03 -0.26630018642E+02  0.46744607812E+03  0.00000000000E+00 0. -1.
        -11    1    3    3    0    0  0.27808585908E+03 -0.96385525198E+02 -0.26415125803E+02  0.29549902430E+03  0.00000000000E+00 0.  1.
         22    1    1    2    0    0 -0.66900603434E+03  0.35129353729E+03 -0.37820390991E+04  0.38567857045E+04  0.00000000000E+00 0. -1.
<mgrwt>
<rscale>  0 0.25756633E+04</rscale>
<asrwt>0</asrwt>
<pdfrwt beam="1">  1        2 0.65037034E+00 0.25756633E+04</pdfrwt>
<pdfrwt beam="2">  1       -2 0.60357432E-01 0.25756633E+04</pdfrwt>
<totfact> 0.50064632E-01</totfact>
</mgrwt>
</event>
<event>
 6    1  0.1072514E-005  0.2136968E+04  0.7818608E-02  0.8545131E-01
         -1   -1    0    0    0  501 -0.00000000000E+00  0.00000000000E+00  0.50580768096E+03  0.50580768096E+03  0.00000000000E+00 0.  1.
          1   -1    0    0  501    0  0.00000000000E+00 -0.00000000000E+00 -0.22570995483E+04  0.22570995483E+04  0.00000000000E+00 0. -1.
         23    2    1    2    0    0  0.85253541593E+02  0.10497638665E+04 -0.65991716730E+03  0.12462098047E+04  0.90971797124E+02 0.  0.
         11    1    3    3    0    0  0.66976825366E+02  0.37619319527E+03 -0.26770851177E+03  0.46655660169E+03  0.00000000000E+00 0. -1.
        -11    1    3    3    0    0  0.18276716227E+02  0.67357067123E+03 -0.39220865553E+03  0.77965320301E+03  0.00000000000E+00 0.  1.
         22    1    1    2    0    0 -0.85253541593E+02 -0.10497638665E+04 -0.10913747000E+04  0.15166974245E+04  0.00000000000E+00 0.  1.
<mgrwt>
<rscale>  0 0.21369682E+04</rscale>
<asrwt>0</asrwt>
<pdfrwt beam="1">  1        1 0.34724608E+00 0.21369682E+04</pdfrwt>
<pdfrwt beam="2">  1       -1 0.77816567E-01 0.21369682E+04</pdfrwt>
<totfact> 0.30199878E+00</totfact>
</mgrwt>
</event>
<event>
 6    1  0.1072514E-005  0.2183032E+04  0.7818608E-02  0.8525524E-01
          2   -1    0    0  501    0  0.00000000000E+00  0.00000000000E+00  0.15825107064E+04  0.15825107064E+04  0.00000000000E+00 0. -1.
         -2   -1    0    0    0  501 -0.00000000000E+00 -0.00000000000E+00 -0.75285856137E+03  0.75285856137E+03  0.00000000000E+00 0.  1.
         23    2    1    2    0    0  0.72385938108E+02  0.10781596128E+04  0.26557058504E+03  0.11164123854E+04  0.90448902494E+02 0.  0.
         11    1    3    3    0    0  0.44152435864E+02  0.16621384399E+03  0.43334275538E+02  0.17735371144E+03  0.00000000000E+00 0. -1.
        -11    1    3    3    0    0  0.28233502244E+02  0.91194576883E+03  0.22223630951E+03  0.93905867399E+03  0.00000000000E+00 0.  1.
         22    1    1    2    0    0 -0.72385938108E+02 -0.10781596128E+04  0.56408156003E+03  0.12189568824E+04  0.00000000000E+00 0. -1.
<mgrwt>
<rscale>  0 0.21830316E+04</rscale>
<asrwt>0</asrwt>
<pdfrwt beam="1">  1        2 0.24346318E+00 0.21830316E+04</pdfrwt>
<pdfrwt beam="2">  1       -2 0.11582439E+00 0.21830316E+04</pdfrwt>
<totfact> 0.60504324E+00</totfact>
</mgrwt>
</event>
<event>
 6    1  0.1072514E-005  0.1385058E+04  0.7818608E-02  0.8964706E-01
          2   -1    0    0  501    0  0.00000000000E+00  0.00000000000E+00  0.29422606410E+04  0.29422606410E+04  0.00000000000E+00 0. -1.
         -2   -1    0    0    0  501 -0.00000000000E+00 -0.00000000000E+00 -0.16300271904E+03  0.16300271904E+03  0.00000000000E+00 0.  1.
         23    2    1    2    0    0 -0.60945152792E+03  0.36758502674E+02  0.67810565827E+03  0.91719956124E+03  0.92980637545E+02 0.  0.
         11    1    3    3    0    0 -0.34575773366E+03  0.66001752414E+02  0.40046609907E+03  0.53317702334E+03  0.00000000000E+00 0.  1.
        -11    1    3    3    0    0 -0.26369379426E+03 -0.29243249740E+02  0.27763955920E+03  0.38402253791E+03  0.00000000000E+00 0. -1.
         22    1    1    2    0    0  0.60945152792E+03 -0.36758502674E+02  0.21011522637E+04  0.21880637988E+04  0.00000000000E+00 0. -1.
<mgrwt>
<rscale>  0 0.13850581E+04</rscale>
<asrwt>0</asrwt>
<pdfrwt beam="1">  1        2 0.45265544E+00 0.13850581E+04</pdfrwt>
<pdfrwt beam="2">  1       -2 0.25077344E-01 0.13850581E+04</pdfrwt>
<totfact> 0.26524490E+01</totfact>
</mgrwt>
</event>
<event>
 6    1  0.1072514E-005  0.1497147E+04  0.7818608E-02  0.8886353E-01
         -1   -1    0    0    0  501 -0.00000000000E+00  0.00000000000E+00  0.70722013653E+03  0.70722013653E+03  0.00000000000E+00 0.  1.
          1   -1    0    0  501    0  0.00000000000E+00 -0.00000000000E+00 -0.79234453307E+03  0.79234453307E+03  0.00000000000E+00 0. -1.
         23    2    1    2    0    0 -0.37432638282E+03 -0.33887134968E+03 -0.59246701096E+03  0.78377799682E+03  0.91305841637E+02 0.  0.
         13    1    3    3    0    0 -0.19114219486E+03 -0.14647447034E+03 -0.34489773925E+03  0.42064778575E+03  0.00000000000E+00 0. -1.
        -13    1    3    3    0    0 -0.18318418796E+03 -0.19239687933E+03 -0.24756927171E+03  0.36313021107E+03  0.00000000000E+00 0.  1.
         22    1    1    2    0    0  0.37432638282E+03  0.33887134968E+03  0.50734261442E+03  0.71578667277E+03  0.00000000000E+00 0.  1.
<mgrwt>
<rscale>  0 0.14971466E+04</rscale>
<asrwt>0</asrwt>
<pdfrwt beam="1">  1        1 0.12189916E+00 0.14971466E+04</pdfrwt>
<pdfrwt beam="2">  1       -1 0.10880310E+00 0.14971466E+04</pdfrwt>
<totfact> 0.17020815E+01</totfact>
</mgrwt>
</event>
<event>
 6    1  0.1072514E-005  0.3971832E+04  0.7818608E-02  0.8010253E-01
          1   -1    0    0  501    0  0.00000000000E+00  0.00000000000E+00  0.12117263712E+04  0.12117263712E+04  0.00000000000E+00 0. -1.
         -1   -1    0    0    0  501 -0.00000000000E+00 -0.00000000000E+00 -0.32547466141E+04  0.32547466141E+04  0.00000000000E+00 0.  1.
         23    2    1    2    0    0  0.11158756896E+04 -0.12246158978E+04  0.20707781453E+03  0.16722282001E+04  0.92753868706E+02 0.  0.
         13    1    3    3    0    0  0.41582420127E+03 -0.51692061115E+03  0.62674146721E+02  0.66636681585E+03  0.00000000000E+00 0. -1.
        -13    1    3    3    0    0  0.70005148832E+03 -0.70769528663E+03  0.14440366780E+03  0.10058613842E+04  0.00000000000E+00 0.  1.
         22    1    1    2    0    0 -0.11158756896E+04  0.12246158978E+04 -0.22500980574E+04  0.27942447852E+04  0.00000000000E+00 0.  1.
<mgrwt>
<rscale>  0 0.39718320E+04</rscale>
<asrwt>0</asrwt>
<pdfrwt beam="1">  1        1 0.18641944E+00 0.39718320E+04</pdfrwt>
<pdfrwt beam="2">  1       -1 0.50073025E+00 0.39718320E+04</pdfrwt>
<totfact> 0.12126161E-02</totfact>
</mgrwt>
</event>
<event>
 6    1  0.1072514E-005  0.2061043E+04  0.7818608E-02  0.8578601E-01
          2   -1    0    0  501    0  0.00000000000E+00  0.00000000000E+00  0.12836476127E+04  0.12836476127E+04  0.00000000000E+00 0.  1.
         -2   -1    0    0    0  501 -0.00000000000E+00 -0.00000000000E+00 -0.82731011983E+03  0.82731011983E+03  0.00000000000E+00 0. -1.
         23    2    1    2    0    0  0.16259768407E+03 -0.33418085899E+03 -0.75402828667E+03  0.84482181026E+03  0.83966544616E+02 0.  0.
         11    1    3    3    0    0 -0.68534433272E+01 -0.29381621530E+02 -0.87818696189E+02  0.92856732494E+02  0.00000000000E+00 0.  1.
        -11    1    3    3    0    0  0.16945112740E+03 -0.30479923746E+03 -0.66620959048E+03  0.75196507777E+03  0.00000000000E+00 0. -1.
         22    1    1    2    0    0 -0.16259768407E+03  0.33418085899E+03  0.12103657795E+04  0.12661359223E+04  0.00000000000E+00 0.  1.
<mgrwt>
<rscale>  0 0.20610431E+04</rscale>
<asrwt>0</asrwt>
<pdfrwt beam="1">  1        2 0.19748425E+00 0.20610431E+04</pdfrwt>
<pdfrwt beam="2">  1       -2 0.12727848E+00 0.20610431E+04</pdfrwt>
<totfact> 0.71592719E+00</totfact>
</mgrwt>
</event>
<event>
 6    1  0.1072514E-005  0.3307269E+04  0.7818608E-02  0.8161048E-01
          1   -1    0    0  501    0  0.00000000000E+00  0.00000000000E+00  0.19005928521E+04  0.19005928521E+04  0.00000000000E+00 0. -1.
         -1   -1    0    0    0  501 -0.00000000000E+00 -0.00000000000E+00 -0.14387656708E+04  0.14387656708E+04  0.00000000000E+00 0.  1.
         23    2    1    2    0    0 -0.87529784406E+03  0.13972538618E+04  0.12067116361E+03  0.16556566197E+04  0.90402669084E+02 0.  0.
         11    1    3    3    0    0 -0.30226899230E+03  0.42678273565E+03  0.68258734674E+02  0.52741757841E+03  0.00000000000E+00 0. -1.
        -11    1    3    3    0    0 -0.57302885176E+03  0.97047112617E+03  0.52412428935E+02  0.11282390413E+04  0.00000000000E+00 0.  1.
         22    1    1    2    0    0  0.87529784406E+03 -0.13972538618E+04  0.34115601765E+03  0.16837019031E+04  0.00000000000E+00 0.  1.
<mgrwt>
<rscale>  0 0.33072694E+04</rscale>
<asrwt>0</asrwt>
<pdfrwt beam="1">  1        1 0.29239890E+00 0.33072694E+04</pdfrwt>
<pdfrwt beam="2">  1       -1 0.22134857E+00 0.33072694E+04</pdfrwt>
<totfact> 0.31109383E-01</totfact>
</mgrwt>
</event>
<event>
 6    1  0.1072514E-005  0.3745660E+04  0.7818608E-02  0.8057918E-01
         -2   -1    0    0    0  501 -0.00000000000E+00  0.00000000000E+00  0.11227435554E+04  0.11227435554E+04  0.00000000000E+00 0.  1.
          2   -1    0    0  501    0  0.00000000000E+00 -0.00000000000E+00 -0.31240364621E+04  0.31240364621E+04  0.00000000000E+00 0. -1.
         23    2    1    2    0    0 -0.16428820671E+04 -0.38708948599E+03 -0.83912224665E+02  0.16923234341E+04  0.89540984289E+02 0.  0.
         11    1    3    3    0    0 -0.88699856163E+03 -0.16477845010E+03 -0.32808660540E+02  0.90277062100E+03  0.00000000000E+00 0.  1.
        -11    1    3    3    0    0 -0.75588350544E+03 -0.22231103589E+03 -0.51103564125E+02  0.78955281314E+03  0.00000000000E+00 0. -1.
         22    1    1    2    0    0  0.16428820671E+04  0.38708948599E+03 -0.19173806821E+04  0.25544565834E+04  0.00000000000E+00 0.  1.
<mgrwt>
<rscale>  0 0.37456598E+04</rscale>
<asrwt>0</asrwt>
<pdfrwt beam="1">  1        2 0.48062099E+00 0.37456598E+04</pdfrwt>
<pdfrwt beam="2">  1       -2 0.17272978E+00 0.37456598E+04</pdfrwt>
<totfact> 0.23823499E-01</totfact>
</mgrwt>
</event>
<event>
 6    1  0.1072514E-005  0.2790659E+04  0.7818608E-02  0.8306174E-01
          2   -1    0    0  501    0  0.00000000000E+00  0.00000000000E+00  0.14089929015E+04  0.14089929015E+04  0.00000000000E+00 0. -1.
         -2   -1    0    0    0  501 -0.00000000000E+00 -0.00000000000E+00 -0.13817988605E+04  0.13817988605E+04  0.00000000000E+00 0.  1.
         23    2    1    2    0    0  0.40704570310E+03  0.12807797731E+04  0.38352120029E+03  0.14004493309E+04  0.89926558182E+02 0.  0.
         13    1    3    3    0    0  0.22016493138E+03  0.56577618478E+03  0.14920966924E+03  0.62517102754E+03  0.00000000000E+00 0.  1.
        -13    1    3    3    0    0  0.18688077171E+03  0.71500358828E+03  0.23431153105E+03  0.77527830336E+03  0.00000000000E+00 0. -1.
         22    1    1    2    0    0 -0.40704570310E+03 -0.12807797731E+04 -0.35632715927E+03  0.13903424312E+04  0.00000000000E+00 0.  1.
<mgrwt>
<rscale>  0 0.27906593E+04</rscale>
<asrwt>0</asrwt>
<pdfrwt beam="1">  1        2 0.21676814E+00 0.27906593E+04</pdfrwt>
<pdfrwt beam="2">  1       -2 0.21258444E+00 0.27906593E+04</pdfrwt>
<totfact> 0.13724945E+00</totfact>
</mgrwt>
</event>
<event>
 6    1  0.1072514E-005  0.2530224E+04  0.7818608E-02  0.8392296E-01
         -2   -1    0    0    0  501 -0.00000000000E+00  0.00000000000E+00  0.95772865637E+03  0.95772865637E+03  0.00000000000E+00 0.  1.
          2   -1    0    0  501    0  0.00000000000E+00 -0.00000000000E+00 -0.16711504903E+04  0.16711504903E+04  0.00000000000E+00 0. -1.
         23    2    1    2    0    0 -0.91438870538E+03 -0.33707576823E+03  0.47877834873E+03  0.10890518662E+04  0.84133715322E+02 0.  0.
         11    1    3    3    0    0 -0.64316981521E+03 -0.19555692421E+03  0.32989662603E+03  0.74882688631E+03  0.00000000000E+00 0. -1.
        -11    1    3    3    0    0 -0.27121889018E+03 -0.14151884402E+03  0.14888172271E+03  0.34022497991E+03  0.00000000000E+00 0.  1.
         22    1    1    2    0    0  0.91438870538E+03  0.33707576823E+03 -0.11922001826E+04  0.15398272804E+04  0.00000000000E+00 0.  1.
<mgrwt>
<rscale>  0 0.25302243E+04</rscale>
<asrwt>0</asrwt>
<pdfrwt beam="1">  1        2 0.25710007E+00 0.25302243E+04</pdfrwt>
<pdfrwt beam="2">  1       -2 0.14734287E+00 0.25302243E+04</pdfrwt>
<totfact> 0.28445396E+00</totfact>
</mgrwt>
</event>
<event>
 6    1  0.1072514E-005  0.8050278E+03  0.7818608E-02  0.9552768E-01
         -1   -1    0    0    0  501 -0.00000000000E+00  0.00000000000E+00  0.12468471288E+03  0.12468471288E+03  0.00000000000E+00 0.  1.
          1   -1    0    0  501    0  0.00000000000E+00 -0.00000000000E+00 -0.12994171337E+04  0.12994171337E+04  0.00000000000E+00 0. -1.
         23    2    1    2    0    0  0.24503560188E+02  0.17953697562E+03 -0.12202335250E+04  0.12372749198E+04  0.95107421911E+02 0.  0.
         11    1    3    3    0    0 -0.81719451317E+00  0.10241074703E+03 -0.93875187253E+03  0.94432182390E+03  0.00000000000E+00 0.  1.
        -11    1    3    3    0    0  0.25320754701E+02  0.77126228591E+02 -0.28148165246E+03  0.29295309595E+03  0.00000000000E+00 0. -1.
         22    1    1    2    0    0 -0.24503560188E+02 -0.17953697562E+03  0.45501104158E+02  0.18682692674E+03  0.00000000000E+00 0.  1.
<mgrwt>
<rscale>  0 0.80502783E+03</rscale>
<asrwt>0</asrwt>
<pdfrwt beam="1">  1        1 0.19991033E+00 0.80502783E+03</pdfrwt>
<pdfrwt beam="2">  1       -1 0.19182263E-01 0.80502783E+03</pdfrwt>
<totfact> 0.20095929E+02</totfact>
</mgrwt>
</event>
<event>
 6    1  0.1072514E-005  0.4059546E+04  0.7818608E-02  0.7992641E-01
         -2   -1    0    0    0  501 -0.00000000000E+00  0.00000000000E+00  0.37684348945E+04  0.37684348945E+04  0.00000000000E+00 0.  1.
          2   -1    0    0  501    0  0.00000000000E+00 -0.00000000000E+00 -0.10932861545E+04  0.10932861545E+04  0.00000000000E+00 0. -1.
         23    2    1    2    0    0 -0.12972886003E+04  0.14005175738E+04  0.51605731055E+03  0.19796934662E+04  0.91999378557E+02 0.  0.
         11    1    3    3    0    0 -0.23463849869E+03  0.27395840470E+03  0.13217990782E+03  0.38416137313E+03  0.00000000000E+00 0. -1.
        -11    1    3    3    0    0 -0.10626501016E+04  0.11265591691E+04  0.38387740273E+03  0.15955320931E+04  0.00000000000E+00 0.  1.
         22    1    1    2    0    0  0.12972886003E+04 -0.14005175738E+04  0.21590914295E+04  0.28820275828E+04  0.00000000000E+00 0.  1.
<mgrwt>
<rscale>  0 0.40595456E+04</rscale>
<asrwt>0</asrwt>
<pdfrwt beam="1">  1        2 0.16819787E+00 0.40595456E+04</pdfrwt>
<pdfrwt beam="2">  1       -2 0.57975921E+00 0.40595456E+04</pdfrwt>
<totfact> 0.10641837E-02</totfact>
</mgrwt>
</event>
<event>
 6    1  0.1072514E-005  0.2220571E+04  0.7818608E-02  0.8509914E-01
         -2   -1    0    0    0  501 -0.00000000000E+00  0.00000000000E+00  0.74656236558E+03  0.74656236558E+03  0.00000000000E+00 0.  1.
          2   -1    0    0  501    0  0.00000000000E+00 -0.00000000000E+00 -0.16512136704E+04  0.16512136704E+04  0.00000000000E+00 0. -1.
         23    2    1    2    0    0  0.35062112641E+03  0.52623013956E+03  0.52957515584E+03  0.83033899594E+03  0.95706156699E+02 0.  0.
         13    1    3    3    0    0  0.46616964131E+02  0.11546713654E+03  0.68847939329E+02  0.14228787621E+03  0.00000000000E+00 0. -1.
        -13    1    3    3    0    0  0.30400416228E+03  0.41076300302E+03  0.46072721651E+03  0.68805111973E+03  0.00000000000E+00 0.  1.
         22    1    1    2    0    0 -0.35062112641E+03 -0.52623013956E+03 -0.14342264607E+04  0.15674370400E+04  0.00000000000E+00 0. -1.
<mgrwt>
<rscale>  0 0.22205711E+04</rscale>
<asrwt>0</asrwt>
<pdfrwt beam="1">  1        2 0.25403287E+00 0.22205711E+04</pdfrwt>
<pdfrwt beam="2">  1       -2 0.11485575E+00 0.22205711E+04</pdfrwt>
<totfact> 0.56354679E+00</totfact>
</mgrwt>
</event>
<event>
 6    1  0.1072514E-005  0.5670186E+04  0.7818608E-02  0.7732696E-01
         -1   -1    0    0    0  501 -0.00000000000E+00  0.00000000000E+00  0.17667835958E+04  0.17667835958E+04  0.00000000000E+00 0.  1.
          1   -1    0    0  501    0  0.00000000000E+00 -0.00000000000E+00 -0.45493706167E+04  0.45493706167E+04  0.00000000000E+00 0. -1.
         23    2    1    2    0    0  0.24365165629E+04  0.60082945591E+03  0.75889997785E+02  0.25124060791E+04  0.93893651909E+02 0.  0.
         13    1    3    3    0    0  0.24431679805E+03  0.40314276957E+02  0.27750437116E+02  0.24917067544E+03  0.00000000000E+00 0. -1.
        -13    1    3    3    0    0  0.21921997649E+04  0.56051517895E+03  0.48139560669E+02  0.22632354037E+04  0.00000000000E+00 0.  1.
         22    1    1    2    0    0 -0.24365165629E+04 -0.60082945591E+03 -0.28584770186E+04  0.38037481334E+04  0.00000000000E+00 0. -1.
<mgrwt>
<rscale>  0 0.56701864E+04</rscale>
<asrwt>0</asrwt>
<pdfrwt beam="1">  1        1 0.69990316E+00 0.56701864E+04</pdfrwt>
<pdfrwt beam="2">  1       -1 0.27181287E+00 0.56701864E+04</pdfrwt>
<totfact> 0.97741653E-04</totfact>
</mgrwt>
</event>
<event>
 6    1  0.1072514E-005  0.1789854E+04  0.7818608E-02  0.8711714E-01
         -1   -1    0    0    0  501 -0.00000000000E+00  0.00000000000E+00  0.79881886879E+03  0.79881886879E+03  0.00000000000E+00 0.  1.
          1   -1    0    0  501    0  0.00000000000E+00 -0.00000000000E+00 -0.10025979188E+04  0.10025979188E+04  0.00000000000E+00 0. -1.
         23    2    1    2    0    0  0.18143619148E+02 -0.36290737779E+03  0.71837581884E+03  0.81025557068E+03  0.91756836006E+02 0.  0.
         13    1    3    3    0    0 -0.35461367881E+02 -0.10458161723E+03  0.23160227350E+03  0.25658222145E+03  0.00000000000E+00 0. -1.
        -13    1    3    3    0    0  0.53604987028E+02 -0.25832576057E+03  0.48677354533E+03  0.55367334922E+03  0.00000000000E+00 0.  1.
         22    1    1    2    0    0 -0.18143619148E+02  0.36290737779E+03 -0.92215486881E+03  0.99116121688E+03  0.00000000000E+00 0. -1.
<mgrwt>
<rscale>  0 0.17898538E+04</rscale>
<asrwt>0</asrwt>
<pdfrwt beam="1">  1        1 0.15424583E+00 0.17898538E+04</pdfrwt>
<pdfrwt beam="2">  1       -1 0.12289521E+00 0.17898538E+04</pdfrwt>
<totfact> 0.83042100E+00</totfact>
</mgrwt>
</event>
<event>
 6    1  0.1072514E-005  0.1822437E+04  0.7818608E-02  0.8694458E-01
         -4   -1    0    0    0  501 -0.00000000000E+00  0.00000000000E+00  0.46095549547E+03  0.46095549547E+03  0.00000000000E+00 0.  1.
          4   -1    0    0  501    0  0.00000000000E+00 -0.00000000000E+00 -0.18013002532E+04  0.18013002532E+04  0.00000000000E+00 0. -1.
         23    2    1    2    0    0 -0.50857321272E+03 -0.63655704735E+03 -0.11723341383E+04  0.14303427992E+04  0.87530590033E+02 0.  0.
         13    1    3    3    0    0 -0.21942325291E+03 -0.25589781143E+03 -0.41346086002E+03  0.53346052954E+03  0.00000000000E+00 0. -1.
        -13    1    3    3    0    0 -0.28914995981E+03 -0.38065923592E+03 -0.75887327825E+03  0.89688226963E+03  0.00000000000E+00 0.  1.
         22    1    1    2    0    0  0.50857321272E+03  0.63655704735E+03 -0.16801061942E+03  0.83191294945E+03  0.00000000000E+00 0.  1.
<mgrwt>
<rscale>  0 0.18224371E+04</rscale>
<asrwt>0</asrwt>
<pdfrwt beam="1">  1        4 0.27712312E+00 0.18224371E+04</pdfrwt>
<pdfrwt beam="2">  1       -4 0.70916229E-01 0.18224371E+04</pdfrwt>
<totfact> 0.14729194E-01</totfact>
</mgrwt>
</event>
<event>
 6    1  0.1072514E-005  0.1931349E+04  0.7818608E-02  0.8639408E-01
          1   -1    0    0  501    0  0.00000000000E+00  0.00000000000E+00  0.15840148438E+04  0.15840148438E+04  0.00000000000E+00 0. -1.
         -1   -1    0    0    0  501 -0.00000000000E+00 -0.00000000000E+00 -0.58871098442E+03  0.58871098442E+03  0.00000000000E+00 0.  1.
         23    2    1    2    0    0 -0.38905525126E+03 -0.25279836837E+03 -0.45130773215E+03  0.65352995529E+03  0.90286930287E+02 0.  0.
         11    1    3    3    0    0 -0.25290212482E+03 -0.17174626690E+03 -0.23600476196E+03  0.38620527263E+03  0.00000000000E+00 0. -1.
        -11    1    3    3    0    0 -0.13615312644E+03 -0.81052101473E+02 -0.21530297018E+03  0.26732468266E+03  0.00000000000E+00 0.  1.
         22    1    1    2    0    0  0.38905525126E+03  0.25279836837E+03  0.14466115915E+04  0.15191958729E+04  0.00000000000E+00 0. -1.
<mgrwt>
<rscale>  0 0.19313487E+04</rscale>
<asrwt>0</asrwt>
<pdfrwt beam="1">  1        1 0.24369459E+00 0.19313487E+04</pdfrwt>
<pdfrwt beam="2">  1       -1 0.90570921E-01 0.19313487E+04</pdfrwt>
<totfact> 0.63608423E+00</totfact>
</mgrwt>
</event>
<event>
 6    1  0.1072514E-005  0.1465983E+04  0.7818608E-02  0.8907394E-01
         -1   -1    0    0    0  501 -0.00000000000E+00  0.00000000000E+00  0.79257278159E+03  0.79257278159E+03  0.00000000000E+00 0.  1.
          1   -1    0    0  501    0  0.00000000000E+00 -0.00000000000E+00 -0.67788957887E+03  0.67788957887E+03  0.00000000000E+00 0. -1.
         23    2    1    2    0    0  0.48360729529E+03 -0.49751262669E+03 -0.17106231643E+03  0.72009889421E+03  0.88799051598E+02 0.  0.
         11    1    3    3    0    0  0.70437442561E+02 -0.91379481792E+02  0.21756686764E+01  0.11539660542E+03  0.00000000000E+00 0.  1.
        -11    1    3    3    0    0  0.41316985273E+03 -0.40613314490E+03 -0.17323798510E+03  0.60470228879E+03  0.00000000000E+00 0. -1.
         22    1    1    2    0    0 -0.48360729529E+03  0.49751262669E+03  0.28574551914E+03  0.75036346625E+03  0.00000000000E+00 0.  1.
<mgrwt>
<rscale>  0 0.14659834E+04</rscale>
<asrwt>0</asrwt>
<pdfrwt beam="1">  1        1 0.10429070E+00 0.14659834E+04</pdfrwt>
<pdfrwt beam="2">  1       -1 0.12193427E+00 0.14659834E+04</pdfrwt>
<totfact> 0.16517718E+01</totfact>
</mgrwt>
</event>
<event>
 6    1  0.1072514E-005  0.1382285E+04  0.7818608E-02  0.8966742E-01
          2   -1    0    0  501    0  0.00000000000E+00  0.00000000000E+00  0.19023349281E+04  0.19023349281E+04  0.00000000000E+00 0. -1.
         -2   -1    0    0    0  501 -0.00000000000E+00 -0.00000000000E+00 -0.25110086984E+03  0.25110086984E+03  0.00000000000E+00 0.  1.
         23    2    1    2    0    0 -0.32433545983E+03  0.36613049648E+03  0.15832390434E+04  0.16596055103E+04  0.91649060621E+02 0.  0.
         11    1    3    3    0    0 -0.25552176471E+03  0.25394222743E+03  0.12631099977E+04  0.13134781663E+04  0.00000000000E+00 0. -1.
        -11    1    3    3    0    0 -0.68813695121E+02  0.11218826905E+03  0.32012904569E+03  0.34612734397E+03  0.00000000000E+00 0.  1.
         22    1    1    2    0    0  0.32433545983E+03 -0.36613049648E+03  0.67995014860E+02  0.49383028765E+03  0.00000000000E+00 0.  1.
<mgrwt>
<rscale>  0 0.13822850E+04</rscale>
<asrwt>0</asrwt>
<pdfrwt beam="1">  1        2 0.29266690E+00 0.13822850E+04</pdfrwt>
<pdfrwt beam="2">  1       -2 0.38630904E-01 0.13822850E+04</pdfrwt>
<totfact> 0.46724152E+01</totfact>
</mgrwt>
</event>
<event>
 6    1  0.1072514E-005  0.1217945E+04  0.7818608E-02  0.9097293E-01
         -1   -1    0    0    0  501 -0.00000000000E+00  0.00000000000E+00  0.58175805241E+03  0.58175805241E+03  0.00000000000E+00 0. -1.
          1   -1    0    0  501    0  0.00000000000E+00 -0.00000000000E+00 -0.63746015939E+03  0.63746015939E+03  0.00000000000E+00 0.  1.
         23    2    1    2    0    0 -0.36586539768E+03 -0.81189524525E+02 -0.50448038732E+03  0.63453780935E+03  0.87684332702E+02 0.  0.
         13    1    3    3    0    0 -0.25630809815E+03 -0.22574429989E+02 -0.37778311314E+03  0.45708153173E+03  0.00000000000E+00 0. -1.
        -13    1    3    3    0    0 -0.10955729953E+03 -0.58615094537E+02 -0.12669727417E+03  0.17745627763E+03  0.00000000000E+00 0.  1.
         22    1    1    2    0    0  0.36586539768E+03  0.81189524525E+02  0.44877828033E+03  0.58468040245E+03  0.00000000000E+00 0. -1.
<mgrwt>
<rscale>  0 0.12179451E+04</rscale>
<asrwt>0</asrwt>
<pdfrwt beam="1">  1        1 0.98070794E-01 0.12179451E+04</pdfrwt>
<pdfrwt beam="2">  1       -1 0.89501239E-01 0.12179451E+04</pdfrwt>
<totfact> 0.37911624E+01</totfact>
</mgrwt>
</event>
<event>
 6    1  0.1072514E-005  0.5623323E+04  0.7818608E-02  0.7738944E-01
         -2   -1    0    0    0  501 -0.00000000000E+00  0.00000000000E+00  0.22911228579E+04  0.22911228579E+04  0.00000000000E+00 0.  1.
          2   -1    0    0  501    0  0.00000000000E+00 -0.00000000000E+00 -0.34504651718E+04  0.34504651718E+04  0.00000000000E+00 0. -1.
         23    2    1    2    0    0  0.19166338966E+04  0.14386546107E+04 -0.20797372366E+04  0.31744223949E+04  0.91858506836E+02 0.  0.
         11    1    3    3    0    0  0.36124610456E+03  0.31358227019E+03 -0.39650538738E+03  0.62132850446E+03  0.00000000000E+00 0. -1.
        -11    1    3    3    0    0  0.15553877921E+04  0.11250723405E+04 -0.16832318493E+04  0.25530938904E+04  0.00000000000E+00 0.  1.
         22    1    1    2    0    0 -0.19166338966E+04 -0.14386546107E+04  0.92039492283E+03  0.25671656348E+04  0.00000000000E+00 0.  1.
<mgrwt>
<rscale>  0 0.56233227E+04</rscale>
<asrwt>0</asrwt>
<pdfrwt beam="1">  1        2 0.53084079E+00 0.56233227E+04</pdfrwt>
<pdfrwt beam="2">  1       -2 0.35248044E+00 0.56233227E+04</pdfrwt>
<totfact> 0.91386149E-03</totfact>
</mgrwt>
</event>
<event>
 6    1  0.1072514E-005  0.3148250E+04  0.7818608E-02  0.8202620E-01
         -1   -1    0    0    0  501 -0.00000000000E+00  0.00000000000E+00  0.11095416378E+04  0.11095416378E+04  0.00000000000E+00 0.  1.
          1   -1    0    0  501    0  0.00000000000E+00 -0.00000000000E+00 -0.22332366033E+04  0.22332366033E+04  0.00000000000E+00 0. -1.
         23    2    1    2    0    0 -0.23222046432E+03 -0.89930460590E+03  0.78534865410E+03  0.12197797343E+04  0.91733164989E+02 0.  0.
         13    1    3    3    0    0 -0.60537537771E+02 -0.18563001399E+03  0.21323649460E+03  0.28912471047E+03  0.00000000000E+00 0.  1.
        -13    1    3    3    0    0 -0.17168292655E+03 -0.71367459191E+03  0.57211215950E+03  0.93065502386E+03  0.00000000000E+00 0. -1.
         22    1    1    2    0    0  0.23222046432E+03  0.89930460590E+03 -0.19090436196E+04  0.21229985067E+04  0.00000000000E+00 0. -1.
<mgrwt>
<rscale>  0 0.31482497E+04</rscale>
<asrwt>0</asrwt>
<pdfrwt beam="1">  1        1 0.34357486E+00 0.31482497E+04</pdfrwt>
<pdfrwt beam="2">  1       -1 0.17069871E+00 0.31482497E+04</pdfrwt>
<totfact> 0.42246967E-01</totfact>
</mgrwt>
</event>
<event>
 6    1  0.1072514E-005  0.3414283E+04  0.7818608E-02  0.8134410E-01
          1   -1    0    0  501    0  0.00000000000E+00  0.00000000000E+00  0.13530398702E+04  0.13530398702E+04  0.00000000000E+00 0. -1.
         -1   -1    0    0    0  501 -0.00000000000E+00 -0.00000000000E+00 -0.21539144657E+04  0.21539144657E+04  0.00000000000E+00 0.  1.
         23    2    1    2    0    0 -0.43423038774E+03  0.14332550927E+04 -0.12398958683E+04  0.19463403964E+04  0.90127597151E+02 0.  0.
         11    1    3    3    0    0 -0.28000265205E+03  0.91084995010E+03 -0.73229795760E+03  0.12017942484E+04  0.00000000000E+00 0.  1.
        -11    1    3    3    0    0 -0.15422773568E+03  0.52240514265E+03 -0.50759791069E+03  0.74454614798E+03  0.00000000000E+00 0. -1.
         22    1    1    2    0    0  0.43423038774E+03 -0.14332550927E+04  0.43902127280E+03  0.15606139396E+04  0.00000000000E+00 0. -1.
<mgrwt>
<rscale>  0 0.34142830E+04</rscale>
<asrwt>0</asrwt>
<pdfrwt beam="1">  1        1 0.20815998E+00 0.34142830E+04</pdfrwt>
<pdfrwt beam="2">  1       -1 0.33137145E+00 0.34142830E+04</pdfrwt>
<totfact> 0.14045424E-01</totfact>
</mgrwt>
</event>
<event>
 6    1  0.1072514E-005  0.6423726E+03  0.7818608E-02  0.9821198E-01
          1   -1    0    0  501    0  0.00000000000E+00  0.00000000000E+00  0.86205338052E+03  0.86205338052E+03  0.00000000000E+00 0. -1.
         -1   -1    0    0    0  501 -0.00000000000E+00 -0.00000000000E+00 -0.11966851709E+03  0.11966851709E+03  0.00000000000E+00 0.  1.
         23    2    1    2    0    0  0.22051644335E+03  0.21920390912E+03  0.45208051700E+03  0.55633446348E+03  0.91942296279E+02 0.  0.
         13    1    3    3    0    0  0.11189425893E+03  0.49487636095E+02  0.18415092971E+03  0.22109028975E+03  0.00000000000E+00 0.  1.
        -13    1    3    3    0    0  0.10862218443E+03  0.16971627302E+03  0.26792958729E+03  0.33524417373E+03  0.00000000000E+00 0. -1.
         22    1    1    2    0    0 -0.22051644335E+03 -0.21920390912E+03  0.29030434642E+03  0.42538743413E+03  0.00000000000E+00 0.  1.
<mgrwt>
<rscale>  0 0.64237263E+03</rscale>
<asrwt>0</asrwt>
<pdfrwt beam="1">  1        1 0.13262359E+00 0.64237263E+03</pdfrwt>
<pdfrwt beam="2">  1       -1 0.18410542E-01 0.64237263E+03</pdfrwt>
<totfact> 0.46491769E+02</totfact>
</mgrwt>
</event>
<event>
 6    1  0.1072514E-005  0.2280548E+04  0.7818608E-02  0.8485630E-01
          1   -1    0    0  501    0  0.00000000000E+00  0.00000000000E+00  0.15928236837E+04  0.15928236837E+04  0.00000000000E+00 0. -1.
         -1   -1    0    0    0  501 -0.00000000000E+00 -0.00000000000E+00 -0.81630178931E+03  0.81630178931E+03  0.00000000000E+00 0.  1.
         23    2    1    2    0    0 -0.44801436177E+03  0.10269797876E+04  0.17807094828E+03  0.11388704248E+04  0.99560179748E+02 0.  0.
         11    1    3    3    0    0 -0.32376155637E+03  0.62184657666E+03  0.11450165125E+03  0.71036986030E+03  0.00000000000E+00 0. -1.
        -11    1    3    3    0    0 -0.12425280540E+03  0.40513321097E+03  0.63569297028E+02  0.42850056453E+03  0.00000000000E+00 0.  1.
         22    1    1    2    0    0  0.44801436177E+03 -0.10269797876E+04  0.59845094611E+03  0.12702550482E+04  0.00000000000E+00 0.  1.
<mgrwt>
<rscale>  0 0.22805480E+04</rscale>
<asrwt>0</asrwt>
<pdfrwt beam="1">  1        1 0.24504980E+00 0.22805480E+04</pdfrwt>
<pdfrwt beam="2">  1       -1 0.12558489E+00 0.22805480E+04</pdfrwt>
<totfact> 0.28265112E+00</totfact>
</mgrwt>
</event>
<event>
 6    1  0.1072514E-005  0.1948422E+04  0.7818608E-02  0.8631122E-01
          2   -1    0    0  501    0  0.00000000000E+00  0.00000000000E+00  0.19825827865E+04  0.19825827865E+04  0.00000000000E+00 0. -1.
         -2   -1    0    0    0  501 -0.00000000000E+00 -0.00000000000E+00 -0.47871252915E+03  0.47871252915E+03  0.00000000000E+00 0.  1.
         23    2    1    2    0    0  0.15061204206E+03 -0.62698185552E+03 -0.16543341227E+03  0.67178002491E+03  0.90166255398E+02 0.  0.
         11    1    3    3    0    0  0.31170006103E+01 -0.19802341163E+02 -0.23752481272E+02  0.31081003441E+02  0.00000000000E+00 0.  1.
        -11    1    3    3    0    0  0.14749504145E+03 -0.60717951435E+03 -0.14168093100E+03  0.64069902147E+03  0.00000000000E+00 0. -1.
         22    1    1    2    0    0 -0.15061204206E+03  0.62698185552E+03  0.16693036696E+04  0.17895152907E+04  0.00000000000E+00 0. -1.
<mgrwt>
<rscale>  0 0.19484222E+04</rscale>
<asrwt>0</asrwt>
<pdfrwt beam="1">  1        2 0.30501273E+00 0.19484222E+04</pdfrwt>
<pdfrwt beam="2">  1       -2 0.73648083E-01 0.19484222E+04</pdfrwt>
<totfact> 0.10595343E+01</totfact>
</mgrwt>
</event>
<event>
 6    1  0.1072514E-005  0.3797390E+04  0.7818608E-02  0.8046715E-01
          1   -1    0    0  501    0  0.00000000000E+00  0.00000000000E+00  0.15914237674E+04  0.15914237674E+04  0.00000000000E+00 0. -1.
         -1   -1    0    0    0  501 -0.00000000000E+00 -0.00000000000E+00 -0.22652939171E+04  0.22652939171E+04  0.00000000000E+00 0.  1.
         23    2    1    2    0    0  0.43090089187E+02 -0.18868340412E+04 -0.53463763943E+03  0.19642628906E+04  0.10242969912E+03 0.  0.
         13    1    3    3    0    0 -0.17485608019E+02 -0.12742951185E+04 -0.34846278153E+03  0.13211964675E+04  0.00000000000E+00 0.  1.
        -13    1    3    3    0    0  0.60575697206E+02 -0.61253892266E+03 -0.18617485791E+03  0.64306642315E+03  0.00000000000E+00 0. -1.
         22    1    1    2    0    0 -0.43090089187E+02  0.18868340412E+04 -0.13923251021E+03  0.18924547938E+04  0.00000000000E+00 0.  1.
<mgrwt>
<rscale>  0 0.37973899E+04</rscale>
<asrwt>0</asrwt>
<pdfrwt beam="1">  1        1 0.24483443E+00 0.37973899E+04</pdfrwt>
<pdfrwt beam="2">  1       -1 0.34850676E+00 0.37973899E+04</pdfrwt>
<totfact> 0.71527617E-02</totfact>
</mgrwt>
</event>
<event>
 6    1  0.1072514E-005  0.1611287E+04  0.7818608E-02  0.8813644E-01
          2   -1    0    0  501    0  0.00000000000E+00  0.00000000000E+00  0.13765018129E+04  0.13765018129E+04  0.00000000000E+00 0. -1.
         -2   -1    0    0    0  501 -0.00000000000E+00 -0.00000000000E+00 -0.47152987784E+03  0.47152987784E+03  0.00000000000E+00 0.  1.
         23    2    1    2    0    0 -0.14903589215E+03 -0.78034898804E+03  0.58704450357E+03  0.99232491152E+03  0.94505240962E+02 0.  0.
         13    1    3    3    0    0 -0.10801148038E+03 -0.35773555534E+03  0.30779155579E+03  0.48412482818E+03  0.00000000000E+00 0.  1.
        -13    1    3    3    0    0 -0.41024411768E+02 -0.42261343271E+03  0.27925294778E+03  0.50820008334E+03  0.00000000000E+00 0. -1.
         22    1    1    2    0    0  0.14903589215E+03  0.78034898804E+03  0.31792743148E+03  0.85570677920E+03  0.00000000000E+00 0. -1.
<mgrwt>
<rscale>  0 0.16112874E+04</rscale>
<asrwt>0</asrwt>
<pdfrwt beam="1">  1        2 0.21176951E+00 0.16112874E+04</pdfrwt>
<pdfrwt beam="2">  1       -2 0.72543059E-01 0.16112874E+04</pdfrwt>
<totfact> 0.24582991E+01</totfact>
</mgrwt>
</event>
<event>
 6    1  0.1072514E-005  0.1786561E+04  0.7818608E-02  0.8713479E-01
         -2   -1    0    0    0  501 -0.00000000000E+00  0.00000000000E+00  0.28520838848E+03  0.28520838848E+03  0.00000000000E+00 0.  1.
          2   -1    0    0  501    0  0.00000000000E+00 -0.00000000000E+00 -0.27977794473E+04  0.27977794473E+04  0.00000000000E+00 0. -1.
         23    2    1    2    0    0 -0.31042826713E+03 -0.74183676653E+03 -0.59893717469E+03  0.10072513063E+04  0.95613585170E+02 0.  0.
         13    1    3    3    0    0 -0.69494563822E+00 -0.66778403392E+02 -0.57497191882E+02  0.88123579042E+02  0.00000000000E+00 0. -1.
        -13    1    3    3    0    0 -0.30973332149E+03 -0.67505836314E+03 -0.54143998281E+03  0.91912772728E+03  0.00000000000E+00 0.  1.
         22    1    1    2    0    0  0.31042826713E+03  0.74183676653E+03 -0.19136338842E+04  0.20757365295E+04  0.00000000000E+00 0. -1.
<mgrwt>
<rscale>  0 0.17865611E+04</rscale>
<asrwt>0</asrwt>
<pdfrwt beam="1">  1        2 0.43042759E+00 0.17865611E+04</pdfrwt>
<pdfrwt beam="2">  1       -2 0.43878215E-01 0.17865611E+04</pdfrwt>
<totfact> 0.10826594E+01</totfact>
</mgrwt>
</event>
<event>
 6    1  0.1072514E-005  0.3059162E+04  0.7818608E-02  0.8227036E-01
         -2   -1    0    0    0  501 -0.00000000000E+00  0.00000000000E+00  0.92845684572E+03  0.92845684572E+03  0.00000000000E+00 0.  1.
          2   -1    0    0  501    0  0.00000000000E+00 -0.00000000000E+00 -0.25199001547E+04  0.25199001547E+04  0.00000000000E+00 0. -1.
         23    2    1    2    0    0 -0.20897855202E+03 -0.42129424075E+03  0.84254201603E+03  0.96935610594E+03  0.92808075342E+02 0.  0.
         11    1    3    3    0    0 -0.13885120542E+03 -0.34127792201E+03  0.70492489541E+03  0.79540517063E+03  0.00000000000E+00 0. -1.
        -11    1    3    3    0    0 -0.70127346604E+02 -0.80016318739E+02  0.13761712062E+03  0.17395093531E+03  0.00000000000E+00 0.  1.
         22    1    1    2    0    0  0.20897855202E+03  0.42129424075E+03 -0.24339853250E+04  0.24790008945E+04  0.00000000000E+00 0. -1.
<mgrwt>
<rscale>  0 0.30591623E+04</rscale>
<asrwt>0</asrwt>
<pdfrwt beam="1">  1        2 0.38767695E+00 0.30591623E+04</pdfrwt>
<pdfrwt beam="2">  1       -2 0.14283951E+00 0.30591623E+04</pdfrwt>
<totfact> 0.98395749E-01</totfact>
</mgrwt>
</event>
<event>
 6    1  0.1072514E-005  0.3552269E+04  0.7818608E-02  0.8101513E-01
          1   -1    0    0  501    0  0.00000000000E+00  0.00000000000E+00  0.31656203759E+04  0.31656203759E+04  0.00000000000E+00 0. -1.
         -1   -1    0    0    0  501 -0.00000000000E+00 -0.00000000000E+00 -0.99653550960E+03  0.99653550960E+03  0.00000000000E+00 0.  1.
         23    2    1    2    0    0 -0.54034969233E+03  0.83946117033E+03  0.28048388556E+04  0.29785782659E+04  0.90192205581E+02 0.  0.
         11    1    3    3    0    0 -0.22733633314E+03  0.29079631596E+03  0.11172349365E+04  0.11766300222E+04  0.00000000000E+00 0.  1.
        -11    1    3    3    0    0 -0.31301335920E+03  0.54866485437E+03  0.16876039191E+04  0.18019482438E+04  0.00000000000E+00 0. -1.
         22    1    1    2    0    0  0.54034969233E+03 -0.83946117033E+03 -0.63575398932E+03  0.11835776195E+04  0.00000000000E+00 0.  1.
<mgrwt>
<rscale>  0 0.35522686E+04</rscale>
<asrwt>0</asrwt>
<pdfrwt beam="1">  1        1 0.48701852E+00 0.35522686E+04</pdfrwt>
<pdfrwt beam="2">  1       -1 0.15331316E+00 0.35522686E+04</pdfrwt>
<totfact> 0.12035094E-01</totfact>
</mgrwt>
</event>
<event>
 6    1  0.1072514E-005  0.1143358E+04  0.7818608E-02  0.9163933E-01
          2   -1    0    0  501    0  0.00000000000E+00  0.00000000000E+00  0.21107368545E+04  0.21107368545E+04  0.00000000000E+00 0. -1.
         -2   -1    0    0    0  501 -0.00000000000E+00 -0.00000000000E+00 -0.15483536021E+03  0.15483536021E+03  0.00000000000E+00 0.  1.
         23    2    1    2    0    0  0.26097239629E+02 -0.31671775104E+03  0.19171613792E+04  0.19454285029E+04  0.90515777587E+02 0.  0.
         13    1    3    3    0    0  0.28875349838E+02 -0.26674395059E+03  0.13729396114E+04  0.13989100391E+04  0.00000000000E+00 0. -1.
        -13    1    3    3    0    0 -0.27781102090E+01 -0.49973800450E+02  0.54422176782E+03  0.54651846373E+03  0.00000000000E+00 0.  1.
         22    1    1    2    0    0 -0.26097239629E+02  0.31671775104E+03  0.38740115098E+02  0.32014371188E+03  0.00000000000E+00 0.  1.
<mgrwt>
<rscale>  0 0.11433577E+04</rscale>
<asrwt>0</asrwt>
<pdfrwt beam="1">  1        2 0.32472873E+00 0.11433577E+04</pdfrwt>
<pdfrwt beam="2">  1       -2 0.23820826E-01 0.11433577E+04</pdfrwt>
<totfact> 0.90100466E+01</totfact>
</mgrwt>
</event>
<event>
 6    1  0.1072514E-005  0.2958759E+04  0.7818608E-02  0.8255607E-01
          2   -1    0    0  501    0  0.00000000000E+00  0.00000000000E+00  0.14691046303E+04  0.14691046303E+04  0.00000000000E+00 0. -1.
         -2   -1    0    0    0  501 -0.00000000000E+00 -0.00000000000E+00 -0.14897262052E+04  0.14897262052E+04  0.00000000000E+00 0.  1.
         23    2    1    2    0    0 -0.15321335688E+03  0.46427080993E+03  0.13845705736E+04  0.14710181148E+04  0.88526283334E+02 0.  0.
         13    1    3    3    0    0 -0.93957412176E+02  0.37747020588E+03  0.10220807182E+04  0.10935999023E+04  0.00000000000E+00 0. -1.
        -13    1    3    3    0    0 -0.59255944700E+02  0.86800604050E+02  0.36248985542E+03  0.37741821250E+03  0.00000000000E+00 0.  1.
         22    1    1    2    0    0  0.15321335688E+03 -0.46427080993E+03 -0.14051921486E+04  0.14878127208E+04  0.00000000000E+00 0.  1.
<mgrwt>
<rscale>  0 0.29587590E+04</rscale>
<asrwt>0</asrwt>
<pdfrwt beam="1">  1        2 0.22601610E+00 0.29587590E+04</pdfrwt>
<pdfrwt beam="2">  1       -2 0.22918865E+00 0.29587590E+04</pdfrwt>
<totfact> 0.98199237E-01</totfact>
</mgrwt>
</event>
<event>
 6    1  0.1072514E-005  0.1298433E+04  0.7818608E-02  0.9030809E-01
          2   -1    0    0  501    0  0.00000000000E+00  0.00000000000E+00  0.11638843674E+04  0.11638843674E+04  0.00000000000E+00 0. -1.
         -2   -1    0    0    0  501 -0.00000000000E+00 -0.00000000000E+00 -0.36213371339E+03  0.36213371339E+03  0.00000000000E+00 0.  1.
         23    2    1    2    0    0  0.36520765332E+03  0.30886283324E+03 -0.10749392133E+03  0.49864347649E+03  0.91200294526E+02 0.  0.
         11    1    3    3    0    0  0.21883869451E+03  0.15579599342E+03 -0.10026833757E+03  0.28673420671E+03  0.00000000000E+00 0. -1.
        -11    1    3    3    0    0  0.14636895881E+03  0.15306683982E+03 -0.72255837565E+01  0.21190926977E+03  0.00000000000E+00 0.  1.
         22    1    1    2    0    0 -0.36520765332E+03 -0.30886283324E+03  0.90924457533E+03  0.10273746043E+04  0.00000000000E+00 0. -1.
<mgrwt>
<rscale>  0 0.12984325E+04</rscale>
<asrwt>0</asrwt>
<pdfrwt beam="1">  1        2 0.17905913E+00 0.12984325E+04</pdfrwt>
<pdfrwt beam="2">  1       -2 0.55712879E-01 0.12984325E+04</pdfrwt>
<totfact> 0.59075243E+01</totfact>
</mgrwt>
</event>
<event>
 6    1  0.1072514E-005  0.2452755E+04  0.7818608E-02  0.8420013E-01
          2   -1    0    0  501    0  0.00000000000E+00  0.00000000000E+00  0.10066225276E+04  0.10066225276E+04  0.00000000000E+00 0. -1.
         -2   -1    0    0    0  501 -0.00000000000E+00 -0.00000000000E+00 -0.14941071191E+04  0.14941071191E+04  0.00000000000E+00 0.  1.
         23    2    1    2    0    0  0.96325653928E+03 -0.58395079519E+03 -0.73379903455E+03  0.13476760935E+04  0.94382934438E+02 0.  0.
         11    1    3    3    0    0  0.27450457686E+03 -0.21312237397E+03 -0.20522220717E+03  0.40359641143E+03  0.00000000000E+00 0. -1.
        -11    1    3    3    0    0  0.68875196242E+03 -0.37082842122E+03 -0.52857682738E+03  0.94407968211E+03  0.00000000000E+00 0.  1.
         22    1    1    2    0    0 -0.96325653928E+03  0.58395079519E+03  0.24631444296E+03  0.11530535532E+04  0.00000000000E+00 0. -1.
<mgrwt>
<rscale>  0 0.24527551E+04</rscale>
<asrwt>0</asrwt>
<pdfrwt beam="1">  1        2 0.15486500E+00 0.24527551E+04</pdfrwt>
<pdfrwt beam="2">  1       -2 0.22986263E+00 0.24527551E+04</pdfrwt>
<totfact> 0.19128682E+00</totfact>
</mgrwt>
</event>
<event>
 6    1  0.1072514E-005  0.1894110E+04  0.7818608E-02  0.8657794E-01
         -2   -1    0    0    0  501 -0.00000000000E+00  0.00000000000E+00  0.12042629964E+04  0.12042629964E+04  0.00000000000E+00 0.  1.
          2   -1    0    0  501    0  0.00000000000E+00 -0.00000000000E+00 -0.74478182957E+03  0.74478182957E+03  0.00000000000E+00 0. -1.
         23    2    1    2    0    0 -0.45381001023E+03 -0.27529364141E+03 -0.57455401604E+03  0.78673726177E+03  0.84339120931E+02 0.  0.
         13    1    3    3    0    0 -0.30450776642E+03 -0.20844117272E+03 -0.44476665311E+03  0.57791874690E+03  0.00000000000E+00 0. -1.
        -13    1    3    3    0    0 -0.14930224381E+03 -0.66852468690E+02 -0.12978736293E+03  0.20881851487E+03  0.00000000000E+00 0.  1.
         22    1    1    2    0    0  0.45381001023E+03  0.27529364141E+03  0.10340351829E+04  0.11623075642E+04  0.00000000000E+00 0.  1.
<mgrwt>
<rscale>  0 0.18941100E+04</rscale>
<asrwt>0</asrwt>
<pdfrwt beam="1">  1        2 0.11458182E+00 0.18941100E+04</pdfrwt>
<pdfrwt beam="2">  1       -2 0.18527123E+00 0.18941100E+04</pdfrwt>
<totfact> 0.59120504E+00</totfact>
</mgrwt>
</event>
<event>
 6    1  0.1072514E-005  0.1621637E+04  0.7818608E-02  0.8807365E-01
          1   -1    0    0  501    0  0.00000000000E+00  0.00000000000E+00  0.13822756572E+04  0.13822756572E+04  0.00000000000E+00 0. -1.
         -1   -1    0    0    0  501 -0.00000000000E+00 -0.00000000000E+00 -0.47561159989E+03  0.47561159989E+03  0.00000000000E+00 0.  1.
         23    2    1    2    0    0 -0.80019172514E+03  0.98405273990E+02  0.39061291048E+03  0.90065208165E+03  0.92764925559E+02 0.  0.
         11    1    3    3    0    0 -0.20446278342E+03  0.41139251504E+02  0.60439644811E+02  0.21714147113E+03  0.00000000000E+00 0. -1.
        -11    1    3    3    0    0 -0.59572894172E+03  0.57266022486E+02  0.33017326567E+03  0.68351061052E+03  0.00000000000E+00 0.  1.
         22    1    1    2    0    0  0.80019172514E+03 -0.98405273990E+02  0.51605114682E+03  0.95723517542E+03  0.00000000000E+00 0. -1.
<mgrwt>
<rscale>  0 0.16216366E+04</rscale>
<asrwt>0</asrwt>
<pdfrwt beam="1">  1        1 0.21265779E+00 0.16216366E+04</pdfrwt>
<pdfrwt beam="2">  1       -1 0.73171016E-01 0.16216366E+04</pdfrwt>
<totfact> 0.14256718E+01</totfact>
</mgrwt>
</event>
<event>
 6    1  0.1072514E-005  0.1445031E+04  0.7818608E-02  0.8921853E-01
          1   -1    0    0  501    0  0.00000000000E+00  0.00000000000E+00  0.10596501124E+04  0.10596501124E+04  0.00000000000E+00 0. -1.
         -1   -1    0    0    0  501 -0.00000000000E+00 -0.00000000000E+00 -0.49264261640E+03  0.49264261640E+03  0.00000000000E+00 0.  1.
         23    2    1    2    0    0 -0.24420312794E+03  0.46667428626E+03  0.81158166068E+03  0.97157198770E+03  0.88697678534E+02 0.  0.
         11    1    3    3    0    0 -0.51899589758E+02  0.18666239223E+03  0.27126456922E+03  0.33334799025E+03  0.00000000000E+00 0.  1.
        -11    1    3    3    0    0 -0.19230353819E+03  0.28001189403E+03  0.54031709145E+03  0.63822399744E+03  0.00000000000E+00 0. -1.
         22    1    1    2    0    0  0.24420312794E+03 -0.46667428626E+03 -0.24457416465E+03  0.58072074112E+03  0.00000000000E+00 0.  1.
<mgrwt>
<rscale>  0 0.14450312E+04</rscale>
<asrwt>0</asrwt>
<pdfrwt beam="1">  1        1 0.16302309E+00 0.14450312E+04</pdfrwt>
<pdfrwt beam="2">  1       -1 0.75791172E-01 0.14450312E+04</pdfrwt>
<totfact> 0.23124281E+01</totfact>
</mgrwt>
</event>
<event>
 6    1  0.1106743E-005  0.2639755E+04  0.7818608E-02  0.8354821E-01
          2   -1    0    0  501    0  0.00000000000E+00  0.00000000000E+00  0.12784259902E+04  0.12784259902E+04  0.00000000000E+00 0.  1.
         -2   -1    0    0    0  501 -0.00000000000E+00 -0.00000000000E+00 -0.13626734830E+04  0.13626734830E+04  0.00000000000E+00 0. -1.
         23    2    1    2    0    0 -0.22000452349E+02  0.45182219844E+03 -0.12810370799E+04  0.13616727912E+04  0.92029730236E+02 0.  0.
         11    1    3    3    0    0 -0.25345580283E+02  0.27146597591E+03 -0.63805362843E+03  0.69386497769E+03  0.00000000000E+00 0.  1.
        -11    1    3    3    0    0  0.33451279335E+01  0.18035622254E+03 -0.64298345149E+03  0.66780781350E+03  0.00000000000E+00 0. -1.
         22    1    1    2    0    0  0.22000452349E+02 -0.45182219844E+03  0.11967895871E+04  0.12794266820E+04  0.00000000000E+00 0.  1.
<mgrwt>
<rscale>  0 0.26397554E+04</rscale>
<asrwt>0</asrwt>
<pdfrwt beam="1">  1        2 0.19668092E+00 0.26397554E+04</pdfrwt>
<pdfrwt beam="2">  1       -2 0.20964207E+00 0.26397554E+04</pdfrwt>
<totfact> 0.17274028E+00</totfact>
</mgrwt>
</event>
<event>
 6    1  0.1072514E-005  0.1094835E+04  0.7818608E-02  0.9210241E-01
          2   -1    0    0  501    0  0.00000000000E+00  0.00000000000E+00  0.36995527599E+03  0.36995527599E+03  0.00000000000E+00 0.  1.
         -2   -1    0    0    0  501 -0.00000000000E+00 -0.00000000000E+00 -0.81000519899E+03  0.81000519899E+03  0.00000000000E+00 0. -1.
         23    2    1    2    0    0  0.75719381091E+02  0.27514945025E+03  0.27328996855E+03  0.41165425639E+03  0.11546070869E+03 0.  0.
         11    1    3    3    0    0  0.24007415937E+02  0.21183868216E+03  0.24587739306E+03  0.32543459511E+03  0.00000000000E+00 0. -1.
        -11    1    3    3    0    0  0.51711965154E+02  0.63310768089E+02  0.27412575488E+02  0.86219661278E+02  0.00000000000E+00 0.  1.
         22    1    1    2    0    0 -0.75719381091E+02 -0.27514945025E+03 -0.71333989155E+03  0.76830621859E+03  0.00000000000E+00 0. -1.
<mgrwt>
<rscale>  0 0.10948346E+04</rscale>
<asrwt>0</asrwt>
<pdfrwt beam="1">  1        2 0.56916198E-01 0.10948346E+04</pdfrwt>
<pdfrwt beam="2">  1       -2 0.12461618E+00 0.10948346E+04</pdfrwt>
<totfact> 0.41647807E+01</totfact>
</mgrwt>
</event>
<event>
 6    1  0.1072514E-005  0.5736931E+03  0.7818608E-02  0.9961539E-01
          1   -1    0    0  501    0  0.00000000000E+00  0.00000000000E+00  0.40085438860E+03  0.40085438860E+03  0.00000000000E+00 0. -1.
         -1   -1    0    0    0  501 -0.00000000000E+00 -0.00000000000E+00 -0.20526392374E+03  0.20526392374E+03  0.00000000000E+00 0.  1.
         23    2    1    2    0    0  0.10951071412E+03  0.17276938066E+02 -0.17060003861E+03  0.22351332814E+03  0.92535104614E+02 0.  0.
         11    1    3    3    0    0  0.23411446852E+02  0.28398571525E+02 -0.11420635866E+03  0.11999027905E+03  0.00000000000E+00 0. -1.
        -11    1    3    3    0    0  0.86099267264E+02 -0.11121633459E+02 -0.56393679957E+02  0.10352304909E+03  0.00000000000E+00 0.  1.
         22    1    1    2    0    0 -0.10951071412E+03 -0.17276938066E+02  0.36619050348E+03  0.38260498420E+03  0.00000000000E+00 0. -1.
<mgrwt>
<rscale>  0 0.57369310E+03</rscale>
<asrwt>0</asrwt>
<pdfrwt beam="1">  1        1 0.61669906E-01 0.57369310E+03</pdfrwt>
<pdfrwt beam="2">  1       -1 0.31579065E-01 0.57369310E+03</pdfrwt>
<totfact> 0.56309407E+02</totfact>
</mgrwt>
</event>
<event>
 6    1  0.1072514E-005  0.1115113E+04  0.7818608E-02  0.9190585E-01
          2   -1    0    0  501    0  0.00000000000E+00  0.00000000000E+00  0.67118867936E+03  0.67118867936E+03  0.00000000000E+00 0. -1.
         -2   -1    0    0    0  501 -0.00000000000E+00 -0.00000000000E+00 -0.46316246042E+03  0.46316246042E+03  0.00000000000E+00 0.  1.
         23    2    1    2    0    0  0.43749155152E+03  0.17395940526E+03  0.40136545595E+03  0.62539063748E+03  0.91424766289E+02 0.  0.
         13    1    3    3    0    0  0.26879397798E+03  0.63668089912E+02  0.20492824659E+03  0.34394681932E+03  0.00000000000E+00 0.  1.
        -13    1    3    3    0    0  0.16869757354E+03  0.11029131535E+03  0.19643720936E+03  0.28144381816E+03  0.00000000000E+00 0. -1.
         22    1    1    2    0    0 -0.43749155152E+03 -0.17395940526E+03 -0.19333923701E+03  0.50896050229E+03  0.00000000000E+00 0. -1.
<mgrwt>
<rscale>  0 0.11151133E+04</rscale>
<asrwt>0</asrwt>
<pdfrwt beam="1">  1        2 0.10325980E+00 0.11151133E+04</pdfrwt>
<pdfrwt beam="2">  1       -2 0.71255763E-01 0.11151133E+04</pdfrwt>
<totfact> 0.76666252E+01</totfact>
</mgrwt>
</event>
<event>
 6    1  0.1072514E-005  0.2362263E+04  0.7818608E-02  0.8453768E-01
          1   -1    0    0  501    0  0.00000000000E+00  0.00000000000E+00  0.46702067760E+03  0.46702067760E+03  0.00000000000E+00 0. -1.
         -1   -1    0    0    0  501 -0.00000000000E+00 -0.00000000000E+00 -0.29871725738E+04  0.29871725738E+04  0.00000000000E+00 0.  1.
         23    2    1    2    0    0  0.56231095676E+03  0.54695810395E+03  0.26752575530E+02  0.78922061220E+03  0.82442069668E+02 0.  0.
         13    1    3    3    0    0  0.35676768719E+03  0.36943178054E+03 -0.18350588398E+02  0.51390637979E+03  0.00000000000E+00 0. -1.
        -13    1    3    3    0    0  0.20554326958E+03  0.17752632341E+03  0.45103163928E+02  0.27531423241E+03  0.00000000000E+00 0.  1.
         22    1    1    2    0    0 -0.56231095676E+03 -0.54695810395E+03 -0.25469044718E+04  0.26649726392E+04  0.00000000000E+00 0.  1.
<mgrwt>
<rscale>  0 0.23622628E+04</rscale>
<asrwt>0</asrwt>
<pdfrwt beam="1">  1        1 0.71849333E-01 0.23622628E+04</pdfrwt>
<pdfrwt beam="2">  1       -1 0.45956502E+00 0.23622628E+04</pdfrwt>
<totfact> 0.12157916E-01</totfact>
</mgrwt>
</event>
<event>
 6    1  0.1072514E-005  0.9781037E+03  0.7818608E-02  0.9332892E-01
         -1   -1    0    0    0  501 -0.00000000000E+00  0.00000000000E+00  0.12078183674E+03  0.12078183674E+03  0.00000000000E+00 0.  1.
          1   -1    0    0  501    0  0.00000000000E+00 -0.00000000000E+00 -0.19801959376E+04  0.19801959376E+04  0.00000000000E+00 0. -1.
         23    2    1    2    0    0  0.15171125506E+02 -0.19453391006E+03 -0.18908955300E+04  0.19033298915E+04  0.95420989619E+02 0.  0.
         13    1    3    3    0    0 -0.23913529568E+01 -0.11092190851E+03 -0.64206478919E+03  0.65158006559E+03  0.00000000000E+00 0.  1.
        -13    1    3    3    0    0  0.17562478463E+02 -0.83612001547E+02 -0.12488307408E+04  0.12517498259E+04  0.00000000000E+00 0. -1.
         22    1    1    2    0    0 -0.15171125506E+02  0.19453391006E+03  0.31481429151E+02  0.19764788284E+03  0.00000000000E+00 0.  1.
<mgrwt>
<rscale>  0 0.97810368E+03</rscale>
<asrwt>0</asrwt>
<pdfrwt beam="1">  1        1 0.30464552E+00 0.97810368E+03</pdfrwt>
<pdfrwt beam="2">  1       -1 0.18581822E-01 0.97810368E+03</pdfrwt>
<totfact> 0.71726479E+01</totfact>
</mgrwt>
</event>
<event>
 6    1  0.1072514E-005  0.1887320E+04  0.7818608E-02  0.8661194E-01
          1   -1    0    0  501    0  0.00000000000E+00  0.00000000000E+00  0.12183802008E+04  0.12183802008E+04  0.00000000000E+00 0. -1.
         -1   -1    0    0    0  501 -0.00000000000E+00 -0.00000000000E+00 -0.73088404471E+03  0.73088404471E+03  0.00000000000E+00 0.  1.
         23    2    1    2    0    0  0.59819734944E+03 -0.55454135304E+03  0.72989986545E+03  0.10983143414E+04  0.90467661431E+02 0.  0.
         13    1    3    3    0    0  0.55937428936E+03 -0.48702472260E+03  0.67666547149E+03  0.10039765118E+04  0.00000000000E+00 0.  1.
        -13    1    3    3    0    0  0.38823060080E+02 -0.67516630439E+02  0.53234393961E+02  0.94337829528E+02  0.00000000000E+00 0. -1.
         22    1    1    2    0    0 -0.59819734944E+03  0.55454135304E+03 -0.24240370933E+03  0.85094990417E+03  0.00000000000E+00 0.  1.
<mgrwt>
<rscale>  0 0.18873205E+04</rscale>
<asrwt>0</asrwt>
<pdfrwt beam="1">  1        1 0.18744311E+00 0.18873205E+04</pdfrwt>
<pdfrwt beam="2">  1       -1 0.11244370E+00 0.18873205E+04</pdfrwt>
<totfact> 0.70295930E+00</totfact>
</mgrwt>
</event>
<event>
 6    1  0.1072514E-005  0.2391480E+04  0.7818608E-02  0.8442700E-01
         -2   -1    0    0    0  501 -0.00000000000E+00  0.00000000000E+00  0.62246758983E+03  0.62246758983E+03  0.00000000000E+00 0.  1.
          2   -1    0    0  501    0  0.00000000000E+00 -0.00000000000E+00 -0.22969774988E+04  0.22969774988E+04  0.00000000000E+00 0. -1.
         23    2    1    2    0    0 -0.10395916621E+03 -0.99237831309E+03 -0.38015393319E+02  0.10027457058E+04  0.91823503367E+02 0.  0.
         13    1    3    3    0    0 -0.94517213335E+02 -0.70556620423E+03 -0.63236852846E+02  0.71467200290E+03  0.00000000000E+00 0. -1.
        -13    1    3    3    0    0 -0.94419528713E+01 -0.28681210886E+03  0.25221459527E+02  0.28807370287E+03  0.00000000000E+00 0.  1.
         22    1    1    2    0    0  0.10395916621E+03  0.99237831309E+03 -0.16364945156E+04  0.19166993829E+04  0.00000000000E+00 0. -1.
<mgrwt>
<rscale>  0 0.23914799E+04</rscale>
<asrwt>0</asrwt>
<pdfrwt beam="1">  1        2 0.35338116E+00 0.23914799E+04</pdfrwt>
<pdfrwt beam="2">  1       -2 0.95764244E-01 0.23914799E+04</pdfrwt>
<totfact> 0.37457890E+00</totfact>
</mgrwt>
</event>
<event>
 6    1  0.1072514E-005  0.2177000E+04  0.7818608E-02  0.8528062E-01
          1   -1    0    0  501    0  0.00000000000E+00  0.00000000000E+00  0.41341437401E+03  0.41341437401E+03  0.00000000000E+00 0. -1.
         -1   -1    0    0    0  501 -0.00000000000E+00 -0.00000000000E+00 -0.28659690230E+04  0.28659690230E+04  0.00000000000E+00 0.  1.
         23    2    1    2    0    0  0.31929613497E+03  0.87365140462E+03 -0.38257189369E+03  0.10100122493E+04  0.92448317348E+02 0.  0.
         13    1    3    3    0    0  0.66565244616E+02  0.18203381384E+03 -0.40136467398E+02  0.19793478014E+03  0.00000000000E+00 0. -1.
        -13    1    3    3    0    0  0.25273089035E+03  0.69161759078E+03 -0.34243542630E+03  0.81207746921E+03  0.00000000000E+00 0.  1.
         22    1    1    2    0    0 -0.31929613497E+03 -0.87365140462E+03 -0.20699827553E+04  0.22693711477E+04  0.00000000000E+00 0.  1.
<mgrwt>
<rscale>  0 0.21770005E+04</rscale>
<asrwt>0</asrwt>
<pdfrwt beam="1">  1        1 0.63602212E-01 0.21770005E+04</pdfrwt>
<pdfrwt beam="2">  1       -1 0.44091830E+00 0.21770005E+04</pdfrwt>
<totfact> 0.19609381E-01</totfact>
</mgrwt>
</event>
<event>
 6    1  0.1072514E-005  0.3486646E+04  0.7818608E-02  0.8116962E-01
          1   -1    0    0  501    0  0.00000000000E+00  0.00000000000E+00  0.15396973296E+04  0.15396973296E+04  0.00000000000E+00 0. -1.
         -1   -1    0    0    0  501 -0.00000000000E+00 -0.00000000000E+00 -0.19738786133E+04  0.19738786133E+04  0.00000000000E+00 0.  1.
         23    2    1    2    0    0  0.82333743448E+02 -0.38806650654E+03 -0.19267280413E+04  0.19692086671E+04  0.90151932252E+02 0.  0.
         11    1    3    3    0    0  0.24518845914E+02 -0.14889841429E+03 -0.95296845041E+03  0.96484235970E+03  0.00000000000E+00 0.  1.
        -11    1    3    3    0    0  0.57814897534E+02 -0.23916809225E+03 -0.97375959086E+03  0.10043663074E+04  0.00000000000E+00 0. -1.
         22    1    1    2    0    0 -0.82333743448E+02  0.38806650654E+03  0.14925467576E+04  0.15443672758E+04  0.00000000000E+00 0. -1.
<mgrwt>
<rscale>  0 0.34866463E+04</rscale>
<asrwt>0</asrwt>
<pdfrwt beam="1">  1        1 0.23687652E+00 0.34866463E+04</pdfrwt>
<pdfrwt beam="2">  1       -1 0.30367363E+00 0.34866463E+04</pdfrwt>
<totfact> 0.15675727E-01</totfact>
</mgrwt>
</event>
<event>
 6    1  0.1072514E-005  0.1083021E+04  0.7818608E-02  0.9221900E-01
          1   -1    0    0  501    0  0.00000000000E+00  0.00000000000E+00  0.87406031480E+03  0.87406031480E+03  0.00000000000E+00 0. -1.
         -1   -1    0    0    0  501 -0.00000000000E+00 -0.00000000000E+00 -0.33548460035E+03  0.33548460035E+03  0.00000000000E+00 0.  1.
         23    2    1    2    0    0 -0.10262079104E+03  0.23563679203E+03 -0.25628547705E+03  0.37416473927E+03  0.90891593972E+02 0.  0.
         13    1    3    3    0    0 -0.10755743572E+02  0.39682994969E+02 -0.33099796411E+01  0.41247812969E+02  0.00000000000E+00 0.  1.
        -13    1    3    3    0    0 -0.91865047469E+02  0.19595379706E+03 -0.25297549741E+03  0.33291692630E+03  0.00000000000E+00 0. -1.
         22    1    1    2    0    0  0.10262079104E+03 -0.23563679203E+03  0.79486119149E+03  0.83538017588E+03  0.00000000000E+00 0. -1.
<mgrwt>
<rscale>  0 0.10830213E+04</rscale>
<asrwt>0</asrwt>
<pdfrwt beam="1">  1        1 0.13447082E+00 0.10830213E+04</pdfrwt>
<pdfrwt beam="2">  1       -1 0.51613016E-01 0.10830213E+04</pdfrwt>
<totfact> 0.72021506E+01</totfact>
</mgrwt>
</event>
<event>
 6    1  0.1072514E-005  0.5058355E+04  0.7818608E-02  0.7819568E-01
         -2   -1    0    0    0  501 -0.00000000000E+00  0.00000000000E+00  0.20290622646E+04  0.20290622646E+04  0.00000000000E+00 0.  1.
          2   -1    0    0  501    0  0.00000000000E+00 -0.00000000000E+00 -0.31525585613E+04  0.31525585613E+04  0.00000000000E+00 0. -1.
         23    2    1    2    0    0 -0.19413550463E+04  0.11517223436E+04 -0.17287149673E+04  0.28446113241E+04  0.89634674539E+02 0.  0.
         11    1    3    3    0    0 -0.69714996448E+03  0.41040080175E+03 -0.56591288697E+03  0.98727113130E+03  0.00000000000E+00 0.  1.
        -11    1    3    3    0    0 -0.12442050818E+04  0.74132154182E+03 -0.11628020803E+04  0.18573401928E+04  0.00000000000E+00 0. -1.
         22    1    1    2    0    0  0.19413550463E+04 -0.11517223436E+04  0.60521867058E+03  0.23370095018E+04  0.00000000000E+00 0.  1.
<mgrwt>
<rscale>  0 0.50583545E+04</rscale>
<asrwt>0</asrwt>
<pdfrwt beam="1">  1        2 0.48500901E+00 0.50583545E+04</pdfrwt>
<pdfrwt beam="2">  1       -2 0.31216343E+00 0.50583545E+04</pdfrwt>
<totfact> 0.26976890E-02</totfact>
</mgrwt>
</event>
<event>
 6    1  0.1072514E-005  0.2043728E+04  0.7818608E-02  0.8586445E-01
          1   -1    0    0  501    0  0.00000000000E+00  0.00000000000E+00  0.20310871052E+04  0.20310871052E+04  0.00000000000E+00 0. -1.
         -1   -1    0    0    0  501 -0.00000000000E+00 -0.00000000000E+00 -0.51411208065E+03  0.51411208065E+03  0.00000000000E+00 0.  1.
         23    2    1    2    0    0 -0.70018129227E+03 -0.27098595996E+03 -0.10007096608E+03  0.76235736214E+03  0.86529282985E+02 0.  0.
         13    1    3    3    0    0 -0.26078634676E+03 -0.13842125622E+03 -0.63105624729E+02  0.30191436319E+03  0.00000000000E+00 0.  1.
        -13    1    3    3    0    0 -0.43939494550E+03 -0.13256470374E+03 -0.36965341355E+02  0.46044299894E+03  0.00000000000E+00 0. -1.
         22    1    1    2    0    0  0.70018129227E+03  0.27098595996E+03  0.16170459906E+04  0.17828418237E+04  0.00000000000E+00 0. -1.
<mgrwt>
<rscale>  0 0.20437284E+04</rscale>
<asrwt>0</asrwt>
<pdfrwt beam="1">  1        1 0.31247494E+00 0.20437284E+04</pdfrwt>
<pdfrwt beam="2">  1       -1 0.79094167E-01 0.20437284E+04</pdfrwt>
<totfact> 0.41922487E+00</totfact>
</mgrwt>
</event>
<event>
 6    1  0.1072514E-005  0.4597227E+04  0.7818608E-02  0.7893833E-01
         -2   -1    0    0    0  501 -0.00000000000E+00  0.00000000000E+00  0.25128891835E+04  0.25128891835E+04  0.00000000000E+00 0. -1.
          2   -1    0    0  501    0  0.00000000000E+00 -0.00000000000E+00 -0.21026092051E+04  0.21026092051E+04  0.00000000000E+00 0.  1.
         23    2    1    2    0    0 -0.12872925292E+04 -0.39212337747E+03  0.20750731917E+04  0.24748397886E+04  0.89556852139E+02 0.  0.
         13    1    3    3    0    0 -0.12586472596E+04 -0.36834966967E+03  0.20171239495E+04  0.24059641375E+04  0.00000000000E+00 0. -1.
        -13    1    3    3    0    0 -0.28645269573E+02 -0.23773707801E+02  0.57949242197E+02  0.68875651160E+02  0.00000000000E+00 0.  1.
         22    1    1    2    0    0  0.12872925292E+04  0.39212337747E+03 -0.16647932133E+04  0.21406586000E+04  0.00000000000E+00 0.  1.
<mgrwt>
<rscale>  0 0.45972270E+04</rscale>
<asrwt>0</asrwt>
<pdfrwt beam="1">  1        2 0.32347834E+00 0.45972270E+04</pdfrwt>
<pdfrwt beam="2">  1       -2 0.38659834E+00 0.45972270E+04</pdfrwt>
<totfact> 0.39957662E-02</totfact>
</mgrwt>
</event>
<event>
 6    1  0.1072514E-005  0.3979032E+04  0.7818608E-02  0.8008790E-01
         -2   -1    0    0    0  501 -0.00000000000E+00  0.00000000000E+00  0.27853579441E+04  0.27853579441E+04  0.00000000000E+00 0.  1.
          2   -1    0    0  501    0  0.00000000000E+00 -0.00000000000E+00 -0.14210647068E+04  0.14210647068E+04  0.00000000000E+00 0. -1.
         23    2    1    2    0    0  0.13489482635E+04  0.11045652878E+03 -0.85770732895E+03  0.16046639036E+04  0.86152882484E+02 0.  0.
         13    1    3    3    0    0  0.71261256929E+03  0.29405832555E+02 -0.41376082140E+03  0.82454799389E+03  0.00000000000E+00 0.  1.
        -13    1    3    3    0    0  0.63633569422E+03  0.81050696220E+02 -0.44394650754E+03  0.78011590976E+03  0.00000000000E+00 0. -1.
         22    1    1    2    0    0 -0.13489482635E+04 -0.11045652878E+03  0.22220005662E+04  0.26017587472E+04  0.00000000000E+00 0.  1.
<mgrwt>
<rscale>  0 0.39790320E+04</rscale>
<asrwt>0</asrwt>
<pdfrwt beam="1">  1        2 0.21862534E+00 0.39790320E+04</pdfrwt>
<pdfrwt beam="2">  1       -2 0.42851661E+00 0.39790320E+04</pdfrwt>
<totfact> 0.53545280E-02</totfact>
</mgrwt>
</event>
<event>
 6    1  0.1072514E-005  0.1648472E+04  0.7818608E-02  0.8791311E-01
         -1   -1    0    0    0  501 -0.00000000000E+00  0.00000000000E+00  0.32058690689E+03  0.32058690689E+03  0.00000000000E+00 0.  1.
          1   -1    0    0  501    0  0.00000000000E+00 -0.00000000000E+00 -0.21191280736E+04  0.21191280736E+04  0.00000000000E+00 0. -1.
         23    2    1    2    0    0  0.47615293054E+03  0.31793381735E+03 -0.29730749870E+02  0.58055016364E+03  0.91384077054E+02 0.  0.
         11    1    3    3    0    0  0.27073158535E+03  0.23140975450E+03 -0.32488193926E+02  0.35763325982E+03  0.00000000000E+00 0. -1.
        -11    1    3    3    0    0  0.20542134519E+03  0.86524062850E+02  0.27574440558E+01  0.22291690382E+03  0.00000000000E+00 0.  1.
         22    1    1    2    0    0 -0.47615293054E+03 -0.31793381735E+03 -0.17688104169E+04  0.18591648169E+04  0.00000000000E+00 0. -1.
<mgrwt>
<rscale>  0 0.16484717E+04</rscale>
<asrwt>0</asrwt>
<pdfrwt beam="1">  1        1 0.32601972E+00 0.16484717E+04</pdfrwt>
<pdfrwt beam="2">  1       -1 0.49321060E-01 0.16484717E+04</pdfrwt>
<totfact> 0.97435365E+00</totfact>
</mgrwt>
</event>
<event>
 6    1  0.1072514E-005  0.3251713E+04  0.7818608E-02  0.8175292E-01
          2   -1    0    0  501    0  0.00000000000E+00  0.00000000000E+00  0.14607584191E+04  0.14607584191E+04  0.00000000000E+00 0.  1.
         -2   -1    0    0    0  501 -0.00000000000E+00 -0.00000000000E+00 -0.18096148433E+04  0.18096148433E+04  0.00000000000E+00 0. -1.
         23    2    1    2    0    0 -0.27765644120E+03 -0.15524273808E+04 -0.56728138435E+03  0.16782572694E+04  0.87266381006E+02 0.  0.
         13    1    3    3    0    0 -0.20617674989E+02 -0.21243551329E+03 -0.10316929535E+03  0.23706083467E+03  0.00000000000E+00 0.  1.
        -13    1    3    3    0    0 -0.25703876621E+03 -0.13399918675E+04 -0.46411208900E+03  0.14411964347E+04  0.00000000000E+00 0. -1.
         22    1    1    2    0    0  0.27765644120E+03  0.15524273808E+04  0.21842496015E+03  0.15921159930E+04  0.00000000000E+00 0.  1.
<mgrwt>
<rscale>  0 0.32517135E+04</rscale>
<asrwt>0</asrwt>
<pdfrwt beam="1">  1        2 0.22473207E+00 0.32517135E+04</pdfrwt>
<pdfrwt beam="2">  1       -2 0.27840228E+00 0.32517135E+04</pdfrwt>
<totfact> 0.48246758E-01</totfact>
</mgrwt>
</event>
<event>
 6    1  0.1072514E-005  0.1400996E+04  0.7818608E-02  0.8953098E-01
          1   -1    0    0  501    0  0.00000000000E+00  0.00000000000E+00  0.21155538224E+04  0.21155538224E+04  0.00000000000E+00 0. -1.
         -1   -1    0    0    0  501 -0.00000000000E+00 -0.00000000000E+00 -0.23194742207E+03  0.23194742207E+03  0.00000000000E+00 0.  1.
         23    2    1    2    0    0  0.39715950251E+03  0.44846893716E+03  0.15445866880E+04  0.16591739797E+04  0.90830612520E+02 0.  0.
         13    1    3    3    0    0  0.33431628994E+03  0.38962685741E+03  0.13965035653E+04  0.14878839597E+04  0.00000000000E+00 0. -1.
        -13    1    3    3    0    0  0.62843212569E+02  0.58842079753E+02  0.14808312270E+03  0.17129001998E+03  0.00000000000E+00 0.  1.
         22    1    1    2    0    0 -0.39715950251E+03 -0.44846893716E+03  0.33901971229E+03  0.68832726472E+03  0.00000000000E+00 0.  1.
<mgrwt>
<rscale>  0 0.14009957E+04</rscale>
<asrwt>0</asrwt>
<pdfrwt beam="1">  1        1 0.32546981E+00 0.14009957E+04</pdfrwt>
<pdfrwt beam="2">  1       -1 0.35684220E-01 0.14009957E+04</pdfrwt>
<totfact> 0.18197993E+01</totfact>
</mgrwt>
</event>
<event>
 6    1  0.1072514E-005  0.4253032E+04  0.7818608E-02  0.7955360E-01
         -1   -1    0    0    0  501 -0.00000000000E+00  0.00000000000E+00  0.19203020708E+04  0.19203020708E+04  0.00000000000E+00 0.  1.
          1   -1    0    0  501    0  0.00000000000E+00 -0.00000000000E+00 -0.23548749882E+04  0.23548749882E+04  0.00000000000E+00 0. -1.
         23    2    1    2    0    0  0.59174290322E+03 -0.26946901012E+03  0.18167793222E+04  0.19318119321E+04  0.91853277133E+02 0.  0.
         13    1    3    3    0    0  0.39411871014E+02  0.43314769984E+01  0.12993540172E+03  0.13585015970E+03  0.00000000000E+00 0. -1.
        -13    1    3    3    0    0  0.55233103221E+03 -0.27380048712E+03  0.16868439205E+04  0.17959617724E+04  0.00000000000E+00 0.  1.
         22    1    1    2    0    0 -0.59174290322E+03  0.26946901012E+03 -0.22513522396E+04  0.23433651268E+04  0.00000000000E+00 0. -1.
<mgrwt>
<rscale>  0 0.42530325E+04</rscale>
<asrwt>0</asrwt>
<pdfrwt beam="1">  1        1 0.36228846E+00 0.42530325E+04</pdfrwt>
<pdfrwt beam="2">  1       -1 0.29543109E+00 0.42530325E+04</pdfrwt>
<totfact> 0.46259724E-02</totfact>
</mgrwt>
</event>
<event>
 6    1  0.1072514E-005  0.2706545E+04  0.7818608E-02  0.8332885E-01
          2   -1    0    0  501    0  0.00000000000E+00  0.00000000000E+00  0.49612378199E+04  0.49612378199E+04  0.00000000000E+00 0. -1.
         -2   -1    0    0    0  501 -0.00000000000E+00 -0.00000000000E+00 -0.36913082488E+03  0.36913082488E+03  0.00000000000E+00 0.  1.
         23    2    1    2    0    0 -0.10944879060E+04 -0.93197718432E+02  0.38502106280E+04  0.40048499499E+04  0.90064700113E+02 0.  0.
         13    1    3    3    0    0 -0.76117632177E+02 -0.27090735086E+02  0.24441456448E+03  0.25742237895E+03  0.00000000000E+00 0.  1.
        -13    1    3    3    0    0 -0.10183702738E+04 -0.66106983346E+02  0.36057960635E+04  0.37474275709E+04  0.00000000000E+00 0. -1.
         22    1    1    2    0    0  0.10944879060E+04  0.93197718432E+02  0.74189636700E+03  0.13255186949E+04  0.00000000000E+00 0.  1.
<mgrwt>
<rscale>  0 0.27065445E+04</rscale>
<asrwt>0</asrwt>
<pdfrwt beam="1">  1        2 0.76326731E+00 0.27065445E+04</pdfrwt>
<pdfrwt beam="2">  1       -2 0.56789361E-01 0.27065445E+04</pdfrwt>
<totfact> 0.98327257E-02</totfact>
</mgrwt>
</event>
<event>
 6    1  0.1072514E-005  0.3748660E+04  0.7818608E-02  0.8057263E-01
          2   -1    0    0  501    0  0.00000000000E+00  0.00000000000E+00  0.22870395719E+04  0.22870395719E+04  0.00000000000E+00 0. -1.
         -2   -1    0    0    0  501 -0.00000000000E+00 -0.00000000000E+00 -0.15360964258E+04  0.15360964258E+04  0.00000000000E+00 0.  1.
         23    2    1    2    0    0  0.47057284709E+03  0.16983193551E+04  0.10235891906E+04  0.20398627989E+04  0.87051541668E+02 0.  0.
         11    1    3    3    0    0  0.37144601855E+03  0.12197318318E+04  0.71453869966E+03  0.14616030376E+04  0.00000000000E+00 0. -1.
        -11    1    3    3    0    0  0.99126828537E+02  0.47858752326E+03  0.30905049090E+03  0.57825976125E+03  0.00000000000E+00 0.  1.
         22    1    1    2    0    0 -0.47057284709E+03 -0.16983193551E+04 -0.27264604445E+03  0.17832731989E+04  0.00000000000E+00 0.  1.
<mgrwt>
<rscale>  0 0.37486602E+04</rscale>
<asrwt>0</asrwt>
<pdfrwt beam="1">  1        2 0.35185224E+00 0.37486602E+04</pdfrwt>
<pdfrwt beam="2">  1       -2 0.23632253E+00 0.37486602E+04</pdfrwt>
<totfact> 0.28987900E-01</totfact>
</mgrwt>
</event>
<event>
 6    1  0.1072514E-005  0.3468955E+04  0.7818608E-02  0.8121187E-01
         -1   -1    0    0    0  501 -0.00000000000E+00  0.00000000000E+00  0.17998563794E+04  0.17998563794E+04  0.00000000000E+00 0.  1.
          1   -1    0    0  501    0  0.00000000000E+00 -0.00000000000E+00 -0.16714731989E+04  0.16714731989E+04  0.00000000000E+00 0. -1.
         23    2    1    2    0    0 -0.12661158089E+04  0.83001767867E+03 -0.78027230974E+03  0.17056474472E+04  0.91813659751E+02 0.  0.
         13    1    3    3    0    0 -0.51219597026E+03  0.31327424282E+03 -0.35545187070E+03  0.69773311197E+03  0.00000000000E+00 0.  1.
        -13    1    3    3    0    0 -0.75391983868E+03  0.51674343585E+03 -0.42482043904E+03  0.10079143352E+04  0.00000000000E+00 0. -1.
         22    1    1    2    0    0  0.12661158089E+04 -0.83001767867E+03  0.90865549025E+03  0.17656821312E+04  0.00000000000E+00 0.  1.
<mgrwt>
<rscale>  0 0.34689547E+04</rscale>
<asrwt>0</asrwt>
<pdfrwt beam="1">  1        1 0.25714972E+00 0.34689547E+04</pdfrwt>
<pdfrwt beam="2">  1       -1 0.27690098E+00 0.34689547E+04</pdfrwt>
<totfact> 0.19004776E-01</totfact>
</mgrwt>
</event>
<event>
 6    1  0.1072514E-005  0.1747636E+04  0.7818608E-02  0.8734652E-01
         -2   -1    0    0    0  501 -0.00000000000E+00  0.00000000000E+00  0.55150478189E+03  0.55150478189E+03  0.00000000000E+00 0.  1.
          2   -1    0    0  501    0  0.00000000000E+00 -0.00000000000E+00 -0.13844995460E+04  0.13844995460E+04  0.00000000000E+00 0. -1.
         23    2    1    2    0    0  0.44073642110E+03 -0.43052279910E+03  0.26499405204E+03  0.67696584007E+03  0.91991453798E+02 0.  0.
         11    1    3    3    0    0  0.15245710120E+03 -0.20661461131E+03  0.89260166007E+02  0.27184580657E+03  0.00000000000E+00 0.  1.
        -11    1    3    3    0    0  0.28827931990E+03 -0.22390818779E+03  0.17573388603E+03  0.40512003350E+03  0.00000000000E+00 0. -1.
         22    1    1    2    0    0 -0.44073642110E+03  0.43052279910E+03 -0.10979888162E+04  0.12590384878E+04  0.00000000000E+00 0. -1.
<mgrwt>
<rscale>  0 0.17476363E+04</rscale>
<asrwt>0</asrwt>
<pdfrwt beam="1">  1        2 0.21299993E+00 0.17476363E+04</pdfrwt>
<pdfrwt beam="2">  1       -2 0.84846891E-01 0.17476363E+04</pdfrwt>
<totfact> 0.16941620E+01</totfact>
</mgrwt>
</event>
<event>
 6    1  0.1072514E-005  0.1058302E+04  0.7818608E-02  0.9246814E-01
          1   -1    0    0  501    0  0.00000000000E+00  0.00000000000E+00  0.47744632078E+03  0.47744632078E+03  0.00000000000E+00 0. -1.
         -1   -1    0    0    0  501 -0.00000000000E+00 -0.00000000000E+00 -0.58645503028E+03  0.58645503028E+03  0.00000000000E+00 0.  1.
         23    2    1    2    0    0  0.45970061413E+03  0.24225125195E+03 -0.13112839564E+03  0.54380558660E+03  0.92301333574E+02 0.  0.
         13    1    3    3    0    0  0.18406287596E+03  0.48880186547E+02 -0.34815229772E+02  0.19359885115E+03  0.00000000000E+00 0. -1.
        -13    1    3    3    0    0  0.27563773816E+03  0.19337106540E+03 -0.96313165865E+02  0.35020673545E+03  0.00000000000E+00 0.  1.
         22    1    1    2    0    0 -0.45970061413E+03 -0.24225125195E+03  0.22119686132E+02  0.52009576446E+03  0.00000000000E+00 0. -1.
<mgrwt>
<rscale>  0 0.10583020E+04</rscale>
<asrwt>0</asrwt>
<pdfrwt beam="1">  1        1 0.73453280E-01 0.10583020E+04</pdfrwt>
<pdfrwt beam="2">  1       -1 0.90223851E-01 0.10583020E+04</pdfrwt>
<totfact> 0.56725788E+01</totfact>
</mgrwt>
</event>
<event>
 6    1  0.1072514E-005  0.2938078E+04  0.7818608E-02  0.8261638E-01
          2   -1    0    0  501    0  0.00000000000E+00  0.00000000000E+00  0.33978898824E+04  0.33978898824E+04  0.00000000000E+00 0. -1.
         -2   -1    0    0    0  501 -0.00000000000E+00 -0.00000000000E+00 -0.63512208734E+03  0.63512208734E+03  0.00000000000E+00 0.  1.
         23    2    1    2    0    0 -0.14418518586E+04  0.29219785258E+02  0.10095937983E+04  0.17628997168E+04  0.93515752448E+02 0.  0.
         11    1    3    3    0    0 -0.40647141778E+03  0.20698809504E+02  0.23665126817E+03  0.47079855237E+03  0.00000000000E+00 0.  1.
        -11    1    3    3    0    0 -0.10353804408E+04  0.85209757538E+01  0.77294253009E+03  0.12921011644E+04  0.00000000000E+00 0. -1.
         22    1    1    2    0    0  0.14418518586E+04 -0.29219785258E+02  0.17531739968E+04  0.22701122529E+04  0.00000000000E+00 0. -1.
<mgrwt>
<rscale>  0 0.29380775E+04</rscale>
<asrwt>0</asrwt>
<pdfrwt beam="1">  1        2 0.52275228E+00 0.29380775E+04</pdfrwt>
<pdfrwt beam="2">  1       -2 0.97711092E-01 0.29380775E+04</pdfrwt>
<totfact> 0.71757559E-01</totfact>
</mgrwt>
</event>
<event>
 6    1  0.1072514E-005  0.1287538E+04  0.7818608E-02  0.9039507E-01
         -2   -1    0    0    0  501 -0.00000000000E+00  0.00000000000E+00  0.13962691765E+03  0.13962691765E+03  0.00000000000E+00 0.  1.
          2   -1    0    0  501    0  0.00000000000E+00 -0.00000000000E+00 -0.29681838511E+04  0.29681838511E+04  0.00000000000E+00 0. -1.
         23    2    1    2    0    0  0.11615668143E+03  0.62150669880E+03 -0.11713828470E+04  0.13341171920E+04  0.89263410889E+02 0.  0.
         13    1    3    3    0    0  0.11768772412E+02  0.59773649093E+02 -0.17811608547E+03  0.18824646885E+03  0.00000000000E+00 0.  1.
        -13    1    3    3    0    0  0.10438790902E+03  0.56173304971E+03 -0.99326676152E+03  0.11458707232E+04  0.00000000000E+00 0. -1.
         22    1    1    2    0    0 -0.11615668143E+03 -0.62150669880E+03 -0.16571740865E+04  0.17736935768E+04  0.00000000000E+00 0.  1.
<mgrwt>
<rscale>  0 0.12875377E+04</rscale>
<asrwt>0</asrwt>
<pdfrwt beam="1">  1        2 0.45664368E+00 0.12875377E+04</pdfrwt>
<pdfrwt beam="2">  1       -2 0.21481064E-01 0.12875377E+04</pdfrwt>
<totfact> 0.34067984E+01</totfact>
</mgrwt>
</event>
<event>
 6    1  0.1072514E-005  0.1499335E+04  0.7818608E-02  0.8884895E-01
          1   -1    0    0  501    0  0.00000000000E+00  0.00000000000E+00  0.21005148482E+04  0.21005148482E+04  0.00000000000E+00 0. -1.
         -1   -1    0    0    0  501 -0.00000000000E+00 -0.00000000000E+00 -0.26755427838E+03  0.26755427838E+03  0.00000000000E+00 0.  1.
         23    2    1    2    0    0  0.31578954963E+03 -0.51858183722E+03  0.16069476715E+04  0.17202018626E+04  0.90351909527E+02 0.  0.
         11    1    3    3    0    0  0.10946022829E+03 -0.22795212479E+03  0.77205388613E+03  0.81241055869E+03  0.00000000000E+00 0. -1.
        -11    1    3    3    0    0  0.20632932134E+03 -0.29062971242E+03  0.83489378540E+03  0.90779130393E+03  0.00000000000E+00 0.  1.
         22    1    1    2    0    0 -0.31578954963E+03  0.51858183722E+03  0.22601289830E+03  0.64786726399E+03  0.00000000000E+00 0. -1.
<mgrwt>
<rscale>  0 0.14993355E+04</rscale>
<asrwt>0</asrwt>
<pdfrwt beam="1">  1        1 0.32315612E+00 0.14993355E+04</pdfrwt>
<pdfrwt beam="2">  1       -1 0.41162198E-01 0.14993355E+04</pdfrwt>
<totfact> 0.14248147E+01</totfact>
</mgrwt>
</event>
<event>
 6    1  0.1072514E-005  0.2941463E+04  0.7818608E-02  0.8260647E-01
          1   -1    0    0  501    0  0.00000000000E+00  0.00000000000E+00  0.27097367191E+04  0.27097367191E+04  0.00000000000E+00 0. -1.
         -1   -1    0    0    0  501 -0.00000000000E+00 -0.00000000000E+00 -0.79825116084E+03  0.79825116084E+03  0.00000000000E+00 0.  1.
         23    2    1    2    0    0 -0.80080248133E+03  0.43551940273E+02  0.24249575555E+04  0.25557090985E+04  0.89713236321E+02 0.  0.
         13    1    3    3    0    0 -0.66353076433E+02 -0.21228260028E+02  0.21461064884E+03  0.22563488288E+03  0.00000000000E+00 0.  1.
        -13    1    3    3    0    0 -0.73444940490E+03  0.64780200301E+02  0.22103469066E+04  0.23300742156E+04  0.00000000000E+00 0. -1.
         22    1    1    2    0    0  0.80080248133E+03 -0.43551940273E+02 -0.51347199721E+03  0.95227878142E+03  0.00000000000E+00 0.  1.
<mgrwt>
<rscale>  0 0.29414625E+04</rscale>
<asrwt>0</asrwt>
<pdfrwt beam="1">  1        1 0.41688257E+00 0.29414625E+04</pdfrwt>
<pdfrwt beam="2">  1       -1 0.12280787E+00 0.29414625E+04</pdfrwt>
<totfact> 0.48287149E-01</totfact>
</mgrwt>
</event>
<event>
 6    1  0.1072514E-005  0.1214561E+04  0.7818608E-02  0.9100206E-01
          2   -1    0    0  501    0  0.00000000000E+00  0.00000000000E+00  0.91886858593E+03  0.91886858593E+03  0.00000000000E+00 0. -1.
         -2   -1    0    0    0  501 -0.00000000000E+00 -0.00000000000E+00 -0.40135212844E+03  0.40135212844E+03  0.00000000000E+00 0.  1.
         23    2    1    2    0    0  0.20753203031E+03 -0.56623842989E+03  0.23082410786E+03  0.65247225392E+03  0.93513476441E+02 0.  0.
         11    1    3    3    0    0  0.29286369962E+02 -0.42482886343E+02  0.46100218999E+02  0.69193332695E+02  0.00000000000E+00 0.  1.
        -11    1    3    3    0    0  0.17824566035E+03 -0.52375554355E+03  0.18472388886E+03  0.58327892123E+03  0.00000000000E+00 0. -1.
         22    1    1    2    0    0 -0.20753203031E+03  0.56623842989E+03  0.28669234963E+03  0.66774846045E+03  0.00000000000E+00 0. -1.
<mgrwt>
<rscale>  0 0.12145614E+04</rscale>
<asrwt>0</asrwt>
<pdfrwt beam="1">  1        2 0.14136440E+00 0.12145614E+04</pdfrwt>
<pdfrwt beam="2">  1       -2 0.61746481E-01 0.12145614E+04</pdfrwt>
<totfact> 0.68421186E+01</totfact>
</mgrwt>
</event>
<event>
 6    1  0.1072514E-005  0.5224321E+03  0.7818608E-02  0.1008084E+00
         -2   -1    0    0    0  501 -0.00000000000E+00  0.00000000000E+00  0.25207788853E+02  0.25207788853E+02  0.00000000000E+00 0. -1.
          2   -1    0    0  501    0  0.00000000000E+00 -0.00000000000E+00 -0.27068544884E+04  0.27068544884E+04  0.00000000000E+00 0.  1.
         23    2    1    2    0    0  0.94122124906E+02 -0.15931942739E+02 -0.26081397717E+04  0.26115796244E+04  0.94033316659E+02 0.  0.
         11    1    3    3    0    0  0.10527248591E+03 -0.40266546535E+01 -0.16818611625E+04  0.16851574052E+04  0.00000000000E+00 0.  1.
        -11    1    3    3    0    0 -0.11150361000E+02 -0.11905288086E+02 -0.92627860922E+03  0.92642221925E+03  0.00000000000E+00 0. -1.
         22    1    1    2    0    0 -0.94122124906E+02  0.15931942739E+02 -0.73506927829E+02  0.12048265284E+03  0.00000000000E+00 0. -1.
<mgrwt>
<rscale>  0 0.52243207E+03</rscale>
<asrwt>0</asrwt>
<pdfrwt beam="1">  1        2 0.41643927E+00 0.52243207E+03</pdfrwt>
<pdfrwt beam="2">  1       -2 0.38781202E-02 0.52243207E+03</pdfrwt>
<totfact> 0.85761817E+02</totfact>
</mgrwt>
</event>
<event>
 6    1  0.1072514E-005  0.1934732E+04  0.7818608E-02  0.8637759E-01
         -1   -1    0    0    0  501 -0.00000000000E+00  0.00000000000E+00  0.17563206068E+04  0.17563206068E+04  0.00000000000E+00 0.  1.
          1   -1    0    0  501    0  0.00000000000E+00 -0.00000000000E+00 -0.53281647118E+03  0.53281647118E+03  0.00000000000E+00 0. -1.
         23    2    1    2    0    0 -0.32718337748E+03 -0.47595871984E+03 -0.30155859323E+03  0.65836977625E+03  0.94485510183E+02 0.  0.
         11    1    3    3    0    0 -0.31569834118E+03 -0.40622128894E+03 -0.26901722312E+03  0.58056131850E+03  0.00000000000E+00 0. -1.
        -11    1    3    3    0    0 -0.11485036300E+02 -0.69737430899E+02 -0.32541370116E+02  0.77808457743E+02  0.00000000000E+00 0.  1.
         22    1    1    2    0    0  0.32718337748E+03  0.47595871984E+03  0.15250627289E+04  0.16307673017E+04  0.00000000000E+00 0.  1.
<mgrwt>
<rscale>  0 0.19347316E+04</rscale>
<asrwt>0</asrwt>
<pdfrwt beam="1">  1        1 0.81971765E-01 0.19347316E+04</pdfrwt>
<pdfrwt beam="2">  1       -1 0.27020317E+00 0.19347316E+04</pdfrwt>
<totfact> 0.19498543E+00</totfact>
</mgrwt>
</event>
<event>
 6    1  0.1072514E-005  0.1701776E+04  0.7818608E-02  0.8760352E-01
         -1   -1    0    0    0  501 -0.00000000000E+00  0.00000000000E+00  0.11745191419E+04  0.11745191419E+04  0.00000000000E+00 0.  1.
          1   -1    0    0  501    0  0.00000000000E+00 -0.00000000000E+00 -0.61643124734E+03  0.61643124734E+03  0.00000000000E+00 0. -1.
         23    2    1    2    0    0  0.39416536610E+03 -0.11890900902E+03  0.10605506297E+04  0.11413547547E+04  0.91746115011E+02 0.  0.
         11    1    3    3    0    0  0.21324571010E+03 -0.85619265769E+02  0.47642352394E+03  0.52894590055E+03  0.00000000000E+00 0.  1.
        -11    1    3    3    0    0  0.18091965600E+03 -0.33289743247E+02  0.58412710578E+03  0.61240885415E+03  0.00000000000E+00 0. -1.
         22    1    1    2    0    0 -0.39416536610E+03  0.11890900902E+03 -0.50246273513E+03  0.64959563457E+03  0.00000000000E+00 0. -1.
<mgrwt>
<rscale>  0 0.17017759E+04</rscale>
<asrwt>0</asrwt>
<pdfrwt beam="1">  1        1 0.94835576E-01 0.17017759E+04</pdfrwt>
<pdfrwt beam="2">  1       -1 0.18069525E+00 0.17017759E+04</pdfrwt>
<totfact> 0.64449353E+00</totfact>
</mgrwt>
</event>
<event>
 6    1  0.1072514E-005  0.1398203E+04  0.7818608E-02  0.8955120E-01
          2   -1    0    0  501    0  0.00000000000E+00  0.00000000000E+00  0.84828776012E+03  0.84828776012E+03  0.00000000000E+00 0. -1.
         -2   -1    0    0    0  501 -0.00000000000E+00 -0.00000000000E+00 -0.57615253862E+03  0.57615253862E+03  0.00000000000E+00 0.  1.
         23    2    1    2    0    0 -0.48782629517E+03 -0.37306607485E+03 -0.19722400935E+03  0.65149083205E+03  0.91598056325E+02 0.  0.
         11    1    3    3    0    0 -0.17180348038E+03 -0.11513508607E+03 -0.23598127764E+02  0.20815714148E+03  0.00000000000E+00 0. -1.
        -11    1    3    3    0    0 -0.31602281479E+03 -0.25793098878E+03 -0.17362588159E+03  0.44333369057E+03  0.00000000000E+00 0.  1.
         22    1    1    2    0    0  0.48782629517E+03  0.37306607485E+03  0.46935923086E+03  0.77294946668E+03  0.00000000000E+00 0. -1.
<mgrwt>
<rscale>  0 0.13982033E+04</rscale>
<asrwt>0</asrwt>
<pdfrwt beam="1">  1        2 0.13050581E+00 0.13982033E+04</pdfrwt>
<pdfrwt beam="2">  1       -2 0.88638852E-01 0.13982033E+04</pdfrwt>
<totfact> 0.33922599E+01</totfact>
</mgrwt>
</event>
<event>
 6    1  0.1072514E-005  0.1820869E+04  0.7818608E-02  0.8695280E-01
          1   -1    0    0  501    0  0.00000000000E+00  0.00000000000E+00  0.96937458795E+03  0.96937458795E+03  0.00000000000E+00 0. -1.
         -1   -1    0    0    0  501 -0.00000000000E+00 -0.00000000000E+00 -0.85507804132E+03  0.85507804132E+03  0.00000000000E+00 0.  1.
         23    2    1    2    0    0  0.86329000439E+03 -0.44171230156E+02 -0.22245940102E+03  0.89675370315E+03  0.86361390475E+02 0.  0.
         13    1    3    3    0    0  0.27252386127E+03 -0.38250109632E+02 -0.37845293801E+02  0.27778515459E+03  0.00000000000E+00 0.  1.
        -13    1    3    3    0    0  0.59076614312E+03 -0.59211205241E+01 -0.18461410722E+03  0.61896854856E+03  0.00000000000E+00 0. -1.
         22    1    1    2    0    0 -0.86329000439E+03  0.44171230156E+02  0.33675594764E+03  0.92769892612E+03  0.00000000000E+00 0.  1.
<mgrwt>
<rscale>  0 0.18208689E+04</rscale>
<asrwt>0</asrwt>
<pdfrwt beam="1">  1        1 0.14913455E+00 0.18208689E+04</pdfrwt>
<pdfrwt beam="2">  1       -1 0.13155047E+00 0.18208689E+04</pdfrwt>
<totfact> 0.74159109E+00</totfact>
</mgrwt>
</event>
<event>
 6    1  0.1072514E-005  0.1414905E+04  0.7818608E-02  0.8943100E-01
          2   -1    0    0  501    0  0.00000000000E+00  0.00000000000E+00  0.66834580782E+03  0.66834580782E+03  0.00000000000E+00 0. -1.
         -2   -1    0    0    0  501 -0.00000000000E+00 -0.00000000000E+00 -0.74884700596E+03  0.74884700596E+03  0.00000000000E+00 0.  1.
         23    2    1    2    0    0  0.57389879326E+03 -0.19106591299E+03  0.32196694065E+03  0.69066228396E+03  0.86519775753E+02 0.  0.
         11    1    3    3    0    0  0.30930412464E+03 -0.65188573699E+02  0.19434741989E+03  0.37106537332E+03  0.00000000000E+00 0.  1.
        -11    1    3    3    0    0  0.26459466862E+03 -0.12587733929E+03  0.12761952077E+03  0.31959691064E+03  0.00000000000E+00 0. -1.
         22    1    1    2    0    0 -0.57389879326E+03  0.19106591299E+03 -0.40246813880E+03  0.72653052982E+03  0.00000000000E+00 0.  1.
<mgrwt>
<rscale>  0 0.14149046E+04</rscale>
<asrwt>0</asrwt>
<pdfrwt beam="1">  1        2 0.10282243E+00 0.14149046E+04</pdfrwt>
<pdfrwt beam="2">  1       -2 0.11520723E+00 0.14149046E+04</pdfrwt>
<totfact> 0.24788149E+01</totfact>
</mgrwt>
</event>
<event>
 6    1  0.1072514E-005  0.5575851E+03  0.7818608E-02  0.9997534E-01
          1   -1    0    0  501    0  0.00000000000E+00  0.00000000000E+00  0.34014965131E+03  0.34014965131E+03  0.00000000000E+00 0. -1.
         -1   -1    0    0    0  501 -0.00000000000E+00 -0.00000000000E+00 -0.22850321149E+03  0.22850321149E+03  0.00000000000E+00 0.  1.
         23    2    1    2    0    0 -0.10477235851E+02 -0.22352267037E+03  0.21410440960E+03  0.32254355331E+03  0.90119303874E+02 0.  0.
         11    1    3    3    0    0 -0.14778814761E+02 -0.57770149828E+02  0.11455627436E+03  0.12914698437E+03  0.00000000000E+00 0. -1.
        -11    1    3    3    0    0  0.43015789106E+01 -0.16575252055E+03  0.99548135240E+02  0.19339656894E+03  0.00000000000E+00 0.  1.
         22    1    1    2    0    0  0.10477235851E+02  0.22352267037E+03 -0.10245796978E+03  0.24610930948E+03  0.00000000000E+00 0.  1.
<mgrwt>
<rscale>  0 0.55758511E+03</rscale>
<asrwt>0</asrwt>
<pdfrwt beam="1">  1        1 0.52330716E-01 0.55758511E+03</pdfrwt>
<pdfrwt beam="2">  1       -1 0.35154340E-01 0.55758511E+03</pdfrwt>
<totfact> 0.57803272E+02</totfact>
</mgrwt>
</event>
<event>
 6    1  0.1072514E-005  0.2385067E+04  0.7818608E-02  0.8445116E-01
         -2   -1    0    0    0  501 -0.00000000000E+00  0.00000000000E+00  0.16341744467E+04  0.16341744467E+04  0.00000000000E+00 0.  1.
          2   -1    0    0  501    0  0.00000000000E+00 -0.00000000000E+00 -0.87024719043E+03  0.87024719043E+03  0.00000000000E+00 0. -1.
         23    2    1    2    0    0  0.11146863398E+03  0.96109066767E+03 -0.34636303482E+03  0.10317149255E+04  0.91366338652E+02 0.  0.
         13    1    3    3    0    0  0.42293905852E+02  0.71228141039E+03 -0.25916970612E+03  0.75914591392E+03  0.00000000000E+00 0. -1.
        -13    1    3    3    0    0  0.69174728133E+02  0.24880925728E+03 -0.87193328705E+02  0.27256901161E+03  0.00000000000E+00 0.  1.
         22    1    1    2    0    0 -0.11146863398E+03 -0.96109066767E+03  0.11102902911E+04  0.14727067115E+04  0.00000000000E+00 0.  1.
<mgrwt>
<rscale>  0 0.23850666E+04</rscale>
<asrwt>0</asrwt>
<pdfrwt beam="1">  1        2 0.13388418E+00 0.23850666E+04</pdfrwt>
<pdfrwt beam="2">  1       -2 0.25141145E+00 0.23850666E+04</pdfrwt>
<totfact> 0.17423489E+00</totfact>
</mgrwt>
</event>
<event>
 6    1  0.1072514E-005  0.1554885E+04  0.7818608E-02  0.8848754E-01
          2   -1    0    0  501    0  0.00000000000E+00  0.00000000000E+00  0.25200970829E+04  0.25200970829E+04  0.00000000000E+00 0.  1.
         -2   -1    0    0    0  501 -0.00000000000E+00 -0.00000000000E+00 -0.23983857058E+03  0.23983857058E+03  0.00000000000E+00 0. -1.
         23    2    1    2    0    0  0.68059908201E+03 -0.19774512088E+03  0.16995582287E+04  0.18436763765E+04  0.91247822776E+02 0.  0.
         11    1    3    3    0    0  0.39779502015E+03 -0.16149618355E+03  0.10028047651E+04  0.10908433857E+04  0.00000000000E+00 0.  1.
        -11    1    3    3    0    0  0.28280406186E+03 -0.36248937325E+02  0.69675346363E+03  0.75283299074E+03  0.00000000000E+00 0. -1.
         22    1    1    2    0    0 -0.68059908201E+03  0.19774512088E+03  0.58070028357E+03  0.91625927695E+03  0.00000000000E+00 0. -1.
<mgrwt>
<rscale>  0 0.15548845E+04</rscale>
<asrwt>0</asrwt>
<pdfrwt beam="1">  1        2 0.38770722E+00 0.15548845E+04</pdfrwt>
<pdfrwt beam="2">  1       -2 0.36898243E-01 0.15548845E+04</pdfrwt>
<totfact> 0.22623497E+01</totfact>
</mgrwt>
</event>
<event>
 6    1  0.1072514E-005  0.1967211E+04  0.7818608E-02  0.8622106E-01
         -2   -1    0    0    0  501 -0.00000000000E+00  0.00000000000E+00  0.24989999569E+03  0.24989999569E+03  0.00000000000E+00 0.  1.
          2   -1    0    0  501    0  0.00000000000E+00 -0.00000000000E+00 -0.38714675741E+04  0.38714675741E+04  0.00000000000E+00 0. -1.
         23    2    1    2    0    0 -0.32006717763E+03 -0.39542812449E+03 -0.35731592922E+04  0.36103394277E+04  0.90978328031E+02 0.  0.
         11    1    3    3    0    0 -0.11848261665E+03 -0.21201828738E+03 -0.15523585382E+04  0.15712437481E+04  0.00000000000E+00 0. -1.
        -11    1    3    3    0    0 -0.20158456098E+03 -0.18340983710E+03 -0.20208007539E+04  0.20390956796E+04  0.00000000000E+00 0.  1.
         22    1    1    2    0    0  0.32006717763E+03  0.39542812449E+03 -0.48408286236E+02  0.51102814209E+03  0.00000000000E+00 0.  1.
<mgrwt>
<rscale>  0 0.19672109E+04</rscale>
<asrwt>0</asrwt>
<pdfrwt beam="1">  1        2 0.59561037E+00 0.19672109E+04</pdfrwt>
<pdfrwt beam="2">  1       -2 0.38446155E-01 0.19672109E+04</pdfrwt>
<totfact> 0.26008653E+00</totfact>
</mgrwt>
</event>
<event>
 6    1  0.1072514E-005  0.1789944E+04  0.7818608E-02  0.8711666E-01
         -2   -1    0    0    0  501 -0.00000000000E+00  0.00000000000E+00  0.78698481283E+03  0.78698481283E+03  0.00000000000E+00 0.  1.
          2   -1    0    0  501    0  0.00000000000E+00 -0.00000000000E+00 -0.10177763511E+04  0.10177763511E+04  0.00000000000E+00 0. -1.
         23    2    1    2    0    0 -0.30189913091E+03 -0.32390554257E+03  0.66595283469E+03  0.80465699127E+03  0.89004549488E+02 0.  0.
         13    1    3    3    0    0 -0.24412020160E+03 -0.20299481385E+03  0.45900099863E+03  0.55810705426E+03  0.00000000000E+00 0. -1.
        -13    1    3    3    0    0 -0.57778929311E+02 -0.12091072872E+03  0.20695183606E+03  0.24654993701E+03  0.00000000000E+00 0.  1.
         22    1    1    2    0    0  0.30189913091E+03  0.32390554257E+03 -0.89674437300E+03  0.10001041727E+04  0.00000000000E+00 0. -1.
<mgrwt>
<rscale>  0 0.17899436E+04</rscale>
<asrwt>0</asrwt>
<pdfrwt beam="1">  1        2 0.15658098E+00 0.17899436E+04</pdfrwt>
<pdfrwt beam="2">  1       -2 0.12107459E+00 0.17899436E+04</pdfrwt>
<totfact> 0.12040386E+01</totfact>
</mgrwt>
</event>
<event>
 6    1  0.1072514E-005  0.1797196E+04  0.7818608E-02  0.8707792E-01
          2   -1    0    0  501    0  0.00000000000E+00  0.00000000000E+00  0.18973774801E+04  0.18973774801E+04  0.00000000000E+00 0. -1.
         -2   -1    0    0    0  501 -0.00000000000E+00 -0.00000000000E+00 -0.42557623411E+03  0.42557623411E+03  0.00000000000E+00 0.  1.
         23    2    1    2    0    0 -0.72906752740E+03  0.65308566669E+02  0.14064670920E+04  0.15880569731E+04  0.89278219365E+02 0.  0.
         11    1    3    3    0    0 -0.60422063344E+03  0.82672699907E+02  0.11253073999E+04  0.12799351911E+04  0.00000000000E+00 0. -1.
        -11    1    3    3    0    0 -0.12484689397E+03 -0.17364133238E+02  0.28115969211E+03  0.30812178197E+03  0.00000000000E+00 0.  1.
         22    1    1    2    0    0  0.72906752740E+03 -0.65308566669E+02  0.65334153942E+02  0.73489674109E+03  0.00000000000E+00 0.  1.
<mgrwt>
<rscale>  0 0.17971964E+04</rscale>
<asrwt>0</asrwt>
<pdfrwt beam="1">  1        2 0.29190422E+00 0.17971964E+04</pdfrwt>
<pdfrwt beam="2">  1       -2 0.65473268E-01 0.17971964E+04</pdfrwt>
<totfact> 0.15461772E+01</totfact>
</mgrwt>
</event>
<event>
 6    1  0.1072514E-005  0.1401597E+04  0.7818608E-02  0.8952664E-01
         -2   -1    0    0    0  501 -0.00000000000E+00  0.00000000000E+00  0.26959456919E+03  0.26959456919E+03  0.00000000000E+00 0.  1.
          2   -1    0    0  501    0  0.00000000000E+00 -0.00000000000E+00 -0.18216919715E+04  0.18216919715E+04  0.00000000000E+00 0. -1.
         23    2    1    2    0    0 -0.57667599160E+03  0.27943347297E+03 -0.11917712968E+04  0.13561177387E+04  0.89990178972E+02 0.  0.
         11    1    3    3    0    0 -0.41090481925E+03  0.24279855176E+03 -0.88644282753E+03  0.10067645175E+04  0.00000000000E+00 0. -1.
        -11    1    3    3    0    0 -0.16577117235E+03  0.36634921209E+02 -0.30532846925E+03  0.34935322121E+03  0.00000000000E+00 0.  1.
         22    1    1    2    0    0  0.57667599160E+03 -0.27943347297E+03 -0.36032610556E+03  0.73516880201E+03  0.00000000000E+00 0. -1.
<mgrwt>
<rscale>  0 0.14015966E+04</rscale>
<asrwt>0</asrwt>
<pdfrwt beam="1">  1        2 0.28026031E+00 0.14015966E+04</pdfrwt>
<pdfrwt beam="2">  1       -2 0.41476086E-01 0.14015966E+04</pdfrwt>
<totfact> 0.44987100E+01</totfact>
</mgrwt>
</event>
<event>
 6    1  0.1072514E-005  0.3713339E+04  0.7818608E-02  0.8065012E-01
          1   -1    0    0  501    0  0.00000000000E+00  0.00000000000E+00  0.16583932644E+04  0.16583932644E+04  0.00000000000E+00 0.  1.
         -1   -1    0    0    0  501 -0.00000000000E+00 -0.00000000000E+00 -0.20786510214E+04  0.20786510214E+04  0.00000000000E+00 0. -1.
         23    2    1    2    0    0  0.16958221730E+04  0.41567173209E+03 -0.84208033831E+03  0.19407898157E+04  0.94709983872E+02 0.  0.
         13    1    3    3    0    0  0.60846088091E+03  0.10262575803E+03 -0.29431299070E+03  0.68364963710E+03  0.00000000000E+00 0.  1.
        -13    1    3    3    0    0  0.10873612921E+04  0.31304597406E+03 -0.54776734761E+03  0.12571401786E+04  0.00000000000E+00 0. -1.
         22    1    1    2    0    0 -0.16958221730E+04 -0.41567173209E+03  0.42182258125E+03  0.17962544701E+04  0.00000000000E+00 0.  1.
<mgrwt>
<rscale>  0 0.37133386E+04</rscale>
<asrwt>0</asrwt>
<pdfrwt beam="1">  1        1 0.25513743E+00 0.37133386E+04</pdfrwt>
<pdfrwt beam="2">  1       -1 0.31979246E+00 0.37133386E+04</pdfrwt>
<totfact> 0.10010560E-01</totfact>
</mgrwt>
</event>
<event>
 6    1  0.1072514E-005  0.9831488E+03  0.7818608E-02  0.9327222E-01
         -2   -1    0    0    0  501 -0.00000000000E+00  0.00000000000E+00  0.22119513186E+03  0.22119513186E+03  0.00000000000E+00 0.  1.
          2   -1    0    0  501    0  0.00000000000E+00 -0.00000000000E+00 -0.10924534389E+04  0.10924534389E+04  0.00000000000E+00 0. -1.
         23    2    1    2    0    0 -0.30927594137E+03 -0.23446823518E+03 -0.83318193044E+03  0.92367835181E+03  0.91447291848E+02 0.  0.
         13    1    3    3    0    0 -0.19305642613E+03 -0.10242706460E+03 -0.52781514506E+03  0.57127131434E+03  0.00000000000E+00 0. -1.
        -13    1    3    3    0    0 -0.11621951523E+03 -0.13204117058E+03 -0.30536678538E+03  0.35240703747E+03  0.00000000000E+00 0.  1.
         22    1    1    2    0    0  0.30927594137E+03  0.23446823518E+03 -0.38076376618E+02  0.38997021896E+03  0.00000000000E+00 0.  1.
<mgrwt>
<rscale>  0 0.98314878E+03</rscale>
<asrwt>0</asrwt>
<pdfrwt beam="1">  1        2 0.16806976E+00 0.98314878E+03</pdfrwt>
<pdfrwt beam="2">  1       -2 0.34030021E-01 0.98314878E+03</pdfrwt>
<totfact> 0.17763244E+02</totfact>
</mgrwt>
</event>
<event>
 6    1  0.1072514E-005  0.2434972E+04  0.7818608E-02  0.8426525E-01
          2   -1    0    0  501    0  0.00000000000E+00  0.00000000000E+00  0.24702066655E+04  0.24702066655E+04  0.00000000000E+00 0. -1.
         -2   -1    0    0    0  501 -0.00000000000E+00 -0.00000000000E+00 -0.60006010430E+03  0.60006010430E+03  0.00000000000E+00 0.  1.
         23    2    1    2    0    0 -0.14968751777E+02  0.87301743325E+03  0.20030458907E+04  0.21870647918E+04  0.93145374399E+02 0.  0.
         13    1    3    3    0    0 -0.21485689176E+02  0.59188949678E+03  0.12497270898E+04  0.13829723823E+04  0.00000000000E+00 0.  1.
        -13    1    3    3    0    0  0.65169373993E+01  0.28112793647E+03  0.75331880091E+03  0.80409240946E+03  0.00000000000E+00 0. -1.
         22    1    1    2    0    0  0.14968751777E+02 -0.87301743325E+03 -0.13289932948E+03  0.88320197807E+03  0.00000000000E+00 0.  1.
<mgrwt>
<rscale>  0 0.24349723E+04</rscale>
<asrwt>0</asrwt>
<pdfrwt beam="1">  1        2 0.38003179E+00 0.24349723E+04</pdfrwt>
<pdfrwt beam="2">  1       -2 0.92316941E-01 0.24349723E+04</pdfrwt>
<totfact> 0.32356440E+00</totfact>
</mgrwt>
</event>
<event>
 6    1  0.1072514E-005  0.2007434E+04  0.7818608E-02  0.8603153E-01
          2   -1    0    0  501    0  0.00000000000E+00  0.00000000000E+00  0.22643009784E+04  0.22643009784E+04  0.00000000000E+00 0. -1.
         -2   -1    0    0    0  501 -0.00000000000E+00 -0.00000000000E+00 -0.44492653017E+03  0.44492653017E+03  0.00000000000E+00 0.  1.
         23    2    1    2    0    0  0.13255560793E+03 -0.98108061834E+03  0.70605444920E+03  0.12194048382E+04  0.91351547910E+02 0.  0.
         13    1    3    3    0    0  0.11674946908E+03 -0.81120157059E+03  0.62406344755E+03  0.10301133982E+04  0.00000000000E+00 0. -1.
        -13    1    3    3    0    0  0.15806138845E+02 -0.16987904776E+03  0.81991001643E+02  0.18929143996E+03  0.00000000000E+00 0.  1.
         22    1    1    2    0    0 -0.13255560793E+03  0.98108061834E+03  0.11133199990E+04  0.14898226703E+04  0.00000000000E+00 0. -1.
<mgrwt>
<rscale>  0 0.20074338E+04</rscale>
<asrwt>0</asrwt>
<pdfrwt beam="1">  1        2 0.34835399E+00 0.20074338E+04</pdfrwt>
<pdfrwt beam="2">  1       -2 0.68450237E-01 0.20074338E+04</pdfrwt>
<totfact> 0.86094001E+00</totfact>
</mgrwt>
</event>
<event>
 6    1  0.1072514E-005  0.2937546E+04  0.7818608E-02  0.8261793E-01
         -2   -1    0    0    0  501 -0.00000000000E+00  0.00000000000E+00  0.12994191544E+04  0.12994191544E+04  0.00000000000E+00 0.  1.
          2   -1    0    0  501    0  0.00000000000E+00 -0.00000000000E+00 -0.16601986567E+04  0.16601986567E+04  0.00000000000E+00 0. -1.
         23    2    1    2    0    0  0.13820492699E+03  0.14545142286E+04 -0.44611360546E+02  0.14647350274E+04  0.93521570640E+02 0.  0.
         11    1    3    3    0    0  0.12692026704E+03  0.93315360943E+03 -0.51230234148E+01  0.94175934205E+03  0.00000000000E+00 0. -1.
        -11    1    3    3    0    0  0.11284659958E+02  0.52136061914E+03 -0.39488337131E+02  0.52297568539E+03  0.00000000000E+00 0.  1.
         22    1    1    2    0    0 -0.13820492699E+03 -0.14545142286E+04 -0.31616814181E+03  0.14948827836E+04  0.00000000000E+00 0. -1.
<mgrwt>
<rscale>  0 0.29375459E+04</rscale>
<asrwt>0</asrwt>
<pdfrwt beam="1">  1        2 0.25541518E+00 0.29375459E+04</pdfrwt>
<pdfrwt beam="2">  1       -2 0.19991064E+00 0.29375459E+04</pdfrwt>
<totfact> 0.11827861E+00</totfact>
</mgrwt>
</event>
<event>
 6    1  0.1072514E-005  0.3268609E+04  0.7818608E-02  0.8170929E-01
         -2   -1    0    0    0  501 -0.00000000000E+00  0.00000000000E+00  0.12053799138E+04  0.12053799138E+04  0.00000000000E+00 0.  1.
          2   -1    0    0  501    0  0.00000000000E+00 -0.00000000000E+00 -0.22158586851E+04  0.22158586851E+04  0.00000000000E+00 0. -1.
         23    2    1    2    0    0 -0.15651415549E+04  0.41388486783E+03 -0.28188848165E+03  0.16459041006E+04  0.92576570459E+02 0.  0.
         11    1    3    3    0    0 -0.10059013400E+04  0.30140932311E+03 -0.21100677866E+03  0.10710784035E+04  0.00000000000E+00 0.  1.
        -11    1    3    3    0    0 -0.55924021498E+03  0.11247554472E+03 -0.70881702996E+02  0.57482569708E+03  0.00000000000E+00 0. -1.
         22    1    1    2    0    0  0.15651415549E+04 -0.41388486783E+03 -0.72859028960E+03  0.17753344983E+04  0.00000000000E+00 0. -1.
<mgrwt>
<rscale>  0 0.32686092E+04</rscale>
<asrwt>0</asrwt>
<pdfrwt beam="1">  1        2 0.34090133E+00 0.32686092E+04</pdfrwt>
<pdfrwt beam="2">  1       -2 0.18544306E+00 0.32686092E+04</pdfrwt>
<totfact> 0.70481534E-01</totfact>
</mgrwt>
</event>
<event>
 6    1  0.1235820E-005  0.4740194E+04  0.7818608E-02  0.7869884E-01
         -1   -1    0    0    0  501 -0.00000000000E+00  0.00000000000E+00  0.19827120884E+04  0.19827120884E+04  0.00000000000E+00 0.  1.
          1   -1    0    0  501    0  0.00000000000E+00 -0.00000000000E+00 -0.28331696389E+04  0.28331696389E+04  0.00000000000E+00 0. -1.
         23    2    1    2    0    0 -0.41401232647E+03 -0.27670406878E+03 -0.27785464988E+04  0.28245258223E+04  0.98255415481E+02 0.  0.
         11    1    3    3    0    0 -0.28436098660E+03 -0.14698925828E+03 -0.15886907098E+04  0.16206187658E+04  0.00000000000E+00 0. -1.
        -11    1    3    3    0    0 -0.12965133986E+03 -0.12971481049E+03 -0.11898557890E+04  0.12039070565E+04  0.00000000000E+00 0.  1.
         22    1    1    2    0    0  0.41401232647E+03  0.27670406878E+03  0.19280889483E+04  0.19913559051E+04  0.00000000000E+00 0.  1.
<mgrwt>
<rscale>  0 0.47401940E+04</rscale>
<asrwt>0</asrwt>
<pdfrwt beam="1">  1        1 0.43587225E+00 0.47401940E+04</pdfrwt>
<pdfrwt beam="2">  1       -1 0.30503263E+00 0.47401940E+04</pdfrwt>
<totfact> 0.17814081E-02</totfact>
</mgrwt>
</event>
<event>
 6    1  0.1072514E-005  0.9652367E+03  0.7818608E-02  0.9347516E-01
         -4   -1    0    0    0  501 -0.00000000000E+00  0.00000000000E+00  0.15897497959E+03  0.15897497959E+03  0.00000000000E+00 0.  1.
          4   -1    0    0  501    0  0.00000000000E+00 -0.00000000000E+00 -0.14651391075E+04  0.14651391075E+04  0.00000000000E+00 0. -1.
         23    2    1    2    0    0 -0.20704770145E+01  0.41712054025E+03 -0.10531349914E+04  0.11362436372E+04  0.89232622912E+02 0.  0.
         11    1    3    3    0    0  0.25220609320E+01  0.40170631202E+03 -0.94384719664E+03  0.10257786567E+04  0.00000000000E+00 0. -1.
        -11    1    3    3    0    0 -0.45925379465E+01  0.15414228228E+02 -0.10928779472E+03  0.11046498047E+03  0.00000000000E+00 0.  1.
         22    1    1    2    0    0  0.20704770145E+01 -0.41712054025E+03 -0.25302913655E+03  0.48787044993E+03  0.00000000000E+00 0.  1.
<mgrwt>
<rscale>  0 0.96523668E+03</rscale>
<asrwt>0</asrwt>
<pdfrwt beam="1">  1        4 0.22540602E+00 0.96523668E+03</pdfrwt>
<pdfrwt beam="2">  1       -4 0.24457688E-01 0.96523668E+03</pdfrwt>
<totfact> 0.28689967E+00</totfact>
</mgrwt>
</event>
<event>
 6    1  0.1072514E-005  0.1073837E+04  0.7818608E-02  0.9231074E-01
          1   -1    0    0  501    0  0.00000000000E+00  0.00000000000E+00  0.18569612273E+04  0.18569612273E+04  0.00000000000E+00 0. -1.
         -1   -1    0    0    0  501 -0.00000000000E+00 -0.00000000000E+00 -0.15524360122E+03  0.15524360122E+03  0.00000000000E+00 0.  1.
         23    2    1    2    0    0  0.60173327759E+02 -0.44433176547E+03  0.13968767426E+04  0.14700060537E+04  0.92744901029E+02 0.  0.
         13    1    3    3    0    0  0.47432970715E+02 -0.36393855567E+03  0.10089021820E+04  0.10735850091E+04  0.00000000000E+00 0.  1.
        -13    1    3    3    0    0  0.12740357044E+02 -0.80393209803E+02  0.38797456064E+03  0.39642104458E+03  0.00000000000E+00 0. -1.
         22    1    1    2    0    0 -0.60173327759E+02  0.44433176547E+03  0.30484088346E+03  0.54219877481E+03  0.00000000000E+00 0.  1.
<mgrwt>
<rscale>  0 0.10738368E+04</rscale>
<asrwt>0</asrwt>
<pdfrwt beam="1">  1        1 0.28568633E+00 0.10738368E+04</pdfrwt>
<pdfrwt beam="2">  1       -1 0.23883632E-01 0.10738368E+04</pdfrwt>
<totfact> 0.56457089E+01</totfact>
</mgrwt>
</event>
<event>
 6    1  0.1225010E-005  0.3733704E+04  0.7818608E-02  0.8060533E-01
          1   -1    0    0  501    0  0.00000000000E+00  0.00000000000E+00  0.16886249812E+04  0.16886249812E+04  0.00000000000E+00 0. -1.
         -1   -1    0    0    0  501 -0.00000000000E+00 -0.00000000000E+00 -0.20638905151E+04  0.20638905151E+04  0.00000000000E+00 0.  1.
         23    2    1    2    0    0  0.12057984575E+04  0.13953808694E+04  0.96513316869E+02  0.18489365053E+04  0.90629407113E+02 0.  0.
         11    1    3    3    0    0  0.63934973726E+03  0.78550999496E+03  0.19110057545E+02  0.10129951792E+04  0.00000000000E+00 0.  1.
        -11    1    3    3    0    0  0.56644872027E+03  0.60987087446E+03  0.77403259325E+02  0.83594132615E+03  0.00000000000E+00 0. -1.
         22    1    1    2    0    0 -0.12057984575E+04 -0.13953808694E+04 -0.47177885082E+03  0.19035789910E+04  0.00000000000E+00 0.  1.
<mgrwt>
<rscale>  0 0.37337044E+04</rscale>
<asrwt>0</asrwt>
<pdfrwt beam="1">  1        1 0.25978846E+00 0.37337044E+04</pdfrwt>
<pdfrwt beam="2">  1       -1 0.31752162E+00 0.37337044E+04</pdfrwt>
<totfact> 0.98597891E-02</totfact>
</mgrwt>
</event>
<event>
 6    1  0.1072514E-005  0.3178715E+04  0.7818608E-02  0.8194461E-01
          2   -1    0    0  501    0  0.00000000000E+00  0.00000000000E+00  0.13154696750E+04  0.13154696750E+04  0.00000000000E+00 0. -1.
         -2   -1    0    0    0  501 -0.00000000000E+00 -0.00000000000E+00 -0.19202707720E+04  0.19202707720E+04  0.00000000000E+00 0.  1.
         23    2    1    2    0    0 -0.84669164183E+03 -0.23382533258E+03  0.10436788978E+04  0.13678412753E+04  0.10081215387E+03 0.  0.
         13    1    3    3    0    0 -0.13592000825E+03 -0.75672547052E+02  0.16776525072E+03  0.22879196308E+03  0.00000000000E+00 0. -1.
        -13    1    3    3    0    0 -0.71077163357E+03 -0.15815278553E+03  0.87591364706E+03  0.11390493123E+04  0.00000000000E+00 0.  1.
         22    1    1    2    0    0  0.84669164183E+03  0.23382533258E+03 -0.16484799948E+04  0.18678991717E+04  0.00000000000E+00 0.  1.
<mgrwt>
<rscale>  0 0.31787154E+04</rscale>
<asrwt>0</asrwt>
<pdfrwt beam="1">  1        2 0.20237995E+00 0.31787154E+04</pdfrwt>
<pdfrwt beam="2">  1       -2 0.29542627E+00 0.31787154E+04</pdfrwt>
<totfact> 0.46296432E-01</totfact>
</mgrwt>
</event>
<event>
 6    1  0.1072514E-005  0.8336997E+03  0.7818608E-02  0.9512480E-01
          2   -1    0    0  501    0  0.00000000000E+00  0.00000000000E+00  0.16424362772E+04  0.16424362772E+04  0.00000000000E+00 0. -1.
         -2   -1    0    0    0  501 -0.00000000000E+00 -0.00000000000E+00 -0.10579637174E+03  0.10579637174E+03  0.00000000000E+00 0.  1.
         23    2    1    2    0    0 -0.23339044639E+03  0.24443391368E+03  0.12711473338E+04  0.13184590524E+04  0.91102635337E+02 0.  0.
         11    1    3    3    0    0 -0.70481800446E+02  0.13933197292E+03  0.57253476302E+03  0.59344514299E+03  0.00000000000E+00 0. -1.
        -11    1    3    3    0    0 -0.16290864594E+03  0.10510194077E+03  0.69861257075E+03  0.72501390944E+03  0.00000000000E+00 0.  1.
         22    1    1    2    0    0  0.23339044639E+03 -0.24443391368E+03  0.26549257165E+03  0.42977359647E+03  0.00000000000E+00 0.  1.
<mgrwt>
<rscale>  0 0.83369970E+03</rscale>
<asrwt>0</asrwt>
<pdfrwt beam="1">  1        2 0.25268248E+00 0.83369970E+03</pdfrwt>
<pdfrwt beam="2">  1       -2 0.16276366E-01 0.83369970E+03</pdfrwt>
<totfact> 0.32518878E+02</totfact>
</mgrwt>
</event>
<event>
 6    1  0.1072514E-005  0.5060299E+04  0.7818608E-02  0.7819272E-01
         -2   -1    0    0    0  501 -0.00000000000E+00  0.00000000000E+00  0.53870843281E+04  0.53870843281E+04  0.00000000000E+00 0.  1.
          2   -1    0    0  501    0  0.00000000000E+00 -0.00000000000E+00 -0.11883343038E+04  0.11883343038E+04  0.00000000000E+00 0. -1.
         23    2    1    2    0    0  0.10135217181E+04  0.21097079105E+04  0.85415857824E+03  0.24932150994E+04  0.91874449737E+02 0.  0.
         13    1    3    3    0    0  0.54303257849E+03  0.11698294647E+04  0.51567642650E+03  0.13889951529E+04  0.00000000000E+00 0.  1.
        -13    1    3    3    0    0  0.47048913958E+03  0.93987844573E+03  0.33848215174E+03  0.11042199465E+04  0.00000000000E+00 0. -1.
         22    1    1    2    0    0 -0.10135217181E+04 -0.21097079105E+04  0.33445914460E+04  0.40822035325E+04  0.00000000000E+00 0. -1.
<mgrwt>
<rscale>  0 0.50602992E+04</rscale>
<asrwt>0</asrwt>
<pdfrwt beam="1">  1        2 0.18282066E+00 0.50602992E+04</pdfrwt>
<pdfrwt beam="2">  1       -2 0.82878219E+00 0.50602992E+04</pdfrwt>
<totfact> 0.68547598E-04</totfact>
</mgrwt>
</event>
<event>
 6    1  0.1072514E-005  0.1811244E+04  0.7818608E-02  0.8700343E-01
         -2   -1    0    0    0  501 -0.00000000000E+00  0.00000000000E+00  0.32581786196E+03  0.32581786196E+03  0.00000000000E+00 0.  1.
          2   -1    0    0  501    0  0.00000000000E+00 -0.00000000000E+00 -0.25172081399E+04  0.25172081399E+04  0.00000000000E+00 0. -1.
         23    2    1    2    0    0  0.22793059625E+02  0.79633994314E+03 -0.43008867026E+03  0.90992999240E+03  0.91211283122E+02 0.  0.
         11    1    3    3    0    0 -0.27126436971E+01  0.62875254019E+03 -0.30237439259E+03  0.69768717096E+03  0.00000000000E+00 0. -1.
        -11    1    3    3    0    0  0.25505703322E+02  0.16758740295E+03 -0.12771427767E+03  0.21224282144E+03  0.00000000000E+00 0.  1.
         22    1    1    2    0    0 -0.22793059625E+02 -0.79633994314E+03 -0.17613016076E+04  0.19330960094E+04  0.00000000000E+00 0. -1.
<mgrwt>
<rscale>  0 0.18112442E+04</rscale>
<asrwt>0</asrwt>
<pdfrwt beam="1">  1        2 0.38726280E+00 0.18112442E+04</pdfrwt>
<pdfrwt beam="2">  1       -2 0.50125824E-01 0.18112442E+04</pdfrwt>
<totfact> 0.12095098E+01</totfact>
</mgrwt>
</event>
<event>
 6    1  0.1072514E-005  0.2218523E+04  0.7818608E-02  0.8510758E-01
          2   -1    0    0  501    0  0.00000000000E+00  0.00000000000E+00  0.13417804876E+04  0.13417804876E+04  0.00000000000E+00 0. -1.
         -2   -1    0    0    0  501 -0.00000000000E+00 -0.00000000000E+00 -0.91703611636E+03  0.91703611636E+03  0.00000000000E+00 0.  1.
         23    2    1    2    0    0  0.62853698065E+03 -0.74865472390E+03 -0.31679706385E+03  0.10318584418E+04  0.93961867903E+02 0.  0.
         13    1    3    3    0    0  0.34033688231E+03 -0.43161767162E+03 -0.22353732122E+03  0.59337335792E+03  0.00000000000E+00 0.  1.
        -13    1    3    3    0    0  0.28820009834E+03 -0.31703705228E+03 -0.93259742636E+02  0.43848508389E+03  0.00000000000E+00 0. -1.
         22    1    1    2    0    0 -0.62853698065E+03  0.74865472390E+03  0.74154143505E+03  0.12269581621E+04  0.00000000000E+00 0. -1.
<mgrwt>
<rscale>  0 0.22185231E+04</rscale>
<asrwt>0</asrwt>
<pdfrwt beam="1">  1        2 0.20642777E+00 0.22185231E+04</pdfrwt>
<pdfrwt beam="2">  1       -2 0.14108248E+00 0.22185231E+04</pdfrwt>
<totfact> 0.50231202E+00</totfact>
</mgrwt>
</event>
<event>
 6    1  0.1072514E-005  0.4229511E+04  0.7818608E-02  0.7959782E-01
          2   -1    0    0  501    0  0.00000000000E+00  0.00000000000E+00  0.34730752734E+04  0.34730752734E+04  0.00000000000E+00 0. -1.
         -2   -1    0    0    0  501 -0.00000000000E+00 -0.00000000000E+00 -0.12876746530E+04  0.12876746530E+04  0.00000000000E+00 0.  1.
         23    2    1    2    0    0  0.19762251879E+04 -0.73402680557E+03  0.12660646865E+04  0.24608716897E+04  0.93318475201E+02 0.  0.
         13    1    3    3    0    0  0.49228803869E+03 -0.14914648378E+03  0.33770758572E+03  0.61533616838E+03  0.00000000000E+00 0.  1.
        -13    1    3    3    0    0  0.14839371492E+04 -0.58488032178E+03  0.92835710082E+03  0.18455355213E+04  0.00000000000E+00 0. -1.
         22    1    1    2    0    0 -0.19762251879E+04  0.73402680557E+03  0.91933593383E+03  0.22998782368E+04  0.00000000000E+00 0. -1.
<mgrwt>
<rscale>  0 0.42295111E+04</rscale>
<asrwt>0</asrwt>
<pdfrwt beam="1">  1        2 0.53431927E+00 0.42295111E+04</pdfrwt>
<pdfrwt beam="2">  1       -2 0.19810379E+00 0.42295111E+04</pdfrwt>
<totfact> 0.89831557E-02</totfact>
</mgrwt>
</event>
<event>
 6    1  0.1072514E-005  0.2755635E+04  0.7818608E-02  0.8317176E-01
         -1   -1    0    0    0  501 -0.00000000000E+00  0.00000000000E+00  0.81790817134E+03  0.81790817134E+03  0.00000000000E+00 0.  1.
          1   -1    0    0  501    0  0.00000000000E+00 -0.00000000000E+00 -0.23210191802E+04  0.23210191802E+04  0.00000000000E+00 0. -1.
         23    2    1    2    0    0 -0.88870778754E+03 -0.52499850951E+03  0.28441459588E+03  0.10747876387E+04  0.94084213819E+02 0.  0.
         11    1    3    3    0    0 -0.10152914486E+03 -0.42568051594E+02  0.56862556485E+02  0.12390946938E+03  0.00000000000E+00 0. -1.
        -11    1    3    3    0    0 -0.78717864269E+03 -0.48243045792E+03  0.22755203939E+03  0.95087816930E+03  0.00000000000E+00 0.  1.
         22    1    1    2    0    0  0.88870778754E+03  0.52499850951E+03 -0.17875256047E+04  0.20641397128E+04  0.00000000000E+00 0. -1.
<mgrwt>
<rscale>  0 0.27556346E+04</rscale>
<asrwt>0</asrwt>
<pdfrwt beam="1">  1        1 0.35707987E+00 0.27556346E+04</pdfrwt>
<pdfrwt beam="2">  1       -1 0.12583203E+00 0.27556346E+04</pdfrwt>
<totfact> 0.86091572E-01</totfact>
</mgrwt>
</event>
<event>
 6    1  0.1072514E-005  0.3014040E+04  0.7818608E-02  0.8239733E-01
          2   -1    0    0  501    0  0.00000000000E+00  0.00000000000E+00  0.12045740229E+04  0.12045740229E+04  0.00000000000E+00 0. -1.
         -2   -1    0    0    0  501 -0.00000000000E+00 -0.00000000000E+00 -0.18854040969E+04  0.18854040969E+04  0.00000000000E+00 0.  1.
         23    2    1    2    0    0  0.59093490254E+03 -0.15936303100E+03 -0.17507430129E+04  0.18573734259E+04  0.10066931672E+03 0.  0.
         13    1    3    3    0    0  0.44269382754E+03 -0.95089201222E+02 -0.13953081163E+04  0.14669371222E+04  0.00000000000E+00 0.  1.
        -13    1    3    3    0    0  0.14824107500E+03 -0.64273829780E+02 -0.35543489664E+03  0.39043630372E+03  0.00000000000E+00 0. -1.
         22    1    1    2    0    0 -0.59093490254E+03  0.15936303100E+03  0.10699129389E+04  0.12326046939E+04  0.00000000000E+00 0. -1.
<mgrwt>
<rscale>  0 0.30140397E+04</rscale>
<asrwt>0</asrwt>
<pdfrwt beam="1">  1        2 0.18531908E+00 0.30140397E+04</pdfrwt>
<pdfrwt beam="2">  1       -2 0.29006217E+00 0.30140397E+04</pdfrwt>
<totfact> 0.58830367E-01</totfact>
</mgrwt>
</event>
<event>
 6    1  0.1072514E-005  0.8495141E+03  0.7818608E-02  0.9490989E-01
         -2   -1    0    0    0  501 -0.00000000000E+00  0.00000000000E+00  0.19469800588E+03  0.19469800588E+03  0.00000000000E+00 0.  1.
          2   -1    0    0  501    0  0.00000000000E+00 -0.00000000000E+00 -0.92665851868E+03  0.92665851868E+03  0.00000000000E+00 0. -1.
         23    2    1    2    0    0  0.34840716869E+03  0.18465382192E+03 -0.55915157059E+03  0.69083646737E+03  0.95498463920E+02 0.  0.
         13    1    3    3    0    0  0.10582147834E+03  0.25474820360E+02 -0.21272951321E+03  0.23895815019E+03  0.00000000000E+00 0.  1.
        -13    1    3    3    0    0  0.24258569035E+03  0.15917900156E+03 -0.34642205738E+03  0.45187831718E+03  0.00000000000E+00 0. -1.
         22    1    1    2    0    0 -0.34840716869E+03 -0.18465382192E+03 -0.17280894221E+03  0.43052005720E+03  0.00000000000E+00 0.  1.
<mgrwt>
<rscale>  0 0.84951413E+03</rscale>
<asrwt>0</asrwt>
<pdfrwt beam="1">  1        2 0.14256285E+00 0.84951413E+03</pdfrwt>
<pdfrwt beam="2">  1       -2 0.29953539E-01 0.84951413E+03</pdfrwt>
<totfact> 0.29017979E+02</totfact>
</mgrwt>
</event>
<event>
 6    1  0.1072514E-005  0.4052358E+03  0.7818608E-02  0.1041982E+00
         -1   -1    0    0    0  501 -0.00000000000E+00  0.00000000000E+00  0.74642102834E+03  0.74642102834E+03  0.00000000000E+00 0.  1.
          1   -1    0    0  501    0  0.00000000000E+00 -0.00000000000E+00 -0.55001153628E+02  0.55001153628E+02  0.00000000000E+00 0. -1.
         23    2    1    2    0    0  0.69777253834E+02  0.79596761940E+02  0.68120289499E+03  0.69507888722E+03  0.88841238467E+02 0.  0.
         11    1    3    3    0    0  0.58450256336E+01  0.69202615050E+02  0.43447819698E+03  0.43999371576E+03  0.00000000000E+00 0. -1.
        -11    1    3    3    0    0  0.63932228200E+02  0.10394146889E+02  0.24672469800E+03  0.25508517146E+03  0.00000000000E+00 0.  1.
         22    1    1    2    0    0 -0.69777253834E+02 -0.79596761940E+02  0.10216979726E+02  0.10634329475E+03  0.00000000000E+00 0. -1.
<mgrwt>
<rscale>  0 0.40523582E+03</rscale>
<asrwt>0</asrwt>
<pdfrwt beam="1">  1        1 0.84617164E-02 0.40523582E+03</pdfrwt>
<pdfrwt beam="2">  1       -1 0.11483400E+00 0.40523582E+03</pdfrwt>
<totfact> 0.59153061E+02</totfact>
</mgrwt>
</event>
<event>
 6    1  0.1072514E-005  0.1895585E+04  0.7818608E-02  0.8657057E-01
         -2   -1    0    0    0  501 -0.00000000000E+00  0.00000000000E+00  0.40325187958E+03  0.40325187958E+03  0.00000000000E+00 0.  1.
          2   -1    0    0  501    0  0.00000000000E+00 -0.00000000000E+00 -0.22276654176E+04  0.22276654176E+04  0.00000000000E+00 0. -1.
         23    2    1    2    0    0  0.29219759527E+03  0.32068563086E+03  0.25180360624E+03  0.50985710505E+03  0.91271588873E+02 0.  0.
         13    1    3    3    0    0  0.64223244032E+02  0.13402171008E+03  0.88969364931E+02  0.17321083033E+03  0.00000000000E+00 0.  1.
        -13    1    3    3    0    0  0.22797435124E+03  0.18666392078E+03  0.16283424131E+03  0.33664627473E+03  0.00000000000E+00 0. -1.
         22    1    1    2    0    0 -0.29219759527E+03 -0.32068563086E+03 -0.20762171442E+04  0.21210601921E+04  0.00000000000E+00 0. -1.
<mgrwt>
<rscale>  0 0.18955846E+04</rscale>
<asrwt>0</asrwt>
<pdfrwt beam="1">  1        2 0.34271775E+00 0.18955846E+04</pdfrwt>
<pdfrwt beam="2">  1       -2 0.62038752E-01 0.18955846E+04</pdfrwt>
<totfact> 0.11261904E+01</totfact>
</mgrwt>
</event>
<event>
 6    1  0.1072514E-005  0.1685001E+04  0.7818608E-02  0.8769965E-01
         -2   -1    0    0    0  501 -0.00000000000E+00  0.00000000000E+00  0.24743227070E+03  0.24743227070E+03  0.00000000000E+00 0.  1.
          2   -1    0    0  501    0  0.00000000000E+00 -0.00000000000E+00 -0.28686919321E+04  0.28686919321E+04  0.00000000000E+00 0. -1.
         23    2    1    2    0    0 -0.56053404474E+03  0.62553610366E+03 -0.13468508518E+04  0.15898176654E+04  0.89549761467E+02 0.  0.
         13    1    3    3    0    0 -0.18590847920E+03  0.17964913620E+03 -0.48593299446E+03  0.55042406368E+03  0.00000000000E+00 0.  1.
        -13    1    3    3    0    0 -0.37462556553E+03  0.44588696746E+03 -0.86091785737E+03  0.10393936017E+04  0.00000000000E+00 0. -1.
         22    1    1    2    0    0  0.56053404474E+03 -0.62553610366E+03 -0.12744088096E+04  0.15263065374E+04  0.00000000000E+00 0.  1.
<mgrwt>
<rscale>  0 0.16850008E+04</rscale>
<asrwt>0</asrwt>
<pdfrwt beam="1">  1        2 0.44133722E+00 0.16850008E+04</pdfrwt>
<pdfrwt beam="2">  1       -2 0.38066503E-01 0.16850008E+04</pdfrwt>
<totfact> 0.13085432E+01</totfact>
</mgrwt>
</event>
<event>
 6    1  0.1072514E-005  0.7765177E+03  0.7818608E-02  0.9594643E-01
         -2   -1    0    0    0  501 -0.00000000000E+00  0.00000000000E+00  0.61542000053E+02  0.61542000053E+02  0.00000000000E+00 0.  1.
          2   -1    0    0  501    0  0.00000000000E+00 -0.00000000000E+00 -0.24494643655E+04  0.24494643655E+04  0.00000000000E+00 0. -1.
         23    2    1    2    0    0  0.24796228558E+03 -0.19961765714E+03 -0.52082093348E+03  0.61696300243E+03  0.89757437110E+02 0.  0.
         11    1    3    3    0    0  0.19559012408E+03 -0.13435260357E+03 -0.44369563979E+03  0.50316194162E+03  0.00000000000E+00 0. -1.
        -11    1    3    3    0    0  0.52372161496E+02 -0.65265053567E+02 -0.77125293687E+02  0.11380106082E+03  0.00000000000E+00 0.  1.
         22    1    1    2    0    0 -0.24796228558E+03  0.19961765714E+03 -0.18671014320E+04  0.18940433631E+04  0.00000000000E+00 0. -1.
<mgrwt>
<rscale>  0 0.77651770E+03</rscale>
<asrwt>0</asrwt>
<pdfrwt beam="1">  1        2 0.37684063E+00 0.77651770E+03</pdfrwt>
<pdfrwt beam="2">  1       -2 0.94680011E-02 0.77651770E+03</pdfrwt>
<totfact> 0.28876752E+02</totfact>
</mgrwt>
</event>
<event>
 6    1  0.1072514E-005  0.1051893E+04  0.7818608E-02  0.9253392E-01
         -1   -1    0    0    0  501 -0.00000000000E+00  0.00000000000E+00  0.38476742163E+03  0.38476742163E+03  0.00000000000E+00 0.  1.
          1   -1    0    0  501    0  0.00000000000E+00 -0.00000000000E+00 -0.71892649063E+03  0.71892649063E+03  0.00000000000E+00 0. -1.
         23    2    1    2    0    0 -0.13008984418E+03 -0.81191701696E+02 -0.69187833778E+03  0.71449147748E+03  0.91032835350E+02 0.  0.
         13    1    3    3    0    0 -0.35249206175E+02 -0.58961186502E+02 -0.16574746465E+03  0.17941892344E+03  0.00000000000E+00 0.  1.
        -13    1    3    3    0    0 -0.94840638009E+02 -0.22230515193E+02 -0.52613087313E+03  0.53507255404E+03  0.00000000000E+00 0. -1.
         22    1    1    2    0    0  0.13008984418E+03  0.81191701696E+02  0.35771926878E+03  0.38920243478E+03  0.00000000000E+00 0.  1.
<mgrwt>
<rscale>  0 0.10518926E+04</rscale>
<asrwt>0</asrwt>
<pdfrwt beam="1">  1        1 0.11060408E+00 0.10518926E+04</pdfrwt>
<pdfrwt beam="2">  1       -1 0.59194988E-01 0.10518926E+04</pdfrwt>
<totfact> 0.75629482E+01</totfact>
</mgrwt>
</event>
<event>
 6    1  0.1072514E-005  0.2211048E+04  0.7818608E-02  0.8513844E-01
         -2   -1    0    0    0  501 -0.00000000000E+00  0.00000000000E+00  0.42697797658E+03  0.42697797658E+03  0.00000000000E+00 0.  1.
          2   -1    0    0  501    0  0.00000000000E+00 -0.00000000000E+00 -0.28624035505E+04  0.28624035505E+04  0.00000000000E+00 0. -1.
         23    2    1    2    0    0  0.19623937495E+03 -0.10649513392E+04 -0.90317047796E+03  0.14130987855E+04  0.92195543056E+02 0.  0.
         13    1    3    3    0    0  0.63531417790E+02 -0.28804327404E+03 -0.19563796023E+03  0.35394827341E+03  0.00000000000E+00 0. -1.
        -13    1    3    3    0    0  0.13270795716E+03 -0.77690806519E+03 -0.70753251773E+03  0.10591505121E+04  0.00000000000E+00 0.  1.
         22    1    1    2    0    0 -0.19623937495E+03  0.10649513392E+04 -0.15322550960E+04  0.18762827416E+04  0.00000000000E+00 0. -1.
<mgrwt>
<rscale>  0 0.22110480E+04</rscale>
<asrwt>0</asrwt>
<pdfrwt beam="1">  1        2 0.44036978E+00 0.22110480E+04</pdfrwt>
<pdfrwt beam="2">  1       -2 0.65688919E-01 0.22110480E+04</pdfrwt>
<totfact> 0.41323765E+00</totfact>
</mgrwt>
</event>
<event>
 6    1  0.1072514E-005  0.3500226E+04  0.7818608E-02  0.8113736E-01
         -1   -1    0    0    0  501 -0.00000000000E+00  0.00000000000E+00  0.13978472230E+04  0.13978472230E+04  0.00000000000E+00 0.  1.
          1   -1    0    0  501    0  0.00000000000E+00 -0.00000000000E+00 -0.21911522149E+04  0.21911522149E+04  0.00000000000E+00 0. -1.
         23    2    1    2    0    0 -0.16301125453E+02  0.99932991165E+03 -0.18688273328E+04  0.21207779612E+04  0.79104754497E+02 0.  0.
         13    1    3    3    0    0  0.24699991139E+02  0.51645931114E+03 -0.91896751639E+03  0.10544390005E+04  0.00000000000E+00 0. -1.
        -13    1    3    3    0    0 -0.41001116593E+02  0.48287060051E+03 -0.94985981638E+03  0.10663389607E+04  0.00000000000E+00 0.  1.
         22    1    1    2    0    0  0.16301125453E+02 -0.99932991165E+03  0.10755223408E+04  0.14682214767E+04  0.00000000000E+00 0.  1.
<mgrwt>
<rscale>  0 0.35002263E+04</rscale>
<asrwt>0</asrwt>
<pdfrwt beam="1">  1        1 0.33710034E+00 0.35002263E+04</pdfrwt>
<pdfrwt beam="2">  1       -1 0.21505342E+00 0.35002263E+04</pdfrwt>
<totfact> 0.21413491E-01</totfact>
</mgrwt>
</event>
<event>
 6    1  0.1072514E-005  0.8574196E+03  0.7818608E-02  0.9480432E-01
         -1   -1    0    0    0  501 -0.00000000000E+00  0.00000000000E+00  0.28580204124E+03  0.28580204124E+03  0.00000000000E+00 0.  1.
          1   -1    0    0  501    0  0.00000000000E+00 -0.00000000000E+00 -0.64307487280E+03  0.64307487280E+03  0.00000000000E+00 0. -1.
         23    2    1    2    0    0 -0.19837293194E+03  0.16379974772E+03  0.18424061671E+03  0.32936128276E+03  0.91389672611E+02 0.  0.
         13    1    3    3    0    0 -0.52412487820E+02  0.10027198725E+03  0.65177180068E+02  0.13057413644E+03  0.00000000000E+00 0. -1.
        -13    1    3    3    0    0 -0.14596044412E+03  0.63527760470E+02  0.11906343664E+03  0.19878714632E+03  0.00000000000E+00 0.  1.
         22    1    1    2    0    0  0.19837293194E+03 -0.16379974772E+03 -0.54151344827E+03  0.59951563127E+03  0.00000000000E+00 0. -1.
<mgrwt>
<rscale>  0 0.85741964E+03</rscale>
<asrwt>0</asrwt>
<pdfrwt beam="1">  1        1 0.98934594E-01 0.85741964E+03</pdfrwt>
<pdfrwt beam="2">  1       -1 0.43969545E-01 0.85741964E+03</pdfrwt>
<totfact> 0.15965600E+02</totfact>
</mgrwt>
</event>
<event>
 6    1  0.1072514E-005  0.2756281E+04  0.7818608E-02  0.8316971E-01
         -1   -1    0    0    0  501 -0.00000000000E+00  0.00000000000E+00  0.96278629372E+03  0.96278629372E+03  0.00000000000E+00 0.  1.
          1   -1    0    0  501    0  0.00000000000E+00 -0.00000000000E+00 -0.19726819816E+04  0.19726819816E+04  0.00000000000E+00 0. -1.
         23    2    1    2    0    0  0.98373103891E+03 -0.40412655590E+03 -0.14357405907E+04  0.17898728357E+04  0.10605986089E+03 0.  0.
         11    1    3    3    0    0  0.28472708974E+03 -0.16578949862E+03 -0.41166678147E+03  0.52728096158E+03  0.00000000000E+00 0. -1.
        -11    1    3    3    0    0  0.69900394917E+03 -0.23833705728E+03 -0.10240738092E+04  0.12625918741E+04  0.00000000000E+00 0.  1.
         22    1    1    2    0    0 -0.98373103891E+03  0.40412655590E+03  0.42584490279E+03  0.11455954396E+04  0.00000000000E+00 0.  1.
<mgrwt>
<rscale>  0 0.27562810E+04</rscale>
<asrwt>0</asrwt>
<pdfrwt beam="1">  1        1 0.30348954E+00 0.27562810E+04</pdfrwt>
<pdfrwt beam="2">  1       -1 0.14812097E+00 0.27562810E+04</pdfrwt>
<totfact> 0.97535321E-01</totfact>
</mgrwt>
</event>
<event>
 6    1  0.1072514E-005  0.1558214E+04  0.7818608E-02  0.8846638E-01
          1   -1    0    0  501    0  0.00000000000E+00  0.00000000000E+00  0.32136595499E+04  0.32136595499E+04  0.00000000000E+00 0. -1.
         -1   -1    0    0    0  501 -0.00000000000E+00 -0.00000000000E+00 -0.18888355482E+03  0.18888355482E+03  0.00000000000E+00 0.  1.
         23    2    1    2    0    0 -0.51457611373E+03  0.36463510287E+03  0.52867556875E+03  0.82800146135E+03  0.91330323207E+02 0.  0.
         13    1    3    3    0    0 -0.16621549484E+03  0.96764289519E+02  0.21264233964E+03  0.28671882230E+03  0.00000000000E+00 0.  1.
        -13    1    3    3    0    0 -0.34836061890E+03  0.26787081335E+03  0.31603322910E+03  0.54128263905E+03  0.00000000000E+00 0. -1.
         22    1    1    2    0    0  0.51457611373E+03 -0.36463510287E+03  0.24961004263E+04  0.25745416433E+04  0.00000000000E+00 0. -1.
<mgrwt>
<rscale>  0 0.15582136E+04</rscale>
<asrwt>0</asrwt>
<pdfrwt beam="1">  1        1 0.49440912E+00 0.15582136E+04</pdfrwt>
<pdfrwt beam="2">  1       -1 0.29059011E-01 0.15582136E+04</pdfrwt>
<totfact> 0.43449357E+00</totfact>
</mgrwt>
</event>
<event>
 6    1  0.1072514E-005  0.1255731E+04  0.7818608E-02  0.9065427E-01
         -1   -1    0    0    0  501 -0.00000000000E+00  0.00000000000E+00  0.41020996233E+03  0.41020996233E+03  0.00000000000E+00 0.  1.
          1   -1    0    0  501    0  0.00000000000E+00 -0.00000000000E+00 -0.96100855120E+03  0.96100855120E+03  0.00000000000E+00 0. -1.
         23    2    1    2    0    0 -0.30220632161E+02  0.50257771966E+03 -0.68013051052E+03  0.85138739012E+03  0.93730068856E+02 0.  0.
         11    1    3    3    0    0 -0.43886235818E+02  0.48958912978E+03 -0.63942986488E+03  0.80653212570E+03  0.00000000000E+00 0.  1.
        -11    1    3    3    0    0  0.13665603657E+02  0.12988589886E+02 -0.40700645640E+02  0.44855264419E+02  0.00000000000E+00 0. -1.
         22    1    1    2    0    0  0.30220632161E+02 -0.50257771966E+03  0.12933192165E+03  0.51983112341E+03  0.00000000000E+00 0.  1.
<mgrwt>
<rscale>  0 0.12557313E+04</rscale>
<asrwt>0</asrwt>
<pdfrwt beam="1">  1        1 0.14784747E+00 0.12557313E+04</pdfrwt>
<pdfrwt beam="2">  1       -1 0.63109226E-01 0.12557313E+04</pdfrwt>
<totfact> 0.40777181E+01</totfact>
</mgrwt>
</event>
<event>
 6    1  0.1072514E-005  0.1569714E+04  0.7818608E-02  0.8839373E-01
          2   -1    0    0  501    0  0.00000000000E+00  0.00000000000E+00  0.14772798436E+04  0.14772798436E+04  0.00000000000E+00 0. -1.
         -2   -1    0    0    0  501 -0.00000000000E+00 -0.00000000000E+00 -0.41698293440E+03  0.41698293440E+03  0.00000000000E+00 0.  1.
         23    2    1    2    0    0 -0.51206473533E+03 -0.42863534464E+03  0.10236484052E+04  0.12254715814E+04  0.89364352205E+02 0.  0.
         13    1    3    3    0    0 -0.27322568470E+03 -0.18291837943E+03  0.55156023949E+03  0.64212935309E+03  0.00000000000E+00 0. -1.
        -13    1    3    3    0    0 -0.23883905063E+03 -0.24571696521E+03  0.47208816573E+03  0.58334222830E+03  0.00000000000E+00 0.  1.
         22    1    1    2    0    0  0.51206473533E+03  0.42863534464E+03  0.36648503997E+02  0.66879119663E+03  0.00000000000E+00 0. -1.
<mgrwt>
<rscale>  0 0.15697140E+04</rscale>
<asrwt>0</asrwt>
<pdfrwt beam="1">  1        2 0.22727382E+00 0.15697140E+04</pdfrwt>
<pdfrwt beam="2">  1       -2 0.64151222E-01 0.15697140E+04</pdfrwt>
<totfact> 0.28219699E+01</totfact>
</mgrwt>
</event>
<event>
 6    1  0.1072514E-005  0.3225773E+04  0.7818608E-02  0.8182044E-01
         -1   -1    0    0    0  501 -0.00000000000E+00  0.00000000000E+00  0.10399202764E+04  0.10399202764E+04  0.00000000000E+00 0.  1.
          1   -1    0    0  501    0  0.00000000000E+00 -0.00000000000E+00 -0.25015406104E+04  0.25015406104E+04  0.00000000000E+00 0. -1.
         23    2    1    2    0    0  0.11482405652E+04  0.85478985703E+03  0.81406097475E+02  0.14366918583E+04  0.91293196983E+02 0.  0.
         13    1    3    3    0    0  0.68236429919E+03  0.55743380959E+03  0.70054164175E+02  0.88388974132E+03  0.00000000000E+00 0. -1.
        -13    1    3    3    0    0  0.46587626600E+03  0.29735604744E+03  0.11351933300E+02  0.55280211700E+03  0.00000000000E+00 0.  1.
         22    1    1    2    0    0 -0.11482405652E+04 -0.85478985703E+03 -0.15430264315E+04  0.21047690285E+04  0.00000000000E+00 0. -1.
<mgrwt>
<rscale>  0 0.32257730E+04</rscale>
<asrwt>0</asrwt>
<pdfrwt beam="1">  1        1 0.38485240E+00 0.32257730E+04</pdfrwt>
<pdfrwt beam="2">  1       -1 0.15998773E+00 0.32257730E+04</pdfrwt>
<totfact> 0.32966467E-01</totfact>
</mgrwt>
</event>
<event>
 6    1  0.1072514E-005  0.2944029E+04  0.7818608E-02  0.8259897E-01
          1   -1    0    0  501    0  0.00000000000E+00  0.00000000000E+00  0.18281955781E+04  0.18281955781E+04  0.00000000000E+00 0. -1.
         -1   -1    0    0    0  501 -0.00000000000E+00 -0.00000000000E+00 -0.11852268314E+04  0.11852268314E+04  0.00000000000E+00 0.  1.
         23    2    1    2    0    0 -0.95967194799E+03 -0.79903483403E+00 -0.81882139960E+03  0.12647654053E+04  0.90510551284E+02 0.  0.
         11    1    3    3    0    0 -0.58510075393E+03 -0.26916583866E+02 -0.54487519333E+03  0.79997273143E+03  0.00000000000E+00 0.  1.
        -11    1    3    3    0    0 -0.37457119406E+03  0.26117549032E+02 -0.27394620627E+03  0.46479267391E+03  0.00000000000E+00 0. -1.
         22    1    1    2    0    0  0.95967194799E+03  0.79903483403E+00  0.14617901463E+04  0.17486570041E+04  0.00000000000E+00 0. -1.
<mgrwt>
<rscale>  0 0.29440288E+04</rscale>
<asrwt>0</asrwt>
<pdfrwt beam="1">  1        1 0.28126086E+00 0.29440288E+04</pdfrwt>
<pdfrwt beam="2">  1       -1 0.18234259E+00 0.29440288E+04</pdfrwt>
<totfact> 0.66742593E-01</totfact>
</mgrwt>
</event>
<event>
 6    1  0.1072514E-005  0.2893457E+04  0.7818608E-02  0.8274827E-01
         -1   -1    0    0    0  501 -0.00000000000E+00  0.00000000000E+00  0.80094857990E+03  0.80094857990E+03  0.00000000000E+00 0.  1.
          1   -1    0    0  501    0  0.00000000000E+00 -0.00000000000E+00 -0.26131805737E+04  0.26131805737E+04  0.00000000000E+00 0. -1.
         23    2    1    2    0    0 -0.10026978255E+04  0.27025967743E+03 -0.20931730186E+04  0.23383173290E+04  0.88946179822E+02 0.  0.
         11    1    3    3    0    0 -0.35419895371E+03  0.66976765479E+02 -0.65462793519E+03  0.74731554210E+03  0.00000000000E+00 0. -1.
        -11    1    3    3    0    0 -0.64849887174E+03  0.20328291196E+03 -0.14385450834E+04  0.15910017869E+04  0.00000000000E+00 0.  1.
         22    1    1    2    0    0  0.10026978255E+04 -0.27025967743E+03  0.28094102485E+03  0.10758118246E+04  0.00000000000E+00 0.  1.
<mgrwt>
<rscale>  0 0.28934569E+04</rscale>
<asrwt>0</asrwt>
<pdfrwt beam="1">  1        1 0.40202778E+00 0.28934569E+04</pdfrwt>
<pdfrwt beam="2">  1       -1 0.12322286E+00 0.28934569E+04</pdfrwt>
<totfact> 0.56230204E-01</totfact>
</mgrwt>
</event>
<event>
 6    1  0.1072514E-005  0.1385780E+04  0.7818608E-02  0.8964176E-01
          1   -1    0    0  501    0  0.00000000000E+00  0.00000000000E+00  0.34152986968E+04  0.34152986968E+04  0.00000000000E+00 0. -1.
         -1   -1    0    0    0  501 -0.00000000000E+00 -0.00000000000E+00 -0.14057244163E+03  0.14057244163E+03  0.00000000000E+00 0.  1.
         23    2    1    2    0    0 -0.33365830116E+03 -0.47237556370E+03  0.26100921325E+04  0.26748461376E+04  0.88058983059E+02 0.  0.
         11    1    3    3    0    0 -0.12115903214E+03 -0.11794479453E+03  0.64711041114E+03  0.66883657931E+03  0.00000000000E+00 0. -1.
        -11    1    3    3    0    0 -0.21249926902E+03 -0.35443076917E+03  0.19629817213E+04  0.20060095583E+04  0.00000000000E+00 0.  1.
         22    1    1    2    0    0  0.33365830116E+03  0.47237556370E+03  0.66463412272E+03  0.88102500089E+03  0.00000000000E+00 0.  1.
<mgrwt>
<rscale>  0 0.13857805E+04</rscale>
<asrwt>0</asrwt>
<pdfrwt beam="1">  1        1 0.52543051E+00 0.13857805E+04</pdfrwt>
<pdfrwt beam="2">  1       -1 0.21626532E-01 0.13857805E+04</pdfrwt>
<totfact> 0.51657544E+00</totfact>
</mgrwt>
</event>
<event>
 6    1  0.1072514E-005  0.3919679E+04  0.7818608E-02  0.8020949E-01
         -2   -1    0    0    0  501 -0.00000000000E+00  0.00000000000E+00  0.22290191987E+04  0.22290191987E+04  0.00000000000E+00 0.  1.
          2   -1    0    0  501    0  0.00000000000E+00 -0.00000000000E+00 -0.17231663660E+04  0.17231663660E+04  0.00000000000E+00 0. -1.
         23    2    1    2    0    0 -0.45915907817E+03  0.14382711936E+04  0.15114350962E+04  0.21381715698E+04  0.88828634629E+02 0.  0.
         13    1    3    3    0    0 -0.60616423812E+02  0.30471399596E+03  0.32209093336E+03  0.44751261382E+03  0.00000000000E+00 0. -1.
        -13    1    3    3    0    0 -0.39854265435E+03  0.11335571976E+04  0.11893441628E+04  0.16906589559E+04  0.00000000000E+00 0.  1.
         22    1    1    2    0    0  0.45915907817E+03 -0.14382711936E+04 -0.10055822635E+04  0.18140139950E+04  0.00000000000E+00 0. -1.
<mgrwt>
<rscale>  0 0.39196790E+04</rscale>
<asrwt>0</asrwt>
<pdfrwt beam="1">  1        2 0.26510252E+00 0.39196790E+04</pdfrwt>
<pdfrwt beam="2">  1       -2 0.34292603E+00 0.39196790E+04</pdfrwt>
<totfact> 0.13026442E-01</totfact>
</mgrwt>
</event>
<event>
 6    1  0.1072514E-005  0.3046825E+04  0.7818608E-02  0.8230485E-01
         -2   -1    0    0    0  501 -0.00000000000E+00  0.00000000000E+00  0.27401710068E+04  0.27401710068E+04  0.00000000000E+00 0.  1.
          2   -1    0    0  501    0  0.00000000000E+00 -0.00000000000E+00 -0.84694942459E+03  0.84694942459E+03  0.00000000000E+00 0. -1.
         23    2    1    2    0    0 -0.13424671945E+04 -0.71675669345E+03  0.91676446351E+03  0.17789647880E+04  0.91106034645E+02 0.  0.
         11    1    3    3    0    0 -0.76422096401E+03 -0.45296577070E+03  0.50971230528E+03  0.10242159467E+04  0.00000000000E+00 0.  1.
        -11    1    3    3    0    0 -0.57824623051E+03 -0.26379092275E+03  0.40705215824E+03  0.75474884137E+03  0.00000000000E+00 0. -1.
         22    1    1    2    0    0  0.13424671945E+04  0.71675669345E+03  0.97645711871E+03  0.18081556434E+04  0.00000000000E+00 0.  1.
<mgrwt>
<rscale>  0 0.30468254E+04</rscale>
<asrwt>0</asrwt>
<pdfrwt beam="1">  1        2 0.13029991E+00 0.30468254E+04</pdfrwt>
<pdfrwt beam="2">  1       -2 0.42156476E+00 0.30468254E+04</pdfrwt>
<totfact> 0.14546746E-01</totfact>
</mgrwt>
</event>
<event>
 6    1  0.1072514E-005  0.2785918E+04  0.7818608E-02  0.8307654E-01
         -2   -1    0    0    0  501 -0.00000000000E+00  0.00000000000E+00  0.13864428052E+04  0.13864428052E+04  0.00000000000E+00 0.  1.
          2   -1    0    0  501    0  0.00000000000E+00 -0.00000000000E+00 -0.13995059488E+04  0.13995059488E+04  0.00000000000E+00 0. -1.
         23    2    1    2    0    0 -0.10585335672E+04 -0.66253483048E+03  0.60720009669E+03  0.13916129976E+04  0.91918786337E+02 0.  0.
         13    1    3    3    0    0 -0.69333322502E+03 -0.43883927162E+03  0.44674622501E+03  0.93427675600E+03  0.00000000000E+00 0. -1.
        -13    1    3    3    0    0 -0.36520034215E+03 -0.22369555886E+03  0.16045387168E+03  0.45733624162E+03  0.00000000000E+00 0.  1.
         22    1    1    2    0    0  0.10585335672E+04  0.66253483048E+03 -0.62026324031E+03  0.13943357565E+04  0.00000000000E+00 0. -1.
<mgrwt>
<rscale>  0 0.27859181E+04</rscale>
<asrwt>0</asrwt>
<pdfrwt beam="1">  1        2 0.21530861E+00 0.27859181E+04</pdfrwt>
<pdfrwt beam="2">  1       -2 0.21329889E+00 0.27859181E+04</pdfrwt>
<totfact> 0.13757099E+00</totfact>
</mgrwt>
</event>
<event>
 6    1  0.1072514E-005  0.2349492E+04  0.7818608E-02  0.8458659E-01
         -3   -1    0    0    0  501 -0.00000000000E+00  0.00000000000E+00  0.23512420480E+04  0.23512420480E+04  0.00000000000E+00 0.  1.
          3   -1    0    0  501    0  0.00000000000E+00 -0.00000000000E+00 -0.58693577558E+03  0.58693577558E+03  0.00000000000E+00 0. -1.
         23    2    1    2    0    0 -0.73196241228E+03 -0.34454199360E+03  0.19456486100E+04  0.21091041225E+04  0.91068806898E+02 0.  0.
         11    1    3    3    0    0 -0.58987944383E+03 -0.31595768081E+03  0.15954128629E+04  0.17300662466E+04  0.00000000000E+00 0.  1.
        -11    1    3    3    0    0 -0.14208296845E+03 -0.28584312789E+02  0.35023574709E+03  0.37903787594E+03  0.00000000000E+00 0. -1.
         22    1    1    2    0    0  0.73196241228E+03  0.34454199360E+03 -0.18134233762E+03  0.82907370104E+03  0.00000000000E+00 0. -1.
<mgrwt>
<rscale>  0 0.23494919E+04</rscale>
<asrwt>0</asrwt>
<pdfrwt beam="1">  1        3 0.90297813E-01 0.23494919E+04</pdfrwt>
<pdfrwt beam="2">  1       -3 0.36172954E+00 0.23494919E+04</pdfrwt>
<totfact> 0.44946239E-02</totfact>
</mgrwt>
</event>
<event>
 6    1  0.1072514E-005  0.4012832E+04  0.7818608E-02  0.8001963E-01
          2   -1    0    0  501    0  0.00000000000E+00  0.00000000000E+00  0.25415870748E+04  0.25415870748E+04  0.00000000000E+00 0. -1.
         -2   -1    0    0    0  501 -0.00000000000E+00 -0.00000000000E+00 -0.15839339724E+04  0.15839339724E+04  0.00000000000E+00 0.  1.
         23    2    1    2    0    0 -0.88014281619E+03  0.15318367910E+04  0.14545730042E+04  0.22902813571E+04  0.91819054491E+02 0.  0.
         11    1    3    3    0    0 -0.45568826538E+03  0.84237686859E+03  0.73813396676E+03  0.12091701025E+04  0.00000000000E+00 0.  1.
        -11    1    3    3    0    0 -0.42445455081E+03  0.68945992243E+03  0.71643903748E+03  0.10811112546E+04  0.00000000000E+00 0. -1.
         22    1    1    2    0    0  0.88014281619E+03 -0.15318367910E+04 -0.49691990193E+03  0.18352396901E+04  0.00000000000E+00 0.  1.
<mgrwt>
<rscale>  0 0.40128325E+04</rscale>
<asrwt>0</asrwt>
<pdfrwt beam="1">  1        2 0.39101340E+00 0.40128325E+04</pdfrwt>
<pdfrwt beam="2">  1       -2 0.24368215E+00 0.40128325E+04</pdfrwt>
<totfact> 0.18238227E-01</totfact>
</mgrwt>
</event>
<event>
 6    1  0.1072514E-005  0.1718399E+04  0.7818608E-02  0.8750940E-01
          2   -1    0    0  501    0  0.00000000000E+00  0.00000000000E+00  0.25727615188E+04  0.25727615188E+04  0.00000000000E+00 0. -1.
         -2   -1    0    0    0  501 -0.00000000000E+00 -0.00000000000E+00 -0.28693819987E+03  0.28693819987E+03  0.00000000000E+00 0.  1.
         23    2    1    2    0    0 -0.10476743616E+03 -0.53430979011E+03  0.45355277131E+02  0.55401972921E+03  0.91747434280E+02 0.  0.
         11    1    3    3    0    0  0.13732631132E+02 -0.19836823731E+02 -0.55507857139E-01  0.24126496112E+02  0.00000000000E+00 0. -1.
        -11    1    3    3    0    0 -0.11850006730E+03 -0.51447296638E+03  0.45410784989E+02  0.52989323309E+03  0.00000000000E+00 0.  1.
         22    1    1    2    0    0  0.10476743616E+03  0.53430979011E+03  0.22404680418E+04  0.23056799895E+04  0.00000000000E+00 0. -1.
<mgrwt>
<rscale>  0 0.17183987E+04</rscale>
<asrwt>0</asrwt>
<pdfrwt beam="1">  1        2 0.39580945E+00 0.17183987E+04</pdfrwt>
<pdfrwt beam="2">  1       -2 0.44144340E-01 0.17183987E+04</pdfrwt>
<totfact> 0.14626906E+01</totfact>
</mgrwt>
</event>
<event>
 6    1  0.1072514E-005  0.3522293E+04  0.7818608E-02  0.8108527E-01
          1   -1    0    0  501    0  0.00000000000E+00  0.00000000000E+00  0.28535902767E+04  0.28535902767E+04  0.00000000000E+00 0. -1.
         -1   -1    0    0    0  501 -0.00000000000E+00 -0.00000000000E+00 -0.10869242511E+04  0.10869242511E+04  0.00000000000E+00 0.  1.
         23    2    1    2    0    0  0.16002850081E+04 -0.13015062244E+03  0.16902812938E+04  0.23331297205E+04  0.92693844478E+02 0.  0.
         11    1    3    3    0    0  0.77873157943E+03 -0.56279648745E+02  0.88843392426E+03  0.11827531904E+04  0.00000000000E+00 0.  1.
        -11    1    3    3    0    0  0.82155342863E+03 -0.73870973692E+02  0.80184736954E+03  0.11503765301E+04  0.00000000000E+00 0. -1.
         22    1    1    2    0    0 -0.16002850081E+04  0.13015062244E+03  0.76384731719E+02  0.16073848073E+04  0.00000000000E+00 0.  1.
<mgrwt>
<rscale>  0 0.35222927E+04</rscale>
<asrwt>0</asrwt>
<pdfrwt beam="1">  1        1 0.43901389E+00 0.35222927E+04</pdfrwt>
<pdfrwt beam="2">  1       -1 0.16721912E+00 0.35222927E+04</pdfrwt>
<totfact> 0.16019579E-01</totfact>
</mgrwt>
</event>
<event>
 6    1  0.1072514E-005  0.3121246E+04  0.7818608E-02  0.8209931E-01
         -1   -1    0    0    0  501 -0.00000000000E+00  0.00000000000E+00  0.11993784458E+04  0.11993784458E+04  0.00000000000E+00 0.  1.
          1   -1    0    0  501    0  0.00000000000E+00 -0.00000000000E+00 -0.20306723855E+04  0.20306723855E+04  0.00000000000E+00 0. -1.
         23    2    1    2    0    0  0.14506261449E+04 -0.56216956015E+03 -0.52459380687E+03  0.16443598783E+04  0.91487269806E+02 0.  0.
         13    1    3    3    0    0  0.48441148141E+03 -0.23436013226E+03 -0.18022090321E+03  0.56750218402E+03  0.00000000000E+00 0. -1.
        -13    1    3    3    0    0  0.96621466351E+03 -0.32780942789E+03 -0.34437290366E+03  0.10768576943E+04  0.00000000000E+00 0.  1.
         22    1    1    2    0    0 -0.14506261449E+04  0.56216956015E+03 -0.30670013281E+03  0.15856909529E+04  0.00000000000E+00 0. -1.
<mgrwt>
<rscale>  0 0.31212463E+04</rscale>
<asrwt>0</asrwt>
<pdfrwt beam="1">  1        1 0.31241113E+00 0.31212463E+04</pdfrwt>
<pdfrwt beam="2">  1       -1 0.18451976E+00 0.31212463E+04</pdfrwt>
<totfact> 0.46219657E-01</totfact>
</mgrwt>
</event>
<event>
 6    1  0.1072514E-005  0.5405632E+04  0.7818608E-02  0.7768809E-01
         -2   -1    0    0    0  501 -0.00000000000E+00  0.00000000000E+00  0.28799427443E+04  0.28799427443E+04  0.00000000000E+00 0.  1.
          2   -1    0    0  501    0  0.00000000000E+00 -0.00000000000E+00 -0.25365829198E+04  0.25365829198E+04  0.00000000000E+00 0. -1.
         23    2    1    2    0    0  0.14474596784E+04 -0.26869306437E+03 -0.20986784475E+04  0.25650547445E+04  0.87858595577E+02 0.  0.
         13    1    3    3    0    0  0.45330833237E+03 -0.54539320445E+02 -0.70026042679E+03  0.83595911802E+03  0.00000000000E+00 0. -1.
        -13    1    3    3    0    0  0.99415134605E+03 -0.21415374392E+03 -0.13984180207E+04  0.17290956265E+04  0.00000000000E+00 0.  1.
         22    1    1    2    0    0 -0.14474596784E+04  0.26869306437E+03  0.24420382720E+04  0.28514709197E+04  0.00000000000E+00 0.  1.
<mgrwt>
<rscale>  0 0.54056317E+04</rscale>
<asrwt>0</asrwt>
<pdfrwt beam="1">  1        2 0.39024353E+00 0.54056317E+04</pdfrwt>
<pdfrwt beam="2">  1       -2 0.44306811E+00 0.54056317E+04</pdfrwt>
<totfact> 0.90438312E-03</totfact>
</mgrwt>
</event>
<event>
 6    1  0.1072514E-005  0.2109690E+04  0.7818608E-02  0.8556987E-01
          2   -1    0    0  501    0  0.00000000000E+00  0.00000000000E+00  0.13333823771E+04  0.13333823771E+04  0.00000000000E+00 0. -1.
         -2   -1    0    0    0  501 -0.00000000000E+00 -0.00000000000E+00 -0.83449255682E+03  0.83449255682E+03  0.00000000000E+00 0.  1.
         23    2    1    2    0    0 -0.71996149364E+03  0.70550015064E+03 -0.62448155447E+02  0.10141092134E+04  0.91884219034E+02 0.  0.
         11    1    3    3    0    0 -0.11684067744E+03  0.14936304180E+03  0.14076794232E+02  0.19015577376E+03  0.00000000000E+00 0.  1.
        -11    1    3    3    0    0 -0.60312081620E+03  0.55613710884E+03 -0.76524949679E+02  0.82395343963E+03  0.00000000000E+00 0. -1.
         22    1    1    2    0    0  0.71996149364E+03 -0.70550015064E+03  0.56133797572E+03  0.11537657205E+04  0.00000000000E+00 0. -1.
<mgrwt>
<rscale>  0 0.21096897E+04</rscale>
<asrwt>0</asrwt>
<pdfrwt beam="1">  1        2 0.20513575E+00 0.21096897E+04</pdfrwt>
<pdfrwt beam="2">  1       -2 0.12838347E+00 0.21096897E+04</pdfrwt>
<totfact> 0.65265309E+00</totfact>
</mgrwt>
</event>
<event>
 6    1  0.1072514E-005  0.1221528E+04  0.7818608E-02  0.9094219E-01
          1   -1    0    0  501    0  0.00000000000E+00  0.00000000000E+00  0.15341860292E+04  0.15341860292E+04  0.00000000000E+00 0. -1.
         -1   -1    0    0    0  501 -0.00000000000E+00 -0.00000000000E+00 -0.24314683710E+03  0.24314683710E+03  0.00000000000E+00 0.  1.
         23    2    1    2    0    0  0.47620670204E+03 -0.24581266207E+03  0.10649033466E+04  0.11956679211E+04  0.91683979151E+02 0.  0.
         13    1    3    3    0    0  0.29550515031E+03 -0.15430272197E+03  0.75651984152E+03  0.82671330851E+03  0.00000000000E+00 0.  1.
        -13    1    3    3    0    0  0.18070155173E+03 -0.91509940090E+02  0.30838350504E+03  0.36895461254E+03  0.00000000000E+00 0. -1.
         22    1    1    2    0    0 -0.47620670204E+03  0.24581266207E+03  0.22613584555E+03  0.58166494526E+03  0.00000000000E+00 0.  1.
<mgrwt>
<rscale>  0 0.12215277E+04</rscale>
<asrwt>0</asrwt>
<pdfrwt beam="1">  1        1 0.23602861E+00 0.12215277E+04</pdfrwt>
<pdfrwt beam="2">  1       -1 0.37407207E-01 0.12215277E+04</pdfrwt>
<totfact> 0.42123421E+01</totfact>
</mgrwt>
</event>
<event>
 6    1  0.1072514E-005  0.2530172E+04  0.7818608E-02  0.8392315E-01
         -1   -1    0    0    0  501 -0.00000000000E+00  0.00000000000E+00  0.10283474164E+04  0.10283474164E+04  0.00000000000E+00 0.  1.
          1   -1    0    0  501    0  0.00000000000E+00 -0.00000000000E+00 -0.15563253672E+04  0.15563253672E+04  0.00000000000E+00 0. -1.
         23    2    1    2    0    0 -0.11482709764E+04  0.52634285645E+03 -0.23573729244E+03  0.12881514223E+04  0.90548207933E+02 0.  0.
         13    1    3    3    0    0 -0.26444134862E+03  0.16113913752E+03 -0.71932609859E+02  0.31791405892E+03  0.00000000000E+00 0. -1.
        -13    1    3    3    0    0 -0.88382962778E+03  0.36520371892E+03 -0.16380468258E+03  0.97023736338E+03  0.00000000000E+00 0.  1.
         22    1    1    2    0    0  0.11482709764E+04 -0.52634285645E+03 -0.29224065836E+03  0.12965213612E+04  0.00000000000E+00 0. -1.
<mgrwt>
<rscale>  0 0.25301725E+04</rscale>
<asrwt>0</asrwt>
<pdfrwt beam="1">  1        1 0.23943467E+00 0.25301725E+04</pdfrwt>
<pdfrwt beam="2">  1       -1 0.15820730E+00 0.25301725E+04</pdfrwt>
<totfact> 0.15980302E+00</totfact>
</mgrwt>
</event>
<event>
 6    1  0.1072514E-005  0.1695665E+04  0.7818608E-02  0.8763841E-01
          3   -1    0    0  501    0  0.00000000000E+00  0.00000000000E+00  0.10975017106E+04  0.10975017106E+04  0.00000000000E+00 0. -1.
         -3   -1    0    0    0  501 -0.00000000000E+00 -0.00000000000E+00 -0.65495993874E+03  0.65495993874E+03  0.00000000000E+00 0.  1.
         23    2    1    2    0    0  0.16195415013E+03 -0.77656110168E+03 -0.79765691224E+02  0.80268200260E+03  0.93056651677E+02 0.  0.
         13    1    3    3    0    0  0.16459579973E+03 -0.69894270572E+03 -0.51029073785E+02  0.71987266203E+03  0.00000000000E+00 0. -1.
        -13    1    3    3    0    0 -0.26416496077E+01 -0.77618395959E+02 -0.28736617439E+02  0.82809340571E+02  0.00000000000E+00 0.  1.
         22    1    1    2    0    0 -0.16195415013E+03  0.77656110168E+03  0.52230746309E+03  0.94977964675E+03  0.00000000000E+00 0. -1.
<mgrwt>
<rscale>  0 0.16956647E+04</rscale>
<asrwt>0</asrwt>
<pdfrwt beam="1">  1        3 0.16884642E+00 0.16956647E+04</pdfrwt>
<pdfrwt beam="2">  1       -3 0.10076307E+00 0.16956647E+04</pdfrwt>
<totfact> 0.50589031E-01</totfact>
</mgrwt>
</event>
<event>
 6    1  0.1072514E-005  0.9935990E+03  0.7818608E-02  0.9315593E-01
          2   -1    0    0  501    0  0.00000000000E+00  0.00000000000E+00  0.29483983137E+04  0.29483983137E+04  0.00000000000E+00 0. -1.
         -2   -1    0    0    0  501 -0.00000000000E+00 -0.00000000000E+00 -0.83709770448E+02  0.83709770448E+02  0.00000000000E+00 0.  1.
         23    2    1    2    0    0  0.25545232307E+03 -0.40310289134E+03  0.18172360411E+04  0.18810630917E+04  0.91124615317E+02 0.  0.
         13    1    3    3    0    0  0.13963711657E+03 -0.21085327303E+03  0.78591086059E+03  0.82559887830E+03  0.00000000000E+00 0.  1.
        -13    1    3    3    0    0  0.11581520651E+03 -0.19224961831E+03  0.10313251805E+04  0.10554642134E+04  0.00000000000E+00 0. -1.
         22    1    1    2    0    0 -0.25545232307E+03  0.40310289134E+03  0.10474525021E+04  0.11510449924E+04  0.00000000000E+00 0.  1.
<mgrwt>
<rscale>  0 0.99359901E+03</rscale>
<asrwt>0</asrwt>
<pdfrwt beam="1">  1        2 0.45359966E+00 0.99359901E+03</pdfrwt>
<pdfrwt beam="2">  1       -2 0.12878428E-01 0.99359901E+03</pdfrwt>
<totfact> 0.86978162E+01</totfact>
</mgrwt>
</event>
<event>
 6    1  0.1072514E-005  0.1494863E+04  0.7818608E-02  0.8887876E-01
         -1   -1    0    0    0  501 -0.00000000000E+00  0.00000000000E+00  0.51990162924E+03  0.51990162924E+03  0.00000000000E+00 0.  1.
          1   -1    0    0  501    0  0.00000000000E+00 -0.00000000000E+00 -0.10745376604E+04  0.10745376604E+04  0.00000000000E+00 0. -1.
         23    2    1    2    0    0  0.69763285647E+03  0.25982908525E+03 -0.29767180501E+03  0.80689032643E+03  0.90888609950E+02 0.  0.
         11    1    3    3    0    0  0.92595397087E+02  0.28716865051E+02 -0.72986905146E+02  0.12134930664E+03  0.00000000000E+00 0. -1.
        -11    1    3    3    0    0  0.60503745939E+03  0.23111222019E+03 -0.22468489986E+03  0.68554101979E+03  0.00000000000E+00 0.  1.
         22    1    1    2    0    0 -0.69763285647E+03 -0.25982908525E+03 -0.25696422620E+03  0.78754896325E+03  0.00000000000E+00 0. -1.
<mgrwt>
<rscale>  0 0.14948630E+04</rscale>
<asrwt>0</asrwt>
<pdfrwt beam="1">  1        1 0.16531348E+00 0.14948630E+04</pdfrwt>
<pdfrwt beam="2">  1       -1 0.79984867E-01 0.14948630E+04</pdfrwt>
<totfact> 0.20020417E+01</totfact>
</mgrwt>
</event>
<event>
 6    1  0.1072514E-005  0.8685960E+03  0.7818608E-02  0.9465712E-01
          1   -1    0    0  501    0  0.00000000000E+00  0.00000000000E+00  0.48267190030E+03  0.48267190030E+03  0.00000000000E+00 0. -1.
         -1   -1    0    0    0  501 -0.00000000000E+00 -0.00000000000E+00 -0.39077219278E+03  0.39077219278E+03  0.00000000000E+00 0.  1.
         23    2    1    2    0    0  0.17389602839E+03 -0.56662854218E+02  0.43790440388E+03  0.48207501199E+03  0.84767579352E+02 0.  0.
         13    1    3    3    0    0  0.92516350545E+02  0.14117859258E+02  0.19443859144E+03  0.21578914456E+03  0.00000000000E+00 0.  1.
        -13    1    3    3    0    0  0.81379677845E+02 -0.70780713475E+02  0.24346581244E+03  0.26628586743E+03  0.00000000000E+00 0. -1.
         22    1    1    2    0    0 -0.17389602839E+03  0.56662854218E+02 -0.34600469636E+03  0.39136908110E+03  0.00000000000E+00 0.  1.
<mgrwt>
<rscale>  0 0.86859601E+03</rscale>
<asrwt>0</asrwt>
<pdfrwt beam="1">  1        1 0.74257215E-01 0.86859601E+03</pdfrwt>
<pdfrwt beam="2">  1       -1 0.60118799E-01 0.86859601E+03</pdfrwt>
<totfact> 0.13178424E+02</totfact>
</mgrwt>
</event>
<event>
 6    1  0.1072514E-005  0.1164496E+04  0.7818608E-02  0.9144514E-01
         -2   -1    0    0    0  501 -0.00000000000E+00  0.00000000000E+00  0.11170365989E+03  0.11170365989E+03  0.00000000000E+00 0.  1.
          2   -1    0    0  501    0  0.00000000000E+00 -0.00000000000E+00 -0.30349290828E+04  0.30349290828E+04  0.00000000000E+00 0. -1.
         23    2    1    2    0    0  0.16609758426E+03 -0.17030487703E+03 -0.28963863872E+04  0.29072324660E+04  0.79714168077E+02 0.  0.
         13    1    3    3    0    0  0.43189876396E+02 -0.81406848254E+02 -0.14465928430E+04  0.14495251959E+04  0.00000000000E+00 0.  1.
        -13    1    3    3    0    0  0.12290770787E+03 -0.88898028773E+02 -0.14497935442E+04  0.14577072700E+04  0.00000000000E+00 0. -1.
         22    1    1    2    0    0 -0.16609758426E+03  0.17030487703E+03 -0.26839035676E+02  0.23940027668E+03  0.00000000000E+00 0.  1.
<mgrwt>
<rscale>  0 0.11644959E+04</rscale>
<asrwt>0</asrwt>
<pdfrwt beam="1">  1        2 0.46691213E+00 0.11644959E+04</pdfrwt>
<pdfrwt beam="2">  1       -2 0.17185180E-01 0.11644959E+04</pdfrwt>
<totfact> 0.46328052E+01</totfact>
</mgrwt>
</event>
<event>
 6    1  0.1072514E-005  0.1406179E+04  0.7818608E-02  0.8949358E-01
         -2   -1    0    0    0  501 -0.00000000000E+00  0.00000000000E+00  0.83332350414E+03  0.83332350414E+03  0.00000000000E+00 0.  1.
          2   -1    0    0  501    0  0.00000000000E+00 -0.00000000000E+00 -0.59320870613E+03  0.59320870613E+03  0.00000000000E+00 0. -1.
         23    2    1    2    0    0 -0.52735425808E+03  0.86999663568E+02  0.57938150545E+03  0.79346558364E+03  0.90737250266E+02 0.  0.
         13    1    3    3    0    0 -0.37928815033E+03  0.68242223901E+02  0.47332695368E+03  0.61037276085E+03  0.00000000000E+00 0.  1.
        -13    1    3    3    0    0 -0.14806610774E+03  0.18757439666E+02  0.10605455177E+03  0.18309282279E+03  0.00000000000E+00 0. -1.
         22    1    1    2    0    0  0.52735425808E+03 -0.86999663568E+02 -0.33926670744E+03  0.63306662663E+03  0.00000000000E+00 0. -1.
<mgrwt>
<rscale>  0 0.14061789E+04</rscale>
<asrwt>0</asrwt>
<pdfrwt beam="1">  1        2 0.91262877E-01 0.14061789E+04</pdfrwt>
<pdfrwt beam="2">  1       -2 0.12820362E+00 0.14061789E+04</pdfrwt>
<totfact> 0.21999257E+01</totfact>
</mgrwt>
</event>
<event>
 6    1  0.1072514E-005  0.1511880E+04  0.7818608E-02  0.8876591E-01
         -2   -1    0    0    0  501 -0.00000000000E+00  0.00000000000E+00  0.17564328238E+03  0.17564328238E+03  0.00000000000E+00 0. -1.
          2   -1    0    0  501    0  0.00000000000E+00 -0.00000000000E+00 -0.32534441011E+04  0.32534441011E+04  0.00000000000E+00 0.  1.
         23    2    1    2    0    0  0.13110699328E+03  0.47304290780E+02 -0.32232972286E+04  0.32276030295E+04  0.91375885368E+02 0.  0.
         11    1    3    3    0    0  0.78637061811E+02 -0.98350020748E+01 -0.21730743974E+04  0.21745189931E+04  0.00000000000E+00 0.  1.
        -11    1    3    3    0    0  0.52469931469E+02  0.57139292855E+02 -0.10502228312E+04  0.10530840364E+04  0.00000000000E+00 0. -1.
         22    1    1    2    0    0 -0.13110699328E+03 -0.47304290780E+02  0.14549640988E+03  0.20148435399E+03  0.00000000000E+00 0. -1.
<mgrwt>
<rscale>  0 0.15118804E+04</rscale>
<asrwt>0</asrwt>
<pdfrwt beam="1">  1        2 0.50052987E+00 0.15118804E+04</pdfrwt>
<pdfrwt beam="2">  1       -2 0.27022043E-01 0.15118804E+04</pdfrwt>
<totfact> 0.14518769E+01</totfact>
</mgrwt>
</event>
<event>
 6    1  0.1072514E-005  0.1129760E+04  0.7818608E-02  0.9176662E-01
          1   -1    0    0  501    0  0.00000000000E+00  0.00000000000E+00  0.90282695466E+03  0.90282695466E+03  0.00000000000E+00 0. -1.
         -1   -1    0    0    0  501 -0.00000000000E+00 -0.00000000000E+00 -0.35343356076E+03  0.35343356076E+03  0.00000000000E+00 0.  1.
         23    2    1    2    0    0 -0.48394626500E+03  0.92388979696E+02 -0.22378706455E+02  0.50150025830E+03  0.90895498189E+02 0.  0.
         11    1    3    3    0    0 -0.32015915626E+03  0.44451960662E+02 -0.54649988416E+02  0.32781775940E+03  0.00000000000E+00 0. -1.
        -11    1    3    3    0    0 -0.16378710874E+03  0.47937019034E+02  0.32271281961E+02  0.17368249889E+03  0.00000000000E+00 0.  1.
         22    1    1    2    0    0  0.48394626500E+03 -0.92388979696E+02  0.57177210036E+03  0.75476025712E+03  0.00000000000E+00 0. -1.
<mgrwt>
<rscale>  0 0.11297599E+04</rscale>
<asrwt>0</asrwt>
<pdfrwt beam="1">  1        1 0.13889645E+00 0.11297599E+04</pdfrwt>
<pdfrwt beam="2">  1       -1 0.54374394E-01 0.11297599E+04</pdfrwt>
<totfact> 0.61482710E+01</totfact>
</mgrwt>
</event>
<event>
 6    1  0.1072514E-005  0.5840140E+04  0.7818608E-02  0.7710545E-01
         -2   -1    0    0    0  501 -0.00000000000E+00  0.00000000000E+00  0.22226790119E+04  0.22226790119E+04  0.00000000000E+00 0.  1.
          2   -1    0    0  501    0  0.00000000000E+00 -0.00000000000E+00 -0.38362757544E+04  0.38362757544E+04  0.00000000000E+00 0. -1.
         23    2    1    2    0    0 -0.12181668677E+03 -0.17588774373E+04 -0.32210175785E+04  0.36731025311E+04  0.90767937635E+02 0.  0.
         11    1    3    3    0    0 -0.32850106241E+02 -0.85498810826E+03 -0.14856324720E+04  0.17144059136E+04  0.00000000000E+00 0. -1.
        -11    1    3    3    0    0 -0.88966580526E+02 -0.90388932906E+03 -0.17353851065E+04  0.19586966175E+04  0.00000000000E+00 0.  1.
         22    1    1    2    0    0  0.12181668677E+03  0.17588774373E+04  0.16074208359E+04  0.23858522352E+04  0.00000000000E+00 0.  1.
<mgrwt>
<rscale>  0 0.58401403E+04</rscale>
<asrwt>0</asrwt>
<pdfrwt beam="1">  1        2 0.59019626E+00 0.58401403E+04</pdfrwt>
<pdfrwt beam="2">  1       -2 0.34195062E+00 0.58401403E+04</pdfrwt>
<totfact> 0.54666063E-03</totfact>
</mgrwt>
</event>
<event>
 6    1  0.1072514E-005  0.1703480E+04  0.7818608E-02  0.8759382E-01
          1   -1    0    0  501    0  0.00000000000E+00  0.00000000000E+00  0.16541636238E+04  0.16541636238E+04  0.00000000000E+00 0. -1.
         -1   -1    0    0    0  501 -0.00000000000E+00 -0.00000000000E+00 -0.43856658873E+03  0.43856658873E+03  0.00000000000E+00 0.  1.
         23    2    1    2    0    0 -0.18887801748E+03 -0.53186487602E+03  0.13890913576E+04  0.15022596953E+04  0.93028170411E+02 0.  0.
         13    1    3    3    0    0 -0.81677227514E+02 -0.34542183499E+03  0.80278987632E+03  0.87775793879E+03  0.00000000000E+00 0. -1.
        -13    1    3    3    0    0 -0.10720078997E+03 -0.18644304102E+03  0.58630148127E+03  0.62450175649E+03  0.00000000000E+00 0.  1.
         22    1    1    2    0    0  0.18887801748E+03  0.53186487602E+03 -0.17349432250E+03  0.59047051727E+03  0.00000000000E+00 0.  1.
<mgrwt>
<rscale>  0 0.17034798E+04</rscale>
<asrwt>0</asrwt>
<pdfrwt beam="1">  1        1 0.25448671E+00 0.17034798E+04</pdfrwt>
<pdfrwt beam="2">  1       -1 0.67471784E-01 0.17034798E+04</pdfrwt>
<totfact> 0.10841066E+01</totfact>
</mgrwt>
</event>
<event>
 6    1  0.1072514E-005  0.1302722E+04  0.7818608E-02  0.9027409E-01
         -2   -1    0    0    0  501 -0.00000000000E+00  0.00000000000E+00  0.21283528677E+03  0.21283528677E+03  0.00000000000E+00 0.  1.
          2   -1    0    0  501    0  0.00000000000E+00 -0.00000000000E+00 -0.19934261181E+04  0.19934261181E+04  0.00000000000E+00 0. -1.
         23    2    1    2    0    0 -0.30496601276E+03 -0.23778938721E+03 -0.15910716827E+02  0.39970557452E+03  0.99816500553E+02 0.  0.
         11    1    3    3    0    0 -0.14326744106E+03 -0.88525426067E+02  0.39065871703E+02  0.17288277260E+03  0.00000000000E+00 0.  1.
        -11    1    3    3    0    0 -0.16169857170E+03 -0.14926396114E+03 -0.54976588531E+02  0.22682280192E+03  0.00000000000E+00 0. -1.
         22    1    1    2    0    0  0.30496601276E+03  0.23778938721E+03 -0.17646801145E+04  0.18065558303E+04  0.00000000000E+00 0. -1.
<mgrwt>
<rscale>  0 0.13027224E+04</rscale>
<asrwt>0</asrwt>
<pdfrwt beam="1">  1        2 0.30668095E+00 0.13027224E+04</pdfrwt>
<pdfrwt beam="2">  1       -2 0.32743889E-01 0.13027224E+04</pdfrwt>
<totfact> 0.57479296E+01</totfact>
</mgrwt>
</event>
<event>
 6    1  0.1072514E-005  0.2371009E+04  0.7818608E-02  0.8450438E-01
          1   -1    0    0  501    0  0.00000000000E+00  0.00000000000E+00  0.91747639561E+03  0.91747639561E+03  0.00000000000E+00 0.  1.
         -1   -1    0    0    0  501 -0.00000000000E+00 -0.00000000000E+00 -0.15318332004E+04  0.15318332004E+04  0.00000000000E+00 0. -1.
         23    2    1    2    0    0  0.10525024637E+04  0.50403077929E+02  0.25005167816E+03  0.10864068365E+04  0.86325351344E+02 0.  0.
         11    1    3    3    0    0  0.10076867413E+04  0.46653362840E+02  0.25677817535E+03  0.10409342612E+04  0.00000000000E+00 0.  1.
        -11    1    3    3    0    0  0.44815722431E+02  0.37497150890E+01 -0.67264971953E+01  0.45472575304E+02  0.00000000000E+00 0. -1.
         22    1    1    2    0    0 -0.10525024637E+04 -0.50403077929E+02 -0.86440848295E+03  0.13629027595E+04  0.00000000000E+00 0.  1.
<mgrwt>
<rscale>  0 0.23710089E+04</rscale>
<asrwt>0</asrwt>
<pdfrwt beam="1">  1        1 0.14115022E+00 0.23710089E+04</pdfrwt>
<pdfrwt beam="2">  1       -1 0.23566664E+00 0.23710089E+04</pdfrwt>
<totfact> 0.13694849E+00</totfact>
</mgrwt>
</event>
<event>
 6    1  0.1072514E-005  0.1487790E+04  0.7818608E-02  0.8892613E-01
          1   -1    0    0  501    0  0.00000000000E+00  0.00000000000E+00  0.74451224324E+03  0.74451224324E+03  0.00000000000E+00 0. -1.
         -1   -1    0    0    0  501 -0.00000000000E+00 -0.00000000000E+00 -0.74327870320E+03  0.74327870320E+03  0.00000000000E+00 0.  1.
         23    2    1    2    0    0 -0.29506971137E+03 -0.61125199566E+03 -0.29771094705E+03  0.74612866270E+03  0.85912959057E+02 0.  0.
         13    1    3    3    0    0 -0.57657154536E+02 -0.20219954219E+03 -0.73686734716E+02  0.22279752513E+03  0.00000000000E+00 0. -1.
        -13    1    3    3    0    0 -0.23741255684E+03 -0.40905245347E+03 -0.22402421234E+03  0.52333113757E+03  0.00000000000E+00 0.  1.
         22    1    1    2    0    0  0.29506971137E+03  0.61125199566E+03  0.29894448709E+03  0.74166228375E+03  0.00000000000E+00 0. -1.
<mgrwt>
<rscale>  0 0.14877904E+04</rscale>
<asrwt>0</asrwt>
<pdfrwt beam="1">  1        1 0.11454034E+00 0.14877904E+04</pdfrwt>
<pdfrwt beam="2">  1       -1 0.11435057E+00 0.14877904E+04</pdfrwt>
<totfact> 0.16697843E+01</totfact>
</mgrwt>
</event>
<event>
 6    1  0.1072514E-005  0.1037739E+04  0.7818608E-02  0.9268095E-01
         -1   -1    0    0    0  501 -0.00000000000E+00  0.00000000000E+00  0.40972752409E+03  0.40972752409E+03  0.00000000000E+00 0.  1.
          1   -1    0    0  501    0  0.00000000000E+00 -0.00000000000E+00 -0.65708469016E+03  0.65708469016E+03  0.00000000000E+00 0. -1.
         23    2    1    2    0    0  0.22312405463E+03 -0.18349777771E+03  0.31382721737E+03  0.43563578060E+03  0.88516850383E+02 0.  0.
         11    1    3    3    0    0  0.57820131125E+02 -0.81869777804E+02  0.62512290777E+02  0.11812541885E+03  0.00000000000E+00 0.  1.
        -11    1    3    3    0    0  0.16530392351E+03 -0.10162799990E+03  0.25131492659E+03  0.31751036175E+03  0.00000000000E+00 0. -1.
         22    1    1    2    0    0 -0.22312405463E+03  0.18349777771E+03 -0.56118438344E+03  0.63117643365E+03  0.00000000000E+00 0. -1.
<mgrwt>
<rscale>  0 0.10377392E+04</rscale>
<asrwt>0</asrwt>
<pdfrwt beam="1">  1        1 0.10108995E+00 0.10377392E+04</pdfrwt>
<pdfrwt beam="2">  1       -1 0.63035004E-01 0.10377392E+04</pdfrwt>
<totfact> 0.76547637E+01</totfact>
</mgrwt>
</event>
<event>
 6    1  0.1072514E-005  0.1701128E+04  0.7818608E-02  0.8760721E-01
         -1   -1    0    0    0  501 -0.00000000000E+00  0.00000000000E+00  0.64191486180E+03  0.64191486180E+03  0.00000000000E+00 0.  1.
          1   -1    0    0  501    0  0.00000000000E+00 -0.00000000000E+00 -0.11270327865E+04  0.11270327865E+04  0.00000000000E+00 0. -1.
         23    2    1    2    0    0 -0.39447070278E+03 -0.55735957616E+03  0.27968572368E+03  0.74367624372E+03  0.92592758630E+02 0.  0.
         13    1    3    3    0    0 -0.24046681557E+03 -0.31742787804E+03  0.20988619381E+03  0.45015215372E+03  0.00000000000E+00 0.  1.
        -13    1    3    3    0    0 -0.15400388721E+03 -0.23993169812E+03  0.69799529871E+02  0.29352408999E+03  0.00000000000E+00 0. -1.
         22    1    1    2    0    0  0.39447070278E+03  0.55735957616E+03 -0.76480364840E+03  0.10252714046E+04  0.00000000000E+00 0. -1.
<mgrwt>
<rscale>  0 0.17011280E+04</rscale>
<asrwt>0</asrwt>
<pdfrwt beam="1">  1        1 0.17338966E+00 0.17011280E+04</pdfrwt>
<pdfrwt beam="2">  1       -1 0.98756134E-01 0.17011280E+04</pdfrwt>
<totfact> 0.11293526E+01</totfact>
</mgrwt>
</event>
<event>
 6    1  0.1072514E-005  0.1557301E+04  0.7818608E-02  0.8847218E-01
         -2   -1    0    0    0  501 -0.00000000000E+00  0.00000000000E+00  0.27052857303E+03  0.27052857303E+03  0.00000000000E+00 0. -1.
          2   -1    0    0  501    0  0.00000000000E+00 -0.00000000000E+00 -0.22411556980E+04  0.22411556980E+04  0.00000000000E+00 0.  1.
         23    2    1    2    0    0 -0.60715523784E+03  0.39628296009E+03 -0.54293382814E+03  0.91043918763E+03  0.91895077878E+02 0.  0.
         11    1    3    3    0    0 -0.27558458662E+03  0.15022767710E+03 -0.18735457523E+03  0.36553653198E+03  0.00000000000E+00 0. -1.
        -11    1    3    3    0    0 -0.33157065122E+03  0.24605528300E+03 -0.35557925291E+03  0.54490265565E+03  0.00000000000E+00 0.  1.
         22    1    1    2    0    0  0.60715523784E+03 -0.39628296009E+03 -0.14276932968E+04  0.16012450834E+04  0.00000000000E+00 0.  1.
<mgrwt>
<rscale>  0 0.15573011E+04</rscale>
<asrwt>0</asrwt>
<pdfrwt beam="1">  1        2 0.34479319E+00 0.15573011E+04</pdfrwt>
<pdfrwt beam="2">  1       -2 0.41619780E-01 0.15573011E+04</pdfrwt>
<totfact> 0.25786839E+01</totfact>
</mgrwt>
</event>
<event>
 6    1  0.1072514E-005  0.1159580E+04  0.7818608E-02  0.9148991E-01
         -2   -1    0    0    0  501 -0.00000000000E+00  0.00000000000E+00  0.11193393013E+04  0.11193393013E+04  0.00000000000E+00 0.  1.
          2   -1    0    0  501    0  0.00000000000E+00 -0.00000000000E+00 -0.30031661084E+03  0.30031661084E+03  0.00000000000E+00 0. -1.
         23    2    1    2    0    0  0.15914764675E+03  0.19428995008E+03 -0.22270354775E+03  0.34808224994E+03  0.92129389296E+02 0.  0.
         11    1    3    3    0    0  0.52703337850E+02  0.13645851498E+03 -0.12637830128E+03  0.19331332899E+03  0.00000000000E+00 0. -1.
        -11    1    3    3    0    0  0.10644430890E+03  0.57831435096E+02 -0.96325246470E+02  0.15476892094E+03  0.00000000000E+00 0.  1.
         22    1    1    2    0    0 -0.15914764675E+03 -0.19428995008E+03  0.10417262382E+04  0.10715736622E+04  0.00000000000E+00 0.  1.
<mgrwt>
<rscale>  0 0.11595796E+04</rscale>
<asrwt>0</asrwt>
<pdfrwt beam="1">  1        2 0.46202556E-01 0.11595796E+04</pdfrwt>
<pdfrwt beam="2">  1       -2 0.17220604E+00 0.11595796E+04</pdfrwt>
<totfact> 0.22278413E+01</totfact>
</mgrwt>
</event>
<event>
 6    1  0.1072514E-005  0.1237058E+04  0.7818608E-02  0.9081024E-01
          1   -1    0    0  501    0  0.00000000000E+00  0.00000000000E+00  0.14361811141E+04  0.14361811141E+04  0.00000000000E+00 0. -1.
         -1   -1    0    0    0  501 -0.00000000000E+00 -0.00000000000E+00 -0.26638573108E+03  0.26638573108E+03  0.00000000000E+00 0.  1.
         23    2    1    2    0    0 -0.89231974600E+02  0.19532750895E+03  0.13817713612E+04  0.14008235827E+04  0.83062833323E+02 0.  0.
         13    1    3    3    0    0 -0.59638641493E+01  0.11101929943E+03  0.61962517644E+03  0.62952062063E+03  0.00000000000E+00 0. -1.
        -13    1    3    3    0    0 -0.83268110451E+02  0.84308209514E+02  0.76214618477E+03  0.77130296211E+03  0.00000000000E+00 0.  1.
         22    1    1    2    0    0  0.89231974600E+02 -0.19532750895E+03 -0.21197597824E+03  0.30174326238E+03  0.00000000000E+00 0.  1.
<mgrwt>
<rscale>  0 0.12370581E+04</rscale>
<asrwt>0</asrwt>
<pdfrwt beam="1">  1        1 0.22095094E+00 0.12370581E+04</pdfrwt>
<pdfrwt beam="2">  1       -1 0.40982421E-01 0.12370581E+04</pdfrwt>
<totfact> 0.41658862E+01</totfact>
</mgrwt>
</event>
<event>
 6    1  0.1072514E-005  0.2158493E+04  0.7818608E-02  0.8535906E-01
          2   -1    0    0  501    0  0.00000000000E+00  0.00000000000E+00  0.20567277936E+04  0.20567277936E+04  0.00000000000E+00 0.  1.
         -2   -1    0    0    0  501 -0.00000000000E+00 -0.00000000000E+00 -0.56632343750E+03  0.56632343750E+03  0.00000000000E+00 0. -1.
         23    2    1    2    0    0  0.51971729849E+03  0.48073315653E+03 -0.24022060701E+03  0.75321883192E+03  0.91772711504E+02 0.  0.
         11    1    3    3    0    0  0.35668350248E+03  0.38477440425E+03 -0.17294086418E+03  0.55243371151E+03  0.00000000000E+00 0. -1.
        -11    1    3    3    0    0  0.16303379601E+03  0.95958752286E+02 -0.67279742829E+02  0.20078512041E+03  0.00000000000E+00 0.  1.
         22    1    1    2    0    0 -0.51971729849E+03 -0.48073315653E+03  0.17306249631E+04  0.18698323992E+04  0.00000000000E+00 0.  1.
<mgrwt>
<rscale>  0 0.21584931E+04</rscale>
<asrwt>0</asrwt>
<pdfrwt beam="1">  1        2 0.31641966E+00 0.21584931E+04</pdfrwt>
<pdfrwt beam="2">  1       -2 0.87126684E-01 0.21584931E+04</pdfrwt>
<totfact> 0.64872807E+00</totfact>
</mgrwt>
</event>
<event>
 6    1  0.1072514E-005  0.2087565E+04  0.7818608E-02  0.8566741E-01
         -1   -1    0    0    0  501 -0.00000000000E+00  0.00000000000E+00  0.44796190943E+03  0.44796190943E+03  0.00000000000E+00 0.  1.
          1   -1    0    0  501    0  0.00000000000E+00 -0.00000000000E+00 -0.24320852068E+04  0.24320852068E+04  0.00000000000E+00 0. -1.
         23    2    1    2    0    0 -0.10135402720E+04 -0.80320875419E+02 -0.13062385984E+04  0.16580638958E+04  0.95923306362E+02 0.  0.
         11    1    3    3    0    0 -0.70108643799E+03 -0.15104908739E+02 -0.86691400650E+03  0.11150292581E+04  0.00000000000E+00 0. -1.
        -11    1    3    3    0    0 -0.31245383397E+03 -0.65215966680E+02 -0.43932459194E+03  0.54303463771E+03  0.00000000000E+00 0.  1.
         22    1    1    2    0    0  0.10135402720E+04  0.80320875419E+02 -0.67788469893E+03  0.12219832204E+04  0.00000000000E+00 0. -1.
<mgrwt>
<rscale>  0 0.20875646E+04</rscale>
<asrwt>0</asrwt>
<pdfrwt beam="1">  1        1 0.37416696E+00 0.20875646E+04</pdfrwt>
<pdfrwt beam="2">  1       -1 0.68917216E-01 0.20875646E+04</pdfrwt>
<totfact> 0.29615934E+00</totfact>
</mgrwt>
</event>
<event>
 6    1  0.1072514E-005  0.3368574E+04  0.7818608E-02  0.8145663E-01
          2   -1    0    0  501    0  0.00000000000E+00  0.00000000000E+00  0.11312848745E+04  0.11312848745E+04  0.00000000000E+00 0. -1.
         -2   -1    0    0    0  501 -0.00000000000E+00 -0.00000000000E+00 -0.25076120024E+04  0.25076120024E+04  0.00000000000E+00 0.  1.
         23    2    1    2    0    0 -0.47321664939E+03  0.15316394178E+04 -0.12424618775E+04  0.20302411621E+04  0.91183087819E+02 0.  0.
         13    1    3    3    0    0 -0.20524797074E+03  0.81267347867E+03 -0.63283856373E+03  0.10502616627E+04  0.00000000000E+00 0. -1.
        -13    1    3    3    0    0 -0.26796867864E+03  0.71896593914E+03 -0.60962331382E+03  0.97997949934E+03  0.00000000000E+00 0.  1.
         22    1    1    2    0    0  0.47321664939E+03 -0.15316394178E+04 -0.13386525034E+03  0.16086557148E+04  0.00000000000E+00 0. -1.
<mgrwt>
<rscale>  0 0.33685745E+04</rscale>
<asrwt>0</asrwt>
<pdfrwt beam="1">  1        2 0.17404383E+00 0.33685745E+04</pdfrwt>
<pdfrwt beam="2">  1       -2 0.38578646E+00 0.33685745E+04</pdfrwt>
<totfact> 0.15888965E-01</totfact>
</mgrwt>
</event>
<event>
 6    1  0.1829698E-005  0.3212514E+04  0.7818608E-02  0.8185520E-01
          2   -1    0    0  501    0  0.00000000000E+00  0.00000000000E+00  0.16499532248E+04  0.16499532248E+04  0.00000000000E+00 0. -1.
         -2   -1    0    0    0  501 -0.00000000000E+00 -0.00000000000E+00 -0.15637181212E+04  0.15637181212E+04  0.00000000000E+00 0.  1.
         23    2    1    2    0    0 -0.13710968205E+03  0.15523694995E+04  0.42699631792E+03  0.16184383433E+04  0.91469599898E+02 0.  0.
         11    1    3    3    0    0 -0.81035534234E+02  0.82654418202E+03  0.18091602003E+03  0.84998391099E+03  0.00000000000E+00 0. -1.
        -11    1    3    3    0    0 -0.56074147820E+02  0.72582531743E+03  0.24608029789E+03  0.76845443228E+03  0.00000000000E+00 0.  1.
         22    1    1    2    0    0  0.13710968205E+03 -0.15523694995E+04 -0.34076121441E+03  0.15952330027E+04  0.00000000000E+00 0.  1.
<mgrwt>
<rscale>  0 0.32125141E+04</rscale>
<asrwt>0</asrwt>
<pdfrwt beam="1">  1        2 0.25383896E+00 0.32125141E+04</pdfrwt>
<pdfrwt beam="2">  1       -2 0.24057202E+00 0.32125141E+04</pdfrwt>
<totfact> 0.64636373E-01</totfact>
</mgrwt>
</event>
<event>
 6    1  0.1072514E-005  0.4069368E+03  0.7818608E-02  0.1041404E+00
          1   -1    0    0  501    0  0.00000000000E+00  0.00000000000E+00  0.18528597995E+03  0.18528597995E+03  0.00000000000E+00 0. -1.
         -1   -1    0    0    0  501 -0.00000000000E+00 -0.00000000000E+00 -0.22343509334E+03  0.22343509334E+03  0.00000000000E+00 0.  1.
         23    2    1    2    0    0 -0.46044453926E+02  0.16884620964E+03 -0.10311974811E+03  0.22203867556E+03  0.89656883426E+02 0.  0.
         13    1    3    3    0    0 -0.68277898555E+02  0.80614901619E+02 -0.56343463179E+02  0.11972977757E+03  0.00000000000E+00 0. -1.
        -13    1    3    3    0    0  0.22233444629E+02  0.88231308025E+02 -0.46776284927E+02  0.10230889799E+03  0.00000000000E+00 0.  1.
         22    1    1    2    0    0  0.46044453926E+02 -0.16884620964E+03  0.64970634709E+02  0.18668239773E+03  0.00000000000E+00 0. -1.
<mgrwt>
<rscale>  0 0.40693680E+03</rscale>
<asrwt>0</asrwt>
<pdfrwt beam="1">  1        1 0.28505535E-01 0.40693680E+03</pdfrwt>
<pdfrwt beam="2">  1       -1 0.34374630E-01 0.40693680E+03</pdfrwt>
<totfact> 0.13116024E+03</totfact>
</mgrwt>
</event>
<event>
 6    1  0.1072514E-005  0.2029349E+04  0.7818608E-02  0.8593021E-01
         -2   -1    0    0    0  501 -0.00000000000E+00  0.00000000000E+00  0.81602861625E+03  0.81602861625E+03  0.00000000000E+00 0.  1.
          2   -1    0    0  501    0  0.00000000000E+00 -0.00000000000E+00 -0.12616767309E+04  0.12616767309E+04  0.00000000000E+00 0. -1.
         23    2    1    2    0    0 -0.15904993067E+03  0.51694937656E+03 -0.10997637823E+04  0.12289410424E+04  0.91006431560E+02 0.  0.
         11    1    3    3    0    0 -0.86750734196E+02  0.33743077111E+03 -0.61260028601E+03  0.70474415613E+03  0.00000000000E+00 0.  1.
        -11    1    3    3    0    0 -0.72299196469E+02  0.17951860545E+03 -0.48716349628E+03  0.52419688632E+03  0.00000000000E+00 0. -1.
         22    1    1    2    0    0  0.15904993067E+03 -0.51694937656E+03  0.65411566762E+03  0.84876430474E+03  0.00000000000E+00 0.  1.
<mgrwt>
<rscale>  0 0.20293490E+04</rscale>
<asrwt>0</asrwt>
<pdfrwt beam="1">  1        2 0.19410411E+00 0.20293490E+04</pdfrwt>
<pdfrwt beam="2">  1       -2 0.12554286E+00 0.20293490E+04</pdfrwt>
<totfact> 0.76543865E+00</totfact>
</mgrwt>
</event>
<event>
 6    1  0.1072514E-005  0.1385293E+04  0.7818608E-02  0.8964533E-01
          2   -1    0    0  501    0  0.00000000000E+00  0.00000000000E+00  0.44168023808E+03  0.44168023808E+03  0.00000000000E+00 0. -1.
         -2   -1    0    0    0  501 -0.00000000000E+00 -0.00000000000E+00 -0.10862144025E+04  0.10862144025E+04  0.00000000000E+00 0.  1.
         23    2    1    2    0    0 -0.51354855110E+03 -0.80743596563E+02  0.17611060794E+03  0.55644753180E+03  0.91472764753E+02 0.  0.
         13    1    3    3    0    0 -0.32383590658E+03 -0.44847793853E+02  0.63844359644E+02  0.33310226847E+03  0.00000000000E+00 0.  1.
        -13    1    3    3    0    0 -0.18971264453E+03 -0.35895802711E+02  0.11226624830E+03  0.22334526333E+03  0.00000000000E+00 0. -1.
         22    1    1    2    0    0  0.51354855110E+03  0.80743596563E+02 -0.82064477232E+03  0.97144710873E+03  0.00000000000E+00 0.  1.
<mgrwt>
<rscale>  0 0.13852934E+04</rscale>
<asrwt>0</asrwt>
<pdfrwt beam="1">  1        2 0.67950807E-01 0.13852934E+04</pdfrwt>
<pdfrwt beam="2">  1       -2 0.16710991E+00 0.13852934E+04</pdfrwt>
<totfact> 0.15456568E+01</totfact>
</mgrwt>
</event>
<event>
 6    1  0.1072514E-005  0.1072227E+04  0.7818608E-02  0.9232692E-01
         -2   -1    0    0    0  501 -0.00000000000E+00  0.00000000000E+00  0.66370732250E+03  0.66370732250E+03  0.00000000000E+00 0.  1.
          2   -1    0    0  501    0  0.00000000000E+00 -0.00000000000E+00 -0.43304913876E+03  0.43304913876E+03  0.00000000000E+00 0. -1.
         23    2    1    2    0    0 -0.41084916975E+03  0.33202479250E+03  0.49927141448E+02  0.53845438106E+03  0.91667321981E+02 0.  0.
         13    1    3    3    0    0 -0.23951023284E+03  0.19892164306E+03 -0.15824916500E+02  0.31174572923E+03  0.00000000000E+00 0. -1.
        -13    1    3    3    0    0 -0.17133893691E+03  0.13310314943E+03  0.65752057948E+02  0.22670865183E+03  0.00000000000E+00 0.  1.
         22    1    1    2    0    0  0.41084916975E+03 -0.33202479250E+03  0.18073104229E+03  0.55830208020E+03  0.00000000000E+00 0. -1.
<mgrwt>
<rscale>  0 0.10722274E+04</rscale>
<asrwt>0</asrwt>
<pdfrwt beam="1">  1        2 0.66622944E-01 0.10722274E+04</pdfrwt>
<pdfrwt beam="2">  1       -2 0.10210882E+00 0.10722274E+04</pdfrwt>
<totfact> 0.56807342E+01</totfact>
</mgrwt>
</event>
<event>
 6    1  0.1072514E-005  0.2012859E+04  0.7818608E-02  0.8600632E-01
         -3   -1    0    0    0  501 -0.00000000000E+00  0.00000000000E+00  0.17187952388E+04  0.17187952388E+04  0.00000000000E+00 0.  1.
          3   -1    0    0  501    0  0.00000000000E+00 -0.00000000000E+00 -0.58930858442E+03  0.58930858442E+03  0.00000000000E+00 0. -1.
         23    2    1    2    0    0 -0.89989183886E+01  0.54501573160E+03  0.15331851606E+04  0.16298003424E+04  0.92028751518E+02 0.  0.
         13    1    3    3    0    0  0.30516973905E+02  0.13923455933E+03  0.46937508551E+03  0.49054104732E+03  0.00000000000E+00 0.  1.
        -13    1    3    3    0    0 -0.39515892293E+02  0.40578117227E+03  0.10638100751E+04  0.11392592951E+04  0.00000000000E+00 0. -1.
         22    1    1    2    0    0  0.89989183886E+01 -0.54501573160E+03 -0.40369850621E+03  0.67830348086E+03  0.00000000000E+00 0. -1.
<mgrwt>
<rscale>  0 0.20128594E+04</rscale>
<asrwt>0</asrwt>
<pdfrwt beam="1">  1        3 0.90662860E-01 0.20128594E+04</pdfrwt>
<pdfrwt beam="2">  1       -3 0.26443003E+00 0.20128594E+04</pdfrwt>
<totfact> 0.16072567E-01</totfact>
</mgrwt>
</event>
<event>
 6    1  0.1072514E-005  0.3881372E+04  0.7818608E-02  0.8028915E-01
         -2   -1    0    0    0  501 -0.00000000000E+00  0.00000000000E+00  0.17072459389E+04  0.17072459389E+04  0.00000000000E+00 0.  1.
          2   -1    0    0  501    0  0.00000000000E+00 -0.00000000000E+00 -0.22060456058E+04  0.22060456058E+04  0.00000000000E+00 0. -1.
         23    2    1    2    0    0  0.15921059487E+04 -0.96740662896E+03  0.29475131067E+03  0.18883470784E+04  0.91101130899E+02 0.  0.
         13    1    3    3    0    0  0.36550153917E+03 -0.26114727281E+03  0.50735914661E+02  0.45206571012E+03  0.00000000000E+00 0. -1.
        -13    1    3    3    0    0  0.12266044095E+04 -0.70625935615E+03  0.24401539601E+03  0.14362813683E+04  0.00000000000E+00 0.  1.
         22    1    1    2    0    0 -0.15921059487E+04  0.96740662896E+03 -0.79355097759E+03  0.20249444663E+04  0.00000000000E+00 0.  1.
<mgrwt>
<rscale>  0 0.38813721E+04</rscale>
<asrwt>0</asrwt>
<pdfrwt beam="1">  1        2 0.33939163E+00 0.38813721E+04</pdfrwt>
<pdfrwt beam="2">  1       -2 0.26265322E+00 0.38813721E+04</pdfrwt>
<totfact> 0.21934416E-01</totfact>
</mgrwt>
</event>
<event>
 6    1  0.1072514E-005  0.2407837E+04  0.7818608E-02  0.8436575E-01
          2   -1    0    0  501    0  0.00000000000E+00  0.00000000000E+00  0.18016431128E+04  0.18016431128E+04  0.00000000000E+00 0. -1.
         -2   -1    0    0    0  501 -0.00000000000E+00 -0.00000000000E+00 -0.80449884604E+03  0.80449884604E+03  0.00000000000E+00 0.  1.
         23    2    1    2    0    0 -0.48663276320E+03  0.13234318504E+03 -0.68196977124E+03  0.85293058611E+03  0.89898003293E+02 0.  0.
         13    1    3    3    0    0 -0.20729066650E+03  0.96157085707E+02 -0.26760541688E+03  0.35189240499E+03  0.00000000000E+00 0.  1.
        -13    1    3    3    0    0 -0.27934209670E+03  0.36186099332E+02 -0.41436435436E+03  0.50103818112E+03  0.00000000000E+00 0. -1.
         22    1    1    2    0    0  0.48663276320E+03 -0.13234318504E+03  0.16791140380E+04  0.17532113727E+04  0.00000000000E+00 0. -1.
<mgrwt>
<rscale>  0 0.24078370E+04</rscale>
<asrwt>0</asrwt>
<pdfrwt beam="1">  1        2 0.27717586E+00 0.24078370E+04</pdfrwt>
<pdfrwt beam="2">  1       -2 0.12376905E+00 0.24078370E+04</pdfrwt>
<totfact> 0.38038693E+00</totfact>
</mgrwt>
</event>
<event>
 6    1  0.1072514E-005  0.4250426E+03  0.7818608E-02  0.1035438E+00
         -2   -1    0    0    0  501 -0.00000000000E+00  0.00000000000E+00  0.53162136148E+02  0.53162136148E+02  0.00000000000E+00 0.  1.
          2   -1    0    0  501    0  0.00000000000E+00 -0.00000000000E+00 -0.84957650770E+03  0.84957650770E+03  0.00000000000E+00 0. -1.
         23    2    1    2    0    0 -0.16520135825E+03 -0.31208691655E+02 -0.17680162219E+03  0.26072195374E+03  0.91932868731E+02 0.  0.
         11    1    3    3    0    0 -0.10893302858E+03 -0.16213096823E+02 -0.16935460489E+03  0.20201547322E+03  0.00000000000E+00 0. -1.
        -11    1    3    3    0    0 -0.56268329672E+02 -0.14995594832E+02 -0.74470172978E+01  0.58706480520E+02  0.00000000000E+00 0.  1.
         22    1    1    2    0    0  0.16520135825E+03  0.31208691655E+02 -0.61961274936E+03  0.64201669011E+03  0.00000000000E+00 0. -1.
<mgrwt>
<rscale>  0 0.42504260E+03</rscale>
<asrwt>0</asrwt>
<pdfrwt beam="1">  1        2 0.13070407E+00 0.42504260E+03</pdfrwt>
<pdfrwt beam="2">  1       -2 0.81787909E-02 0.42504260E+03</pdfrwt>
<totfact> 0.30093998E+03</totfact>
</mgrwt>
</event>
<event>
 6    1  0.1072514E-005  0.2155228E+04  0.7818608E-02  0.8537298E-01
         -2   -1    0    0    0  501 -0.00000000000E+00  0.00000000000E+00  0.99317391575E+03  0.99317391575E+03  0.00000000000E+00 0.  1.
          2   -1    0    0  501    0  0.00000000000E+00 -0.00000000000E+00 -0.11692332474E+04  0.11692332474E+04  0.00000000000E+00 0. -1.
         23    2    1    2    0    0 -0.20290083216E+03  0.10504907048E+04 -0.20115718199E+03  0.10922065414E+04  0.88042311779E+02 0.  0.
         11    1    3    3    0    0 -0.30190187584E+02  0.23501559779E+03 -0.78823751234E+02  0.24971376091E+03  0.00000000000E+00 0.  1.
        -11    1    3    3    0    0 -0.17271064458E+03  0.81547510702E+03 -0.12233343076E+03  0.84249278051E+03  0.00000000000E+00 0. -1.
         22    1    1    2    0    0  0.20290083216E+03 -0.10504907048E+04  0.25097850383E+02  0.10702006217E+04  0.00000000000E+00 0.  1.
<mgrwt>
<rscale>  0 0.21552280E+04</rscale>
<asrwt>0</asrwt>
<pdfrwt beam="1">  1        2 0.17988204E+00 0.21552280E+04</pdfrwt>
<pdfrwt beam="2">  1       -2 0.15279599E+00 0.21552280E+04</pdfrwt>
<totfact> 0.51724948E+00</totfact>
</mgrwt>
</event>
<event>
 6    1  0.1072514E-005  0.2288745E+04  0.7818608E-02  0.8482372E-01
          1   -1    0    0  501    0  0.00000000000E+00  0.00000000000E+00  0.30567929581E+04  0.30567929581E+04  0.00000000000E+00 0. -1.
         -1   -1    0    0    0  501 -0.00000000000E+00 -0.00000000000E+00 -0.42841903557E+03  0.42841903557E+03  0.00000000000E+00 0.  1.
         23    2    1    2    0    0 -0.55345712067E+03  0.37062620312E+02 -0.20488641151E+03  0.59816288728E+03  0.90177468698E+02 0.  0.
         13    1    3    3    0    0 -0.42215602637E+03  0.98099593229E+01 -0.19063794970E+03  0.46330850820E+03  0.00000000000E+00 0. -1.
        -13    1    3    3    0    0 -0.13130109429E+03  0.27252660989E+02 -0.14248461807E+02  0.13485437908E+03  0.00000000000E+00 0.  1.
         22    1    1    2    0    0  0.55345712067E+03 -0.37062620312E+02  0.28332603341E+04  0.28870491064E+04  0.00000000000E+00 0. -1.
<mgrwt>
<rscale>  0 0.22887449E+04</rscale>
<asrwt>0</asrwt>
<pdfrwt beam="1">  1        1 0.47027582E+00 0.22887449E+04</pdfrwt>
<pdfrwt beam="2">  1       -1 0.65910623E-01 0.22887449E+04</pdfrwt>
<totfact> 0.11472562E+00</totfact>
</mgrwt>
</event>
<event>
 6    1  0.1072514E-005  0.4097869E+04  0.7818608E-02  0.7985089E-01
         -2   -1    0    0    0  501 -0.00000000000E+00  0.00000000000E+00  0.21145642584E+04  0.21145642584E+04  0.00000000000E+00 0. -1.
          2   -1    0    0  501    0  0.00000000000E+00 -0.00000000000E+00 -0.19853416414E+04  0.19853416414E+04  0.00000000000E+00 0.  1.
         23    2    1    2    0    0  0.23799842526E+03 -0.16082146145E+04  0.13102433644E+04  0.20904762536E+04  0.10176343248E+03 0.  0.
         13    1    3    3    0    0  0.13699059302E+03 -0.64848258739E+03  0.57112556073E+03  0.87491742173E+03  0.00000000000E+00 0.  1.
        -13    1    3    3    0    0  0.10100783224E+03 -0.95973202716E+03  0.73911780365E+03  0.12155588319E+04  0.00000000000E+00 0. -1.
         22    1    1    2    0    0 -0.23799842526E+03  0.16082146145E+04 -0.11810207474E+04  0.20094296461E+04  0.00000000000E+00 0. -1.
<mgrwt>
<rscale>  0 0.40978689E+04</rscale>
<asrwt>0</asrwt>
<pdfrwt beam="1">  1        2 0.30543718E+00 0.40978689E+04</pdfrwt>
<pdfrwt beam="2">  1       -2 0.32531758E+00 0.40978689E+04</pdfrwt>
<totfact> 0.11826227E-01</totfact>
</mgrwt>
</event>
<event>
 6    1  0.1072514E-005  0.2836341E+04  0.7818608E-02  0.8292074E-01
         -1   -1    0    0    0  501 -0.00000000000E+00  0.00000000000E+00  0.10837210917E+04  0.10837210917E+04  0.00000000000E+00 0.  1.
          1   -1    0    0  501    0  0.00000000000E+00 -0.00000000000E+00 -0.18558344181E+04  0.18558344181E+04  0.00000000000E+00 0. -1.
         23    2    1    2    0    0 -0.60809076058E+03 -0.36730039868E+03 -0.16567757595E+04  0.18049579704E+04  0.91013195338E+02 0.  0.
         13    1    3    3    0    0 -0.35139224707E+03 -0.16365865311E+03 -0.85214091866E+03  0.93616494877E+03  0.00000000000E+00 0.  1.
        -13    1    3    3    0    0 -0.25669851350E+03 -0.20364174556E+03 -0.80463484082E+03  0.86879302163E+03  0.00000000000E+00 0. -1.
         22    1    1    2    0    0  0.60809076058E+03  0.36730039868E+03  0.88466243303E+03  0.11345975394E+04  0.00000000000E+00 0.  1.
<mgrwt>
<rscale>  0 0.28363405E+04</rscale>
<asrwt>0</asrwt>
<pdfrwt beam="1">  1        1 0.28551298E+00 0.28363405E+04</pdfrwt>
<pdfrwt beam="2">  1       -1 0.16672632E+00 0.28363405E+04</pdfrwt>
<totfact> 0.83822509E-01</totfact>
</mgrwt>
</event>
<event>
 6    1  0.1072514E-005  0.1549550E+04  0.7818608E-02  0.8852155E-01
          2   -1    0    0  501    0  0.00000000000E+00  0.00000000000E+00  0.21284070238E+04  0.21284070238E+04  0.00000000000E+00 0. -1.
         -2   -1    0    0    0  501 -0.00000000000E+00 -0.00000000000E+00 -0.28203081537E+03  0.28203081537E+03  0.00000000000E+00 0.  1.
         23    2    1    2    0    0 -0.26763856110E+03 -0.47083879758E+03  0.17824229298E+04  0.18650851143E+04  0.90506409533E+02 0.  0.
         11    1    3    3    0    0 -0.10531769561E+03 -0.10442618434E+03  0.49021821377E+03  0.51216261294E+03  0.00000000000E+00 0. -1.
        -11    1    3    3    0    0 -0.16232086548E+03 -0.36641261324E+03  0.12922047160E+04  0.13529225013E+04  0.00000000000E+00 0.  1.
         22    1    1    2    0    0  0.26763856110E+03  0.47083879758E+03  0.63953278631E+02  0.54535272489E+03  0.00000000000E+00 0.  1.
<mgrwt>
<rscale>  0 0.15495501E+04</rscale>
<asrwt>0</asrwt>
<pdfrwt beam="1">  1        2 0.32744722E+00 0.15495501E+04</pdfrwt>
<pdfrwt beam="2">  1       -2 0.43389358E-01 0.15495501E+04</pdfrwt>
<totfact> 0.27481826E+01</totfact>
</mgrwt>
</event>
<event>
 6    1  0.1072514E-005  0.2288897E+04  0.7818608E-02  0.8482312E-01
         -2   -1    0    0    0  501 -0.00000000000E+00  0.00000000000E+00  0.44964088854E+03  0.44964088854E+03  0.00000000000E+00 0.  1.
          2   -1    0    0  501    0  0.00000000000E+00 -0.00000000000E+00 -0.29129070746E+04  0.29129070746E+04  0.00000000000E+00 0. -1.
         23    2    1    2    0    0 -0.43039827837E+03 -0.93929887905E+03 -0.19480802256E+04  0.22080170471E+04  0.11312671102E+03 0.  0.
         13    1    3    3    0    0 -0.27776991481E+03 -0.48274580196E+03 -0.99553374933E+03  0.11407397078E+04  0.00000000000E+00 0.  1.
        -13    1    3    3    0    0 -0.15262836356E+03 -0.45655307710E+03 -0.95254647626E+03  0.10672773393E+04  0.00000000000E+00 0. -1.
         22    1    1    2    0    0  0.43039827837E+03  0.93929887905E+03 -0.51518596046E+03  0.11545309160E+04  0.00000000000E+00 0.  1.
<mgrwt>
<rscale>  0 0.22888968E+04</rscale>
<asrwt>0</asrwt>
<pdfrwt beam="1">  1        2 0.44813955E+00 0.22888968E+04</pdfrwt>
<pdfrwt beam="2">  1       -2 0.69175521E-01 0.22888968E+04</pdfrwt>
<totfact> 0.34168183E+00</totfact>
</mgrwt>
</event>
<event>
 6    1  0.1072514E-005  0.2135407E+04  0.7818608E-02  0.8545805E-01
         -2   -1    0    0    0  501 -0.00000000000E+00  0.00000000000E+00  0.60365218064E+03  0.60365218064E+03  0.00000000000E+00 0.  1.
          2   -1    0    0  501    0  0.00000000000E+00 -0.00000000000E+00 -0.18884888923E+04  0.18884888923E+04  0.00000000000E+00 0. -1.
         23    2    1    2    0    0  0.12302972885E+03  0.94732178145E+03 -0.11950108669E+04  0.15326497732E+04  0.91703236588E+02 0.  0.
         11    1    3    3    0    0  0.14018521008E+02  0.14863882458E+03 -0.24312811042E+03  0.28530912565E+03  0.00000000000E+00 0.  1.
        -11    1    3    3    0    0  0.10901120784E+03  0.79868295688E+03 -0.95188275648E+03  0.12473406476E+04  0.00000000000E+00 0. -1.
         22    1    1    2    0    0 -0.12302972885E+03 -0.94732178145E+03 -0.89825844749E+02  0.95949129969E+03  0.00000000000E+00 0.  1.
<mgrwt>
<rscale>  0 0.21354067E+04</rscale>
<asrwt>0</asrwt>
<pdfrwt beam="1">  1        2 0.29053675E+00 0.21354067E+04</pdfrwt>
<pdfrwt beam="2">  1       -2 0.92869568E-01 0.21354067E+04</pdfrwt>
<totfact> 0.69577816E+00</totfact>
</mgrwt>
</event>
<event>
 6    1  0.1387041E-005  0.2802753E+04  0.7818608E-02  0.8302414E-01
          1   -1    0    0  501    0  0.00000000000E+00  0.00000000000E+00  0.24714540871E+04  0.24714540871E+04  0.00000000000E+00 0. -1.
         -1   -1    0    0    0  501 -0.00000000000E+00 -0.00000000000E+00 -0.79461547508E+03  0.79461547508E+03  0.00000000000E+00 0.  1.
         23    2    1    2    0    0  0.34898139361E+03 -0.21289395429E+01  0.24192213086E+04  0.24457497382E+04  0.85249611821E+02 0.  0.
         11    1    3    3    0    0  0.72681531623E+02  0.12044988375E+02  0.76644359554E+03  0.76997628010E+03  0.00000000000E+00 0.  1.
        -11    1    3    3    0    0  0.27629986199E+03 -0.14173927918E+02  0.16527777131E+04  0.16757734581E+04  0.00000000000E+00 0. -1.
         22    1    1    2    0    0 -0.34898139361E+03  0.21289395429E+01 -0.74238269658E+03  0.82031982401E+03  0.00000000000E+00 0.  1.
<mgrwt>
<rscale>  0 0.28027527E+04</rscale>
<asrwt>0</asrwt>
<pdfrwt beam="1">  1        1 0.38022370E+00 0.28027527E+04</pdfrwt>
<pdfrwt beam="2">  1       -1 0.12224854E+00 0.28027527E+04</pdfrwt>
<totfact> 0.72551230E-01</totfact>
</mgrwt>
</event>
<event>
 6    1  0.1072514E-005  0.9863018E+03  0.7818608E-02  0.9323698E-01
         -1   -1    0    0    0  501 -0.00000000000E+00  0.00000000000E+00  0.22771967710E+03  0.22771967710E+03  0.00000000000E+00 0.  1.
          1   -1    0    0  501    0  0.00000000000E+00 -0.00000000000E+00 -0.10679700216E+04  0.10679700216E+04  0.00000000000E+00 0. -1.
         23    2    1    2    0    0 -0.20512577177E+03  0.75597360985E+02  0.14909793287E+03  0.28247621816E+03  0.98848758263E+02 0.  0.
         11    1    3    3    0    0 -0.97876383277E+02 -0.14459017661E+02  0.49530156247E+02  0.11064396040E+03  0.00000000000E+00 0. -1.
        -11    1    3    3    0    0 -0.10724938850E+03  0.90056378646E+02  0.99567776619E+02  0.17183225776E+03  0.00000000000E+00 0.  1.
         22    1    1    2    0    0  0.20512577177E+03 -0.75597360985E+02 -0.98934827735E+03  0.10132134805E+04  0.00000000000E+00 0. -1.
<mgrwt>
<rscale>  0 0.98630176E+03</rscale>
<asrwt>0</asrwt>
<pdfrwt beam="1">  1        1 0.16430308E+00 0.98630176E+03</pdfrwt>
<pdfrwt beam="2">  1       -1 0.35033797E-01 0.98630176E+03</pdfrwt>
<totfact> 0.10409355E+02</totfact>
</mgrwt>
</event>
<event>
 6    1  0.1072514E-005  0.1603674E+04  0.7818608E-02  0.8818294E-01
         -1   -1    0    0    0  501 -0.00000000000E+00  0.00000000000E+00  0.19602787896E+03  0.19602787896E+03  0.00000000000E+00 0.  1.
          1   -1    0    0  501    0  0.00000000000E+00 -0.00000000000E+00 -0.32798519500E+04  0.32798519500E+04  0.00000000000E+00 0. -1.
         23    2    1    2    0    0 -0.24475753325E+03 -0.40746674102E+02 -0.31935862364E+04  0.32045603226E+04  0.92990701015E+02 0.  0.
         11    1    3    3    0    0 -0.11923207795E+03 -0.58886991436E+02 -0.19479724999E+04  0.19525062936E+04  0.00000000000E+00 0.  1.
        -11    1    3    3    0    0 -0.12552545530E+03  0.18140317334E+02 -0.12456137365E+04  0.12520540291E+04  0.00000000000E+00 0. -1.
         22    1    1    2    0    0  0.24475753325E+03  0.40746674102E+02  0.10976216541E+03  0.27131950628E+03  0.00000000000E+00 0.  1.
<mgrwt>
<rscale>  0 0.16036738E+04</rscale>
<asrwt>0</asrwt>
<pdfrwt beam="1">  1        1 0.50459256E+00 0.16036738E+04</pdfrwt>
<pdfrwt beam="2">  1       -1 0.30158138E-01 0.16036738E+04</pdfrwt>
<totfact> 0.36142681E+00</totfact>
</mgrwt>
</event>
<event>
 6    1  0.1072514E-005  0.1793454E+04  0.7818608E-02  0.8709788E-01
          2   -1    0    0  501    0  0.00000000000E+00  0.00000000000E+00  0.88101615755E+03  0.88101615755E+03  0.00000000000E+00 0. -1.
         -2   -1    0    0    0  501 -0.00000000000E+00 -0.00000000000E+00 -0.91271790833E+03  0.91271790833E+03  0.00000000000E+00 0.  1.
         23    2    1    2    0    0 -0.36644696922E+03 -0.57622650181E+03  0.56177523012E+03  0.88900466463E+03  0.91747053990E+02 0.  0.
         11    1    3    3    0    0 -0.23696126298E+03 -0.29894259500E+03  0.28226839659E+03  0.47454479554E+03  0.00000000000E+00 0.  1.
        -11    1    3    3    0    0 -0.12948570624E+03 -0.27728390681E+03  0.27950683352E+03  0.41445986909E+03  0.00000000000E+00 0. -1.
         22    1    1    2    0    0  0.36644696922E+03  0.57622650181E+03 -0.59347698089E+03  0.90472940125E+03  0.00000000000E+00 0.  1.
<mgrwt>
<rscale>  0 0.17934539E+04</rscale>
<asrwt>0</asrwt>
<pdfrwt beam="1">  1        2 0.13554095E+00 0.17934539E+04</pdfrwt>
<pdfrwt beam="2">  1       -2 0.14041814E+00 0.17934539E+04</pdfrwt>
<totfact> 0.10166893E+01</totfact>
</mgrwt>
</event>
<event>
 6    1  0.1072514E-005  0.4596528E+04  0.7818608E-02  0.7893952E-01
         -2   -1    0    0    0  501 -0.00000000000E+00  0.00000000000E+00  0.14567513566E+04  0.14567513566E+04  0.00000000000E+00 0.  1.
          2   -1    0    0  501    0  0.00000000000E+00 -0.00000000000E+00 -0.36258876229E+04  0.36258876229E+04  0.00000000000E+00 0. -1.
         23    2    1    2    0    0  0.14751539163E+04  0.17256161899E+04 -0.14745468136E+04  0.27085528775E+04  0.90222354151E+02 0.  0.
         13    1    3    3    0    0  0.29388640498E+03  0.32618013914E+03 -0.24553864138E+03  0.50304266878E+03  0.00000000000E+00 0.  1.
        -13    1    3    3    0    0  0.11812675113E+04  0.13994360508E+04 -0.12290081722E+04  0.22055102087E+04  0.00000000000E+00 0. -1.
         22    1    1    2    0    0 -0.14751539163E+04 -0.17256161899E+04 -0.69458945279E+03  0.23740861020E+04  0.00000000000E+00 0.  1.
<mgrwt>
<rscale>  0 0.45965277E+04</rscale>
<asrwt>0</asrwt>
<pdfrwt beam="1">  1        2 0.55782886E+00 0.45965277E+04</pdfrwt>
<pdfrwt beam="2">  1       -2 0.22411559E+00 0.45965277E+04</pdfrwt>
<totfact> 0.46172544E-02</totfact>
</mgrwt>
</event>
<event>
 6    1  0.1072514E-005  0.1718191E+04  0.7818608E-02  0.8751057E-01
         -1   -1    0    0    0  501 -0.00000000000E+00  0.00000000000E+00  0.21540383116E+03  0.21540383116E+03  0.00000000000E+00 0.  1.
          1   -1    0    0  501    0  0.00000000000E+00 -0.00000000000E+00 -0.34263308337E+04  0.34263308337E+04  0.00000000000E+00 0. -1.
         23    2    1    2    0    0 -0.18394892708E+03 -0.77346162691E+02 -0.33760477098E+04  0.33827279379E+04  0.73010455878E+02 0.  0.
         13    1    3    3    0    0 -0.44288317202E+02 -0.23059343843E+02 -0.14504137433E+04  0.14512729637E+04  0.00000000000E+00 0.  1.
        -13    1    3    3    0    0 -0.13966060987E+03 -0.54286818847E+02 -0.19256339665E+04  0.19314549742E+04  0.00000000000E+00 0. -1.
         22    1    1    2    0    0  0.18394892708E+03  0.77346162691E+02  0.16512070722E+03  0.25900672696E+03  0.00000000000E+00 0.  1.
<mgrwt>
<rscale>  0 0.17181907E+04</rscale>
<asrwt>0</asrwt>
<pdfrwt beam="1">  1        1 0.52712780E+00 0.17181907E+04</pdfrwt>
<pdfrwt beam="2">  1       -1 0.33139052E-01 0.17181907E+04</pdfrwt>
<totfact> 0.23369331E+00</totfact>
</mgrwt>
</event>
<event>
 6    1  0.1072514E-005  0.1342191E+04  0.7818608E-02  0.8996760E-01
         -4   -1    0    0    0  501 -0.00000000000E+00  0.00000000000E+00  0.16629120074E+04  0.16629120074E+04  0.00000000000E+00 0.  1.
          4   -1    0    0  501    0  0.00000000000E+00 -0.00000000000E+00 -0.27083172567E+03  0.27083172567E+03  0.00000000000E+00 0. -1.
         23    2    1    2    0    0  0.31281694958E+03 -0.47426779793E+03  0.12054391608E+04  0.13357309438E+04  0.91154789868E+02 0.  0.
         11    1    3    3    0    0  0.21521139811E+03 -0.29419489437E+03  0.67523427641E+03  0.76733819779E+03  0.00000000000E+00 0.  1.
        -11    1    3    3    0    0  0.97605551464E+02 -0.18007290356E+03  0.53020488443E+03  0.56839274604E+03  0.00000000000E+00 0. -1.
         22    1    1    2    0    0 -0.31281694958E+03  0.47426779793E+03  0.18664112091E+03  0.59801278925E+03  0.00000000000E+00 0. -1.
<mgrwt>
<rscale>  0 0.13421912E+04</rscale>
<asrwt>0</asrwt>
<pdfrwt beam="1">  1        4 0.41666420E-01 0.13421912E+04</pdfrwt>
<pdfrwt beam="2">  1       -4 0.25583261E+00 0.13421912E+04</pdfrwt>
<totfact> 0.63994403E-01</totfact>
</mgrwt>
</event>
<event>
 6    1  0.1072514E-005  0.3447330E+04  0.7818608E-02  0.8126387E-01
         -1   -1    0    0    0  501 -0.00000000000E+00  0.00000000000E+00  0.36054036342E+04  0.36054036342E+04  0.00000000000E+00 0.  1.
          1   -1    0    0  501    0  0.00000000000E+00 -0.00000000000E+00 -0.82404657404E+03  0.82404657404E+03  0.00000000000E+00 0. -1.
         23    2    1    2    0    0  0.60705542218E+03 -0.12511689382E+04  0.26975717662E+04  0.30362668129E+04  0.89903992059E+02 0.  0.
         13    1    3    3    0    0  0.26984972010E+03 -0.65814401383E+03  0.13634721941E+04  0.15378650261E+04  0.00000000000E+00 0. -1.
        -13    1    3    3    0    0  0.33720570209E+03 -0.59302492440E+03  0.13340995721E+04  0.14984017868E+04  0.00000000000E+00 0.  1.
         22    1    1    2    0    0 -0.60705542218E+03  0.12511689382E+04  0.83785293991E+02  0.13931833954E+04  0.00000000000E+00 0. -1.
<mgrwt>
<rscale>  0 0.34473297E+04</rscale>
<asrwt>0</asrwt>
<pdfrwt beam="1">  1        1 0.12677640E+00 0.34473297E+04</pdfrwt>
<pdfrwt beam="2">  1       -1 0.55467747E+00 0.34473297E+04</pdfrwt>
<totfact> 0.12210499E-02</totfact>
</mgrwt>
</event>
<event>
 6    1  0.1072514E-005  0.1780005E+04  0.7818608E-02  0.8717006E-01
          2   -1    0    0  501    0  0.00000000000E+00  0.00000000000E+00  0.13459443436E+04  0.13459443436E+04  0.00000000000E+00 0. -1.
         -2   -1    0    0    0  501 -0.00000000000E+00 -0.00000000000E+00 -0.58851178115E+03  0.58851178115E+03  0.00000000000E+00 0.  1.
         23    2    1    2    0    0  0.36216789241E+03 -0.43713885037E+03 -0.36208234464E+03  0.67923917777E+03  0.89477815727E+02 0.  0.
         11    1    3    3    0    0  0.25816197058E+03 -0.35323933660E+03 -0.24426658787E+03  0.50109060850E+03  0.00000000000E+00 0.  1.
        -11    1    3    3    0    0  0.10400592183E+03 -0.83899513772E+02 -0.11781575677E+03  0.17814856926E+03  0.00000000000E+00 0. -1.
         22    1    1    2    0    0 -0.36216789241E+03  0.43713885037E+03  0.11195149071E+04  0.12552169470E+04  0.00000000000E+00 0. -1.
<mgrwt>
<rscale>  0 0.17800046E+04</rscale>
<asrwt>0</asrwt>
<pdfrwt beam="1">  1        2 0.20706836E+00 0.17800046E+04</pdfrwt>
<pdfrwt beam="2">  1       -2 0.90540274E-01 0.17800046E+04</pdfrwt>
<totfact> 0.15322835E+01</totfact>
</mgrwt>
</event>
<event>
 6    1  0.1072514E-005  0.4383636E+04  0.7818608E-02  0.7931331E-01
          2   -1    0    0  501    0  0.00000000000E+00  0.00000000000E+00  0.26791917752E+04  0.26791917752E+04  0.00000000000E+00 0.  1.
         -2   -1    0    0    0  501 -0.00000000000E+00 -0.00000000000E+00 -0.17931031533E+04  0.17931031533E+04  0.00000000000E+00 0. -1.
         23    2    1    2    0    0 -0.11608262462E+04 -0.16595329173E+04 -0.40936492834E+03  0.20681803352E+04  0.90681734786E+02 0.  0.
         11    1    3    3    0    0 -0.51459461751E+03 -0.73861264392E+03 -0.13606574087E+03  0.91042305769E+03  0.00000000000E+00 0.  1.
        -11    1    3    3    0    0 -0.64623162867E+03 -0.92092027333E+03 -0.27329918746E+03  0.11577572775E+04  0.00000000000E+00 0. -1.
         22    1    1    2    0    0  0.11608262462E+04  0.16595329173E+04  0.12954535502E+04  0.24041145934E+04  0.00000000000E+00 0.  1.
<mgrwt>
<rscale>  0 0.43836365E+04</rscale>
<asrwt>0</asrwt>
<pdfrwt beam="1">  1        2 0.41218335E+00 0.43836365E+04</pdfrwt>
<pdfrwt beam="2">  1       -2 0.27586202E+00 0.43836365E+04</pdfrwt>
<totfact> 0.93266646E-02</totfact>
</mgrwt>
</event>
<event>
 6    1  0.1072514E-005  0.2842361E+04  0.7818608E-02  0.8290236E-01
         -2   -1    0    0    0  501 -0.00000000000E+00  0.00000000000E+00  0.97899787227E+03  0.97899787227E+03  0.00000000000E+00 0.  1.
          2   -1    0    0  501    0  0.00000000000E+00 -0.00000000000E+00 -0.20630826853E+04  0.20630826853E+04  0.00000000000E+00 0. -1.
         23    2    1    2    0    0 -0.10558364754E+04 -0.40322508850E+03  0.37494889232E+03  0.11965019252E+04  0.11682915072E+03 0.  0.
         13    1    3    3    0    0 -0.64084108131E+03 -0.24469722728E+03  0.16704213314E+03  0.70601494232E+03  0.00000000000E+00 0.  1.
        -13    1    3    3    0    0 -0.41499539409E+03 -0.15852786122E+03  0.20790675917E+03  0.49048698292E+03  0.00000000000E+00 0. -1.
         22    1    1    2    0    0  0.10558364754E+04  0.40322508850E+03 -0.14590337053E+04  0.18455786323E+04  0.00000000000E+00 0. -1.
<mgrwt>
<rscale>  0 0.28423607E+04</rscale>
<asrwt>0</asrwt>
<pdfrwt beam="1">  1        2 0.31739733E+00 0.28423607E+04</pdfrwt>
<pdfrwt beam="2">  1       -2 0.15061506E+00 0.28423607E+04</pdfrwt>
<totfact> 0.15836383E+00</totfact>
</mgrwt>
</event>
<event>
 6    1  0.1072514E-005  0.1313378E+04  0.7818608E-02  0.9019023E-01
          1   -1    0    0  501    0  0.00000000000E+00  0.00000000000E+00  0.10832972856E+04  0.10832972856E+04  0.00000000000E+00 0. -1.
         -1   -1    0    0    0  501 -0.00000000000E+00 -0.00000000000E+00 -0.39808109355E+03  0.39808109355E+03  0.00000000000E+00 0.  1.
         23    2    1    2    0    0 -0.64671593964E+03  0.36106865255E+02  0.44462613731E+03  0.79041616111E+03  0.86718472462E+02 0.  0.
         13    1    3    3    0    0 -0.59189247542E+03  0.33706646876E+02  0.37394589663E+03  0.70093392992E+03  0.00000000000E+00 0.  1.
        -13    1    3    3    0    0 -0.54823464221E+02  0.24002183794E+01  0.70680240678E+02  0.89482231196E+02  0.00000000000E+00 0. -1.
         22    1    1    2    0    0  0.64671593964E+03 -0.36106865255E+02  0.24059005473E+03  0.69096221802E+03  0.00000000000E+00 0. -1.
<mgrwt>
<rscale>  0 0.13133776E+04</rscale>
<asrwt>0</asrwt>
<pdfrwt beam="1">  1        1 0.16666112E+00 0.13133776E+04</pdfrwt>
<pdfrwt beam="2">  1       -1 0.61243246E-01 0.13133776E+04</pdfrwt>
<totfact> 0.34644437E+01</totfact>
</mgrwt>
</event>
<event>
 6    1  0.1072514E-005  0.9539202E+03  0.7818608E-02  0.9360580E-01
         -1   -1    0    0    0  501 -0.00000000000E+00  0.00000000000E+00  0.24824315719E+03  0.24824315719E+03  0.00000000000E+00 0.  1.
          1   -1    0    0  501    0  0.00000000000E+00 -0.00000000000E+00 -0.91640356993E+03  0.91640356993E+03  0.00000000000E+00 0. -1.
         23    2    1    2    0    0 -0.33218865735E+03 -0.16041634670E+03  0.23353121627E+02  0.38089059376E+03  0.91921530443E+02 0.  0.
         13    1    3    3    0    0 -0.84451855048E+02 -0.31994450991E+02 -0.33116693276E+02  0.96189792019E+02  0.00000000000E+00 0. -1.
        -13    1    3    3    0    0 -0.24773680231E+03 -0.12842189571E+03  0.56469814903E+02  0.28470080174E+03  0.00000000000E+00 0.  1.
         22    1    1    2    0    0  0.33218865735E+03  0.16041634670E+03 -0.69151353437E+03  0.78375613336E+03  0.00000000000E+00 0. -1.
<mgrwt>
<rscale>  0 0.95392015E+03</rscale>
<asrwt>0</asrwt>
<pdfrwt beam="1">  1        1 0.14098516E+00 0.95392015E+03</pdfrwt>
<pdfrwt beam="2">  1       -1 0.38191255E-01 0.95392015E+03</pdfrwt>
<totfact> 0.11740597E+02</totfact>
</mgrwt>
</event>
<event>
 6    1  0.1072514E-005  0.2136974E+04  0.7818608E-02  0.8545129E-01
          2   -1    0    0  501    0  0.00000000000E+00  0.00000000000E+00  0.17130129574E+04  0.17130129574E+04  0.00000000000E+00 0. -1.
         -2   -1    0    0    0  501 -0.00000000000E+00 -0.00000000000E+00 -0.66646583904E+03  0.66646583904E+03  0.00000000000E+00 0.  1.
         23    2    1    2    0    0 -0.21058558606E+03  0.52921133680E+03 -0.47990053755E+03  0.75022946798E+03  0.90159861548E+02 0.  0.
         11    1    3    3    0    0 -0.16170533074E+03  0.38225443417E+03 -0.29591620643E+03  0.50973862681E+03  0.00000000000E+00 0. -1.
        -11    1    3    3    0    0 -0.48880255316E+02  0.14695690263E+03 -0.18398433112E+03  0.24049084117E+03  0.00000000000E+00 0.  1.
         22    1    1    2    0    0  0.21058558606E+03 -0.52921133680E+03  0.15264476559E+04  0.16292493284E+04  0.00000000000E+00 0. -1.
<mgrwt>
<rscale>  0 0.21369741E+04</rscale>
<asrwt>0</asrwt>
<pdfrwt beam="1">  1        2 0.26354045E+00 0.21369741E+04</pdfrwt>
<pdfrwt beam="2">  1       -2 0.10253321E+00 0.21369741E+04</pdfrwt>
<totfact> 0.68960796E+00</totfact>
</mgrwt>
</event>
<event>
 6    1  0.1072514E-005  0.1639543E+04  0.7818608E-02  0.8796617E-01
         -2   -1    0    0    0  501 -0.00000000000E+00  0.00000000000E+00  0.58695129122E+03  0.58695129122E+03  0.00000000000E+00 0.  1.
          2   -1    0    0  501    0  0.00000000000E+00 -0.00000000000E+00 -0.11449426811E+04  0.11449426811E+04  0.00000000000E+00 0. -1.
         23    2    1    2    0    0  0.18122887157E+03 -0.56176158865E+03 -0.87605336929E+03  0.10613841595E+04  0.10318353483E+03 0.  0.
         13    1    3    3    0    0  0.17973624906E+03 -0.51251928464E+03 -0.84018176151E+03  0.10004431662E+04  0.00000000000E+00 0. -1.
        -13    1    3    3    0    0  0.14926225127E+01 -0.49242304008E+02 -0.35871607777E+02  0.60940993351E+02  0.00000000000E+00 0.  1.
         22    1    1    2    0    0 -0.18122887157E+03  0.56176158865E+03  0.31806197938E+03  0.67050981283E+03  0.00000000000E+00 0.  1.
<mgrwt>
<rscale>  0 0.16395433E+04</rscale>
<asrwt>0</asrwt>
<pdfrwt beam="1">  1        2 0.17614503E+00 0.16395433E+04</pdfrwt>
<pdfrwt beam="2">  1       -2 0.90300200E-01 0.16395433E+04</pdfrwt>
<totfact> 0.20503405E+01</totfact>
</mgrwt>
</event>
<event>
 6    1  0.1072514E-005  0.2634683E+04  0.7818608E-02  0.8356515E-01
          1   -1    0    0  501    0  0.00000000000E+00  0.00000000000E+00  0.15250937006E+04  0.15250937006E+04  0.00000000000E+00 0. -1.
         -1   -1    0    0    0  501 -0.00000000000E+00 -0.00000000000E+00 -0.11378894201E+04  0.11378894201E+04  0.00000000000E+00 0.  1.
         23    2    1    2    0    0 -0.87805383962E+03 -0.84809694464E+03  0.69015386825E+03  0.14051971987E+04  0.89553518690E+02 0.  0.
         11    1    3    3    0    0 -0.13373428473E+03 -0.16850698648E+03  0.14355870262E+03  0.25862823609E+03  0.00000000000E+00 0.  1.
        -11    1    3    3    0    0 -0.74431955490E+03 -0.67958995815E+03  0.54659516563E+03  0.11465689627E+04  0.00000000000E+00 0. -1.
         22    1    1    2    0    0  0.87805383962E+03  0.84809694464E+03 -0.30294958773E+03  0.12577859220E+04  0.00000000000E+00 0.  1.
<mgrwt>
<rscale>  0 0.26346825E+04</rscale>
<asrwt>0</asrwt>
<pdfrwt beam="1">  1        1 0.23462980E+00 0.26346825E+04</pdfrwt>
<pdfrwt beam="2">  1       -1 0.17505991E+00 0.26346825E+04</pdfrwt>
<totfact> 0.12470895E+00</totfact>
</mgrwt>
</event>
<event>
 6    1  0.1072514E-005  0.4968914E+04  0.7818608E-02  0.7833320E-01
         -1   -1    0    0    0  501 -0.00000000000E+00  0.00000000000E+00  0.15911200862E+04  0.15911200862E+04  0.00000000000E+00 0.  1.
          1   -1    0    0  501    0  0.00000000000E+00 -0.00000000000E+00 -0.38793598195E+04  0.38793598195E+04  0.00000000000E+00 0. -1.
         23    2    1    2    0    0 -0.80170887366E+03 -0.22701465858E+04 -0.47294952857E+03  0.24552550108E+04  0.91067404858E+02 0.  0.
         11    1    3    3    0    0 -0.25840291487E+03 -0.84275920647E+03 -0.14905900441E+03  0.89399873227E+03  0.00000000000E+00 0.  1.
        -11    1    3    3    0    0 -0.54330595879E+03 -0.14273873793E+04 -0.32389052416E+03  0.15612562785E+04  0.00000000000E+00 0. -1.
         22    1    1    2    0    0  0.80170887366E+03  0.22701465858E+04 -0.18152902048E+04  0.30152248949E+04  0.00000000000E+00 0. -1.
<mgrwt>
<rscale>  0 0.49689143E+04</rscale>
<asrwt>0</asrwt>
<pdfrwt beam="1">  1        1 0.59682459E+00 0.49689143E+04</pdfrwt>
<pdfrwt beam="2">  1       -1 0.24478770E+00 0.49689143E+04</pdfrwt>
<totfact> 0.66456446E-03</totfact>
</mgrwt>
</event>
<event>
 6    1  0.1072514E-005  0.2645713E+04  0.7818608E-02  0.8352837E-01
          1   -1    0    0  501    0  0.00000000000E+00  0.00000000000E+00  0.19774896049E+04  0.19774896049E+04  0.00000000000E+00 0. -1.
         -1   -1    0    0    0  501 -0.00000000000E+00 -0.00000000000E+00 -0.88493496879E+03  0.88493496879E+03  0.00000000000E+00 0.  1.
         23    2    1    2    0    0  0.12249867419E+04  0.44955906851E+03  0.77030865341E+03  0.15183492977E+04  0.96505411643E+02 0.  0.
         13    1    3    3    0    0  0.33750501818E+03  0.16658532416E+03  0.20176360939E+03  0.42704667379E+03  0.00000000000E+00 0.  1.
        -13    1    3    3    0    0  0.88748172374E+03  0.28297374435E+03  0.56854504401E+03  0.10913026239E+04  0.00000000000E+00 0. -1.
         22    1    1    2    0    0 -0.12249867419E+04 -0.44955906851E+03  0.32224598266E+03  0.13440752759E+04  0.00000000000E+00 0.  1.
<mgrwt>
<rscale>  0 0.26457133E+04</rscale>
<asrwt>0</asrwt>
<pdfrwt beam="1">  1        1 0.30422917E+00 0.26457133E+04</pdfrwt>
<pdfrwt beam="2">  1       -1 0.13614384E+00 0.26457133E+04</pdfrwt>
<totfact> 0.12204081E+00</totfact>
</mgrwt>
</event>
<event>
 6    1  0.1072514E-005  0.2456619E+04  0.7818608E-02  0.8418605E-01
          2   -1    0    0  501    0  0.00000000000E+00  0.00000000000E+00  0.14650480675E+04  0.14650480675E+04  0.00000000000E+00 0. -1.
         -2   -1    0    0    0  501 -0.00000000000E+00 -0.00000000000E+00 -0.10298258479E+04  0.10298258479E+04  0.00000000000E+00 0.  1.
         23    2    1    2    0    0 -0.29700368125E+03  0.45618688687E+03 -0.89851549883E+03  0.10543275038E+04  0.89211665568E+02 0.  0.
         13    1    3    3    0    0 -0.85202445086E+02  0.67256898166E+02 -0.18841858857E+03  0.21745002074E+03  0.00000000000E+00 0. -1.
        -13    1    3    3    0    0 -0.21180123616E+03  0.38892998870E+03 -0.71009691026E+03  0.83687748309E+03  0.00000000000E+00 0.  1.
         22    1    1    2    0    0  0.29700368125E+03 -0.45618688687E+03  0.13337377184E+04  0.14405464116E+04  0.00000000000E+00 0. -1.
<mgrwt>
<rscale>  0 0.24566191E+04</rscale>
<asrwt>0</asrwt>
<pdfrwt beam="1">  1        2 0.22539201E+00 0.24566191E+04</pdfrwt>
<pdfrwt beam="2">  1       -2 0.15843475E+00 0.24566191E+04</pdfrwt>
<totfact> 0.30771278E+00</totfact>
</mgrwt>
</event>
<event>
 6    1  0.1072514E-005  0.3064070E+04  0.7818608E-02  0.8225668E-01
          2   -1    0    0  501    0  0.00000000000E+00  0.00000000000E+00  0.36479657521E+04  0.36479657521E+04  0.00000000000E+00 0. -1.
         -2   -1    0    0    0  501 -0.00000000000E+00 -0.00000000000E+00 -0.64340824657E+03  0.64340824657E+03  0.00000000000E+00 0.  1.
         23    2    1    2    0    0 -0.12804219387E+04  0.60218712403E+03  0.23212052435E+04  0.27200433563E+04  0.92371013480E+02 0.  0.
         11    1    3    3    0    0 -0.98611291734E+03  0.45122638473E+03  0.17044760464E+04  0.20202134859E+04  0.00000000000E+00 0. -1.
        -11    1    3    3    0    0 -0.29430902140E+03  0.15096073930E+03  0.61672919714E+03  0.69982987039E+03  0.00000000000E+00 0.  1.
         22    1    1    2    0    0  0.12804219387E+04 -0.60218712403E+03  0.68335226199E+03  0.15713306423E+04  0.00000000000E+00 0.  1.
<mgrwt>
<rscale>  0 0.30640700E+04</rscale>
<asrwt>0</asrwt>
<pdfrwt beam="1">  1        2 0.56122549E+00 0.30640700E+04</pdfrwt>
<pdfrwt beam="2">  1       -2 0.98985886E-01 0.30640700E+04</pdfrwt>
<totfact> 0.45877826E-01</totfact>
</mgrwt>
</event>
<event>
 6    1  0.1072514E-005  0.3879560E+04  0.7818608E-02  0.8029294E-01
          1   -1    0    0  501    0  0.00000000000E+00  0.00000000000E+00  0.21535077998E+04  0.21535077998E+04  0.00000000000E+00 0.  1.
         -1   -1    0    0    0  501 -0.00000000000E+00 -0.00000000000E+00 -0.17472634645E+04  0.17472634645E+04  0.00000000000E+00 0. -1.
         23    2    1    2    0    0 -0.92158785629E+03  0.13592081126E+04 -0.83276464501E+03  0.18436095975E+04  0.92889848726E+02 0.  0.
         11    1    3    3    0    0 -0.47452992553E+03  0.76575895491E+03 -0.48742041136E+03  0.10242773475E+04  0.00000000000E+00 0.  1.
        -11    1    3    3    0    0 -0.44705793075E+03  0.59344915766E+03 -0.34534423365E+03  0.81933225000E+03  0.00000000000E+00 0. -1.
         22    1    1    2    0    0  0.92158785629E+03 -0.13592081126E+04  0.12390089802E+04  0.20571616668E+04  0.00000000000E+00 0.  1.
<mgrwt>
<rscale>  0 0.38795595E+04</rscale>
<asrwt>0</asrwt>
<pdfrwt beam="1">  1        1 0.33130889E+00 0.38795595E+04</pdfrwt>
<pdfrwt beam="2">  1       -1 0.26880976E+00 0.38795595E+04</pdfrwt>
<totfact> 0.97430928E-02</totfact>
</mgrwt>
</event>
<event>
 6    1  0.1072514E-005  0.1841845E+04  0.7818608E-02  0.8684358E-01
         -1   -1    0    0    0  501 -0.00000000000E+00  0.00000000000E+00  0.14450265860E+04  0.14450265860E+04  0.00000000000E+00 0.  1.
          1   -1    0    0  501    0  0.00000000000E+00 -0.00000000000E+00 -0.58690867789E+03  0.58690867789E+03  0.00000000000E+00 0. -1.
         23    2    1    2    0    0  0.27543890152E+02 -0.42754181831E+03 -0.46606438052E+03  0.64017041098E+03  0.95139245418E+02 0.  0.
         13    1    3    3    0    0  0.27326340437E+02 -0.12233719779E+03 -0.82798145588E+02  0.15022866490E+03  0.00000000000E+00 0. -1.
        -13    1    3    3    0    0  0.21754971514E+00 -0.30520462052E+03 -0.38326623493E+03  0.48994174608E+03  0.00000000000E+00 0.  1.
         22    1    1    2    0    0 -0.27543890152E+02  0.42754181831E+03  0.13241822886E+04  0.13917648529E+04  0.00000000000E+00 0.  1.
<mgrwt>
<rscale>  0 0.18418454E+04</rscale>
<asrwt>0</asrwt>
<pdfrwt beam="1">  1        1 0.90293643E-01 0.18418454E+04</pdfrwt>
<pdfrwt beam="2">  1       -1 0.22231178E+00 0.18418454E+04</pdfrwt>
<totfact> 0.35299136E+00</totfact>
</mgrwt>
</event>
<event>
 6    1  0.1072514E-005  0.5217601E+04  0.7818608E-02  0.7795790E-01
         -2   -1    0    0    0  501 -0.00000000000E+00  0.00000000000E+00  0.24223040003E+04  0.24223040003E+04  0.00000000000E+00 0.  1.
          2   -1    0    0  501    0  0.00000000000E+00 -0.00000000000E+00 -0.28096553765E+04  0.28096553765E+04  0.00000000000E+00 0. -1.
         23    2    1    2    0    0 -0.24407970043E+03  0.25820982383E+04 -0.46804572086E+03  0.26370956445E+04  0.91653854820E+02 0.  0.
         11    1    3    3    0    0 -0.59185333471E+02  0.11079211445E+04 -0.20030977562E+03  0.11274378795E+04  0.00000000000E+00 0. -1.
        -11    1    3    3    0    0 -0.18489436695E+03  0.14741770938E+04 -0.26773594524E+03  0.15096577649E+04  0.00000000000E+00 0.  1.
         22    1    1    2    0    0  0.24407970043E+03 -0.25820982383E+04  0.80694344573E+02  0.25948637323E+04  0.00000000000E+00 0.  1.
<mgrwt>
<rscale>  0 0.52176008E+04</rscale>
<asrwt>0</asrwt>
<pdfrwt beam="1">  1        2 0.43225467E+00 0.52176008E+04</pdfrwt>
<pdfrwt beam="2">  1       -2 0.37266215E+00 0.52176008E+04</pdfrwt>
<totfact> 0.18226401E-02</totfact>
</mgrwt>
</event>
<event>
 6    1  0.1072514E-005  0.2092781E+04  0.7818608E-02  0.8564430E-01
          2   -1    0    0  501    0  0.00000000000E+00  0.00000000000E+00  0.20879944908E+04  0.20879944908E+04  0.00000000000E+00 0. -1.
         -2   -1    0    0    0  501 -0.00000000000E+00 -0.00000000000E+00 -0.52439458224E+03  0.52439458224E+03  0.00000000000E+00 0.  1.
         23    2    1    2    0    0 -0.27476551251E+03  0.52053678156E+03 -0.29389154591E+03  0.66386934482E+03  0.88857404903E+02 0.  0.
         11    1    3    3    0    0 -0.69303096152E+02  0.64074382683E+02 -0.54639120898E+02  0.10905906283E+03  0.00000000000E+00 0.  1.
        -11    1    3    3    0    0 -0.20546241636E+03  0.45646239888E+03 -0.23925242501E+03  0.55481028199E+03  0.00000000000E+00 0. -1.
         22    1    1    2    0    0  0.27476551251E+03 -0.52053678156E+03  0.18574914545E+04  0.19485197282E+04  0.00000000000E+00 0. -1.
<mgrwt>
<rscale>  0 0.20927809E+04</rscale>
<asrwt>0</asrwt>
<pdfrwt beam="1">  1        2 0.32122992E+00 0.20927809E+04</pdfrwt>
<pdfrwt beam="2">  1       -2 0.80676091E-01 0.20927809E+04</pdfrwt>
<totfact> 0.74625007E+00</totfact>
</mgrwt>
</event>
<event>
 6    1  0.1072514E-005  0.2879146E+04  0.7818608E-02  0.8279109E-01
         -1   -1    0    0    0  501 -0.00000000000E+00  0.00000000000E+00  0.76352579109E+03  0.76352579109E+03  0.00000000000E+00 0.  1.
          1   -1    0    0  501    0  0.00000000000E+00 -0.00000000000E+00 -0.27142109298E+04  0.27142109298E+04  0.00000000000E+00 0. -1.
         23    2    1    2    0    0  0.11461018212E+04  0.69128456789E+03 -0.34090299645E+03  0.13842176061E+04  0.91759411755E+02 0.  0.
         11    1    3    3    0    0  0.65972178807E+03  0.41725960636E+03 -0.15520025992E+03  0.79588035372E+03  0.00000000000E+00 0.  1.
        -11    1    3    3    0    0  0.48638003315E+03  0.27402496153E+03 -0.18570273652E+03  0.58833725238E+03  0.00000000000E+00 0. -1.
         22    1    1    2    0    0 -0.11461018212E+04 -0.69128456789E+03 -0.16097821422E+04  0.20935191148E+04  0.00000000000E+00 0. -1.
<mgrwt>
<rscale>  0 0.28791457E+04</rscale>
<asrwt>0</asrwt>
<pdfrwt beam="1">  1        1 0.41757091E+00 0.28791457E+04</pdfrwt>
<pdfrwt beam="2">  1       -1 0.11746551E+00 0.28791457E+04</pdfrwt>
<totfact> 0.53747513E-01</totfact>
</mgrwt>
</event>
<event>
 6    1  0.1072514E-005  0.8511843E+03  0.7818608E-02  0.9488749E-01
          2   -1    0    0  501    0  0.00000000000E+00  0.00000000000E+00  0.24151987018E+04  0.24151987018E+04  0.00000000000E+00 0.  1.
         -2   -1    0    0    0  501 -0.00000000000E+00 -0.00000000000E+00 -0.74995358566E+02  0.74995358566E+02  0.00000000000E+00 0. -1.
         23    2    1    2    0    0 -0.21253222045E+03 -0.18604648090E+03  0.20956928473E+04  0.21166052217E+04  0.91136799834E+02 0.  0.
         11    1    3    3    0    0 -0.10702143605E+03 -0.14938384277E+03  0.12038490282E+04  0.12177937440E+04  0.00000000000E+00 0. -1.
        -11    1    3    3    0    0 -0.10551078440E+03 -0.36662638135E+02  0.89184381910E+03  0.89881147763E+03  0.00000000000E+00 0.  1.
         22    1    1    2    0    0  0.21253222045E+03  0.18604648090E+03  0.24451049590E+03  0.37358883868E+03  0.00000000000E+00 0. -1.
<mgrwt>
<rscale>  0 0.85118433E+03</rscale>
<asrwt>0</asrwt>
<pdfrwt beam="1">  1        2 0.37156897E+00 0.85118433E+03</pdfrwt>
<pdfrwt beam="2">  1       -2 0.11537749E-01 0.85118433E+03</pdfrwt>
<totfact> 0.21701590E+02</totfact>
</mgrwt>
</event>
<event>
 6    1  0.1072514E-005  0.2265838E+04  0.7818608E-02  0.8491514E-01
          1   -1    0    0  501    0  0.00000000000E+00  0.00000000000E+00  0.73432545049E+03  0.73432545049E+03  0.00000000000E+00 0. -1.
         -1   -1    0    0    0  501 -0.00000000000E+00 -0.00000000000E+00 -0.17478694868E+04  0.17478694868E+04  0.00000000000E+00 0.  1.
         23    2    1    2    0    0 -0.91696061392E+03 -0.60134300165E+03 -0.20400654776E+03  0.11191904918E+04  0.92404070540E+02 0.  0.
         11    1    3    3    0    0 -0.64236173984E+03 -0.40212189868E+03 -0.18097559478E+03  0.77915517845E+03  0.00000000000E+00 0. -1.
        -11    1    3    3    0    0 -0.27459887409E+03 -0.19922110297E+03 -0.23030952985E+02  0.34003531333E+03  0.00000000000E+00 0.  1.
         22    1    1    2    0    0  0.91696061392E+03  0.60134300165E+03 -0.80953748854E+03  0.13630044455E+04  0.00000000000E+00 0. -1.
<mgrwt>
<rscale>  0 0.22658376E+04</rscale>
<asrwt>0</asrwt>
<pdfrwt beam="1">  1        1 0.11297315E+00 0.22658376E+04</pdfrwt>
<pdfrwt beam="2">  1       -1 0.26890300E+00 0.22658376E+04</pdfrwt>
<totfact> 0.12052404E+00</totfact>
</mgrwt>
</event>
<event>
 6    1  0.1072514E-005  0.3646562E+04  0.7818608E-02  0.8079909E-01
          2   -1    0    0  501    0  0.00000000000E+00  0.00000000000E+00  0.31642917197E+04  0.31642917197E+04  0.00000000000E+00 0. -1.
         -2   -1    0    0    0  501 -0.00000000000E+00 -0.00000000000E+00 -0.10505840371E+04  0.10505840371E+04  0.00000000000E+00 0.  1.
         23    2    1    2    0    0 -0.14742209497E+04  0.82481925233E+03  0.18484356931E+04  0.25048981441E+04  0.64389385218E+02 0.  0.
         13    1    3    3    0    0 -0.12356428297E+04  0.67542290310E+03  0.15109023904E+04  0.20653898745E+04  0.00000000000E+00 0.  1.
        -13    1    3    3    0    0 -0.23857812003E+03  0.14939634923E+03  0.33753330278E+03  0.43950826956E+03  0.00000000000E+00 0. -1.
         22    1    1    2    0    0  0.14742209497E+04 -0.82481925233E+03  0.26527198940E+03  0.17099776127E+04  0.00000000000E+00 0.  1.
<mgrwt>
<rscale>  0 0.36465624E+04</rscale>
<asrwt>0</asrwt>
<pdfrwt beam="1">  1        2 0.48681411E+00 0.36465624E+04</pdfrwt>
<pdfrwt beam="2">  1       -2 0.16162831E+00 0.36465624E+04</pdfrwt>
<totfact> 0.27189307E-01</totfact>
</mgrwt>
</event>
<event>
 6    1  0.1072514E-005  0.4254144E+04  0.7818608E-02  0.7955152E-01
         -2   -1    0    0    0  501 -0.00000000000E+00  0.00000000000E+00  0.13189372446E+04  0.13189372446E+04  0.00000000000E+00 0.  1.
          2   -1    0    0  501    0  0.00000000000E+00 -0.00000000000E+00 -0.34303642841E+04  0.34303642841E+04  0.00000000000E+00 0. -1.
         23    2    1    2    0    0  0.17580539552E+04 -0.57108681842E+03  0.11663502864E+03  0.18542791725E+04  0.88620854967E+02 0.  0.
         13    1    3    3    0    0  0.63016994845E+03 -0.24914836439E+03  0.36719249280E+02  0.67862904055E+03  0.00000000000E+00 0. -1.
        -13    1    3    3    0    0  0.11278840068E+04 -0.32193845403E+03  0.79915779359E+02  0.11756501319E+04  0.00000000000E+00 0.  1.
         22    1    1    2    0    0 -0.17580539552E+04  0.57108681842E+03 -0.22280620681E+04  0.28950223562E+04  0.00000000000E+00 0. -1.
<mgrwt>
<rscale>  0 0.42541440E+04</rscale>
<asrwt>0</asrwt>
<pdfrwt beam="1">  1        2 0.52774835E+00 0.42541440E+04</pdfrwt>
<pdfrwt beam="2">  1       -2 0.20291342E+00 0.42541440E+04</pdfrwt>
<totfact> 0.89251473E-02</totfact>
</mgrwt>
</event>
<event>
 6    1  0.1072514E-005  0.2623688E+04  0.7818608E-02  0.8360199E-01
         -1   -1    0    0    0  501 -0.00000000000E+00  0.00000000000E+00  0.17000094362E+04  0.17000094362E+04  0.00000000000E+00 0.  1.
          1   -1    0    0  501    0  0.00000000000E+00 -0.00000000000E+00 -0.10123086863E+04  0.10123086863E+04  0.00000000000E+00 0. -1.
         23    2    1    2    0    0 -0.61263459539E+03  0.10693382087E+03  0.15365493911E+04  0.16600348882E+04  0.89307387242E+02 0.  0.
         13    1    3    3    0    0 -0.23238133953E+03  0.37837752132E+02  0.69975309744E+03  0.73830019628E+03  0.00000000000E+00 0.  1.
        -13    1    3    3    0    0 -0.38025325586E+03  0.69096068739E+02  0.83679629364E+03  0.92173469195E+03  0.00000000000E+00 0. -1.
         22    1    1    2    0    0  0.61263459539E+03 -0.10693382087E+03 -0.84884864119E+03  0.10522832343E+04  0.00000000000E+00 0. -1.
<mgrwt>
<rscale>  0 0.26236877E+04</rscale>
<asrwt>0</asrwt>
<pdfrwt beam="1">  1        1 0.15573980E+00 0.26236877E+04</pdfrwt>
<pdfrwt beam="2">  1       -1 0.26153991E+00 0.26236877E+04</pdfrwt>
<totfact> 0.76268310E-01</totfact>
</mgrwt>
</event>
<event>
 6    1  0.1072514E-005  0.1994232E+04  0.7818608E-02  0.8609322E-01
          1   -1    0    0  501    0  0.00000000000E+00  0.00000000000E+00  0.20622158874E+04  0.20622158874E+04  0.00000000000E+00 0. -1.
         -1   -1    0    0    0  501 -0.00000000000E+00 -0.00000000000E+00 -0.48212249075E+03  0.48212249075E+03  0.00000000000E+00 0.  1.
         23    2    1    2    0    0  0.34099517295E+03  0.39647238662E+03  0.18717166745E+04  0.19455794973E+04  0.92131478202E+02 0.  0.
         13    1    3    3    0    0  0.53912568521E+02  0.11314883228E+03  0.52527232701E+03  0.54001874117E+03  0.00000000000E+00 0. -1.
        -13    1    3    3    0    0  0.28708260442E+03  0.28332355434E+03  0.13464443475E+04  0.14055607561E+04  0.00000000000E+00 0.  1.
         22    1    1    2    0    0 -0.34099517295E+03 -0.39647238662E+03 -0.29162327780E+03  0.59875888092E+03  0.00000000000E+00 0.  1.
<mgrwt>
<rscale>  0 0.19942323E+04</rscale>
<asrwt>0</asrwt>
<pdfrwt beam="1">  1        1 0.31726398E+00 0.19942323E+04</pdfrwt>
<pdfrwt beam="2">  1       -1 0.74172692E-01 0.19942323E+04</pdfrwt>
<totfact> 0.45916365E+00</totfact>
</mgrwt>
</event>
<event>
 6    1  0.1072514E-005  0.2130730E+04  0.7818608E-02  0.8547826E-01
          2   -1    0    0  501    0  0.00000000000E+00  0.00000000000E+00  0.34809383256E+04  0.34809383256E+04  0.00000000000E+00 0. -1.
         -2   -1    0    0    0  501 -0.00000000000E+00 -0.00000000000E+00 -0.32606229810E+03  0.32606229810E+03  0.00000000000E+00 0.  1.
         23    2    1    2    0    0  0.97947705574E+03 -0.40646141013E+03  0.14475397757E+04  0.17971291708E+04  0.98568116162E+02 0.  0.
         13    1    3    3    0    0  0.45805762003E+03 -0.13775286831E+03  0.63635400725E+03  0.79607729433E+03  0.00000000000E+00 0.  1.
        -13    1    3    3    0    0  0.52141943570E+03 -0.26870854182E+03  0.81118576847E+03  0.10010518764E+04  0.00000000000E+00 0. -1.
         22    1    1    2    0    0 -0.97947705574E+03  0.40646141013E+03  0.17073362518E+04  0.20098714529E+04  0.00000000000E+00 0. -1.
<mgrwt>
<rscale>  0 0.21307302E+04</rscale>
<asrwt>0</asrwt>
<pdfrwt beam="1">  1        2 0.53552895E+00 0.21307302E+04</pdfrwt>
<pdfrwt beam="2">  1       -2 0.50163433E-01 0.21307302E+04</pdfrwt>
<totfact> 0.29086540E+00</totfact>
</mgrwt>
</event>
<event>
 6    1  0.1072514E-005  0.2003544E+04  0.7818608E-02  0.8604965E-01
         -2   -1    0    0    0  501 -0.00000000000E+00  0.00000000000E+00  0.13345361072E+04  0.13345361072E+04  0.00000000000E+00 0.  1.
          2   -1    0    0  501    0  0.00000000000E+00 -0.00000000000E+00 -0.75198221556E+03  0.75198221556E+03  0.00000000000E+00 0. -1.
         23    2    1    2    0    0 -0.90352817623E+03 -0.23438207342E+03  0.66471243869E+03  0.11494760887E+04  0.90302440838E+02 0.  0.
         13    1    3    3    0    0 -0.70822199897E+03 -0.21005090460E+03  0.55649311952E+03  0.92486992297E+03  0.00000000000E+00 0.  1.
        -13    1    3    3    0    0 -0.19530617726E+03 -0.24331168819E+02  0.10821931917E+03  0.22460616576E+03  0.00000000000E+00 0. -1.
         22    1    1    2    0    0  0.90352817623E+03  0.23438207342E+03 -0.82158547017E+02  0.93704223407E+03  0.00000000000E+00 0.  1.
<mgrwt>
<rscale>  0 0.20035443E+04</rscale>
<asrwt>0</asrwt>
<pdfrwt beam="1">  1        2 0.11568957E+00 0.20035443E+04</pdfrwt>
<pdfrwt beam="2">  1       -2 0.20531325E+00 0.20035443E+04</pdfrwt>
<totfact> 0.42594534E+00</totfact>
</mgrwt>
</event>
<event>
 6    1  0.1072514E-005  0.2795720E+04  0.7818608E-02  0.8304598E-01
         -2   -1    0    0    0  501 -0.00000000000E+00  0.00000000000E+00  0.54916794558E+03  0.54916794558E+03  0.00000000000E+00 0.  1.
          2   -1    0    0  501    0  0.00000000000E+00 -0.00000000000E+00 -0.35581325503E+04  0.35581325503E+04  0.00000000000E+00 0. -1.
         23    2    1    2    0    0  0.10006196194E+04 -0.41201461543E+03 -0.20921344628E+03  0.11057005533E+04  0.88361650890E+02 0.  0.
         11    1    3    3    0    0  0.44218668122E+03 -0.16685552711E+03 -0.49152925580E+02  0.47516927307E+03  0.00000000000E+00 0. -1.
        -11    1    3    3    0    0  0.55843293821E+03 -0.24515908832E+03 -0.16006052070E+03  0.63053128023E+03  0.00000000000E+00 0.  1.
         22    1    1    2    0    0 -0.10006196194E+04  0.41201461543E+03 -0.27997511585E+04  0.30015999426E+04  0.00000000000E+00 0. -1.
<mgrwt>
<rscale>  0 0.27957198E+04</rscale>
<asrwt>0</asrwt>
<pdfrwt beam="1">  1        2 0.54740502E+00 0.27957198E+04</pdfrwt>
<pdfrwt beam="2">  1       -2 0.84487375E-01 0.27957198E+04</pdfrwt>
<totfact> 0.78649292E-01</totfact>
</mgrwt>
</event>
<event>
 6    1  0.1072514E-005  0.5448091E+04  0.7818608E-02  0.7762873E-01
          2   -1    0    0  501    0  0.00000000000E+00  0.00000000000E+00  0.26825654688E+04  0.26825654688E+04  0.00000000000E+00 0.  1.
         -2   -1    0    0    0  501 -0.00000000000E+00 -0.00000000000E+00 -0.27661667815E+04  0.27661667815E+04  0.00000000000E+00 0. -1.
         23    2    1    2    0    0  0.22106918212E+04  0.11849877085E+04  0.10189286057E+04  0.27088551693E+04  0.91250355303E+02 0.  0.
         13    1    3    3    0    0  0.12861782213E+04  0.73241420755E+03  0.57497496776E+03  0.15878542761E+04  0.00000000000E+00 0.  1.
        -13    1    3    3    0    0  0.92451359985E+03  0.45257350097E+03  0.44395363794E+03  0.11210008933E+04  0.00000000000E+00 0. -1.
         22    1    1    2    0    0 -0.22106918212E+04 -0.11849877085E+04 -0.11025299184E+04  0.27398770809E+04  0.00000000000E+00 0. -1.
<mgrwt>
<rscale>  0 0.54480909E+04</rscale>
<asrwt>0</asrwt>
<pdfrwt beam="1">  1        2 0.41270238E+00 0.54480909E+04</pdfrwt>
<pdfrwt beam="2">  1       -2 0.42556412E+00 0.54480909E+04</pdfrwt>
<totfact> 0.96476536E-03</totfact>
</mgrwt>
</event>
<event>
 6    1  0.1072514E-005  0.5715433E+04  0.7818608E-02  0.7726722E-01
          2   -1    0    0  501    0  0.00000000000E+00  0.00000000000E+00  0.38880829107E+04  0.38880829107E+04  0.00000000000E+00 0. -1.
         -2   -1    0    0    0  501 -0.00000000000E+00 -0.00000000000E+00 -0.21004039816E+04  0.21004039816E+04  0.00000000000E+00 0.  1.
         23    2    1    2    0    0 -0.27266534677E+04  0.84103761047E+03  0.10437709035E+04  0.30396934873E+04  0.91079100551E+02 0.  0.
         11    1    3    3    0    0 -0.11235780882E+04  0.30775299174E+03  0.45270553227E+03  0.12498327581E+04  0.00000000000E+00 0.  1.
        -11    1    3    3    0    0 -0.16030753795E+04  0.53328461872E+03  0.59106537120E+03  0.17898607292E+04  0.00000000000E+00 0. -1.
         22    1    1    2    0    0  0.27266534677E+04 -0.84103761047E+03  0.74390802564E+03  0.29487934050E+04  0.00000000000E+00 0.  1.
<mgrwt>
<rscale>  0 0.57154334E+04</rscale>
<asrwt>0</asrwt>
<pdfrwt beam="1">  1        2 0.59816660E+00 0.57154334E+04</pdfrwt>
<pdfrwt beam="2">  1       -2 0.32313907E+00 0.57154334E+04</pdfrwt>
<totfact> 0.65878782E-03</totfact>
</mgrwt>
</event>
<event>
 6    1  0.1072514E-005  0.2264255E+04  0.7818608E-02  0.8492150E-01
          1   -1    0    0  501    0  0.00000000000E+00  0.00000000000E+00  0.58890550391E+03  0.58890550391E+03  0.00000000000E+00 0. -1.
         -1   -1    0    0    0  501 -0.00000000000E+00 -0.00000000000E+00 -0.21764323634E+04  0.21764323634E+04  0.00000000000E+00 0.  1.
         23    2    1    2    0    0 -0.75995331863E+03  0.16629389689E+03 -0.17966147668E+04  0.19597942871E+04  0.88240130710E+02 0.  0.
         11    1    3    3    0    0 -0.34202149690E+03  0.83768697700E+02 -0.70630969470E+03  0.78922068136E+03  0.00000000000E+00 0.  1.
        -11    1    3    3    0    0 -0.41793182172E+03  0.82525199194E+02 -0.10903050721E+04  0.11705736057E+04  0.00000000000E+00 0. -1.
         22    1    1    2    0    0  0.75995331863E+03 -0.16629389689E+03  0.20908790735E+03  0.80554358022E+03  0.00000000000E+00 0. -1.
<mgrwt>
<rscale>  0 0.22642553E+04</rscale>
<asrwt>0</asrwt>
<pdfrwt beam="1">  1        1 0.90600847E-01 0.22642553E+04</pdfrwt>
<pdfrwt beam="2">  1       -1 0.33483575E+00 0.22642553E+04</pdfrwt>
<totfact> 0.62460166E-01</totfact>
</mgrwt>
</event>
<event>
 6    1  0.1072514E-005  0.3262969E+04  0.7818608E-02  0.8172382E-01
         -1   -1    0    0    0  501 -0.00000000000E+00  0.00000000000E+00  0.19667323331E+04  0.19667323331E+04  0.00000000000E+00 0.  1.
          1   -1    0    0  501    0  0.00000000000E+00 -0.00000000000E+00 -0.13533824502E+04  0.13533824502E+04  0.00000000000E+00 0. -1.
         23    2    1    2    0    0 -0.48582323632E+03 -0.41966775271E+03 -0.12178848871E+04  0.13796081426E+04  0.89049364248E+02 0.  0.
         11    1    3    3    0    0 -0.31772944674E+03 -0.26112923679E+03 -0.68827124558E+03  0.80178412751E+03  0.00000000000E+00 0. -1.
        -11    1    3    3    0    0 -0.16809378958E+03 -0.15853851592E+03 -0.52961364153E+03  0.57782401510E+03  0.00000000000E+00 0.  1.
         22    1    1    2    0    0  0.48582323632E+03  0.41966775271E+03  0.18312347701E+04  0.19405066407E+04  0.00000000000E+00 0.  1.
<mgrwt>
<rscale>  0 0.32629686E+04</rscale>
<asrwt>0</asrwt>
<pdfrwt beam="1">  1        1 0.20821268E+00 0.32629686E+04</pdfrwt>
<pdfrwt beam="2">  1       -1 0.30257421E+00 0.32629686E+04</pdfrwt>
<totfact> 0.21914366E-01</totfact>
</mgrwt>
</event>
<event>
 6    1  0.1072514E-005  0.1185849E+04  0.7818608E-02  0.9125334E-01
         -2   -1    0    0    0  501 -0.00000000000E+00  0.00000000000E+00  0.33922902614E+03  0.33922902614E+03  0.00000000000E+00 0.  1.
          2   -1    0    0  501    0  0.00000000000E+00 -0.00000000000E+00 -0.10363490029E+04  0.10363490029E+04  0.00000000000E+00 0. -1.
         23    2    1    2    0    0  0.36249280834E+03 -0.38986898380E+03 -0.64419269376E+03  0.84060124648E+03  0.90704841413E+02 0.  0.
         13    1    3    3    0    0  0.50506442473E+02 -0.26877972063E+02 -0.40081433595E+02  0.69855904779E+02  0.00000000000E+00 0. -1.
        -13    1    3    3    0    0  0.31198636587E+03 -0.36299101173E+03 -0.60411126017E+03  0.77074534170E+03  0.00000000000E+00 0.  1.
         22    1    1    2    0    0 -0.36249280834E+03  0.38986898380E+03 -0.52927283036E+02  0.53497678259E+03  0.00000000000E+00 0.  1.
<mgrwt>
<rscale>  0 0.11858493E+04</rscale>
<asrwt>0</asrwt>
<pdfrwt beam="1">  1        2 0.15943831E+00 0.11858493E+04</pdfrwt>
<pdfrwt beam="2">  1       -2 0.52189082E-01 0.11858493E+04</pdfrwt>
<totfact> 0.81721798E+01</totfact>
</mgrwt>
</event>
<event>
 6    1  0.1072514E-005  0.3647117E+04  0.7818608E-02  0.8079783E-01
         -2   -1    0    0    0  501 -0.00000000000E+00  0.00000000000E+00  0.11211787403E+04  0.11211787403E+04  0.00000000000E+00 0.  1.
          2   -1    0    0  501    0  0.00000000000E+00 -0.00000000000E+00 -0.29659547189E+04  0.29659547189E+04  0.00000000000E+00 0. -1.
         23    2    1    2    0    0 -0.15725276924E+04  0.91955295191E+03 -0.98207390236E+03  0.20715254003E+04  0.91254367036E+02 0.  0.
         11    1    3    3    0    0 -0.47974043153E+03  0.32246082879E+03 -0.33667950464E+03  0.66894316395E+03  0.00000000000E+00 0.  1.
        -11    1    3    3    0    0 -0.10927872609E+04  0.59709212312E+03 -0.64539439772E+03  0.14025822363E+04  0.00000000000E+00 0. -1.
         22    1    1    2    0    0  0.15725276924E+04 -0.91955295191E+03 -0.86270207616E+03  0.20156080589E+04  0.00000000000E+00 0.  1.
<mgrwt>
<rscale>  0 0.36471169E+04</rscale>
<asrwt>0</asrwt>
<pdfrwt beam="1">  1        2 0.45630072E+00 0.36471169E+04</pdfrwt>
<pdfrwt beam="2">  1       -2 0.17248904E+00 0.36471169E+04</pdfrwt>
<totfact> 0.30364319E-01</totfact>
</mgrwt>
</event>
<event>
 6    1  0.1072514E-005  0.2934228E+04  0.7818608E-02  0.8262766E-01
         -2   -1    0    0    0  501 -0.00000000000E+00  0.00000000000E+00  0.13240161932E+04  0.13240161932E+04  0.00000000000E+00 0. -1.
          2   -1    0    0  501    0  0.00000000000E+00 -0.00000000000E+00 -0.16256778294E+04  0.16256778294E+04  0.00000000000E+00 0.  1.
         23    2    1    2    0    0  0.95045776253E+03  0.74700985491E+03  0.68216727618E+03  0.13910686633E+04  0.91247748667E+02 0.  0.
         13    1    3    3    0    0  0.42647862617E+03  0.39004858473E+03  0.30842106367E+03  0.65509195503E+03  0.00000000000E+00 0.  1.
        -13    1    3    3    0    0  0.52397913636E+03  0.35696127018E+03  0.37374621251E+03  0.73597670827E+03  0.00000000000E+00 0. -1.
         22    1    1    2    0    0 -0.95045776253E+03 -0.74700985491E+03 -0.98382891240E+03  0.15586253593E+04  0.00000000000E+00 0.  1.
<mgrwt>
<rscale>  0 0.29342282E+04</rscale>
<asrwt>0</asrwt>
<pdfrwt beam="1">  1        2 0.25010428E+00 0.29342282E+04</pdfrwt>
<pdfrwt beam="2">  1       -2 0.20369480E+00 0.29342282E+04</pdfrwt>
<totfact> 0.11682234E+00</totfact>
</mgrwt>
</event>
<event>
 6    1  0.1072514E-005  0.1323156E+04  0.7818608E-02  0.9011401E-01
         -2   -1    0    0    0  501 -0.00000000000E+00  0.00000000000E+00  0.10687626895E+04  0.10687626895E+04  0.00000000000E+00 0.  1.
          2   -1    0    0  501    0  0.00000000000E+00 -0.00000000000E+00 -0.40952532393E+03  0.40952532393E+03  0.00000000000E+00 0. -1.
         23    2    1    2    0    0  0.85099265143E+02  0.26034336169E+03  0.10000428956E+04  0.10410592860E+04  0.93263567861E+02 0.  0.
         11    1    3    3    0    0  0.39168148513E+02  0.97529657620E+02  0.55676770683E+03  0.56660079186E+03  0.00000000000E+00 0.  1.
        -11    1    3    3    0    0  0.45931116630E+02  0.16281370407E+03  0.44327518873E+03  0.47445849412E+03  0.00000000000E+00 0. -1.
         22    1    1    2    0    0 -0.85099265143E+02 -0.26034336169E+03 -0.34080552994E+03  0.43722872748E+03  0.00000000000E+00 0. -1.
<mgrwt>
<rscale>  0 0.13231559E+04</rscale>
<asrwt>0</asrwt>
<pdfrwt beam="1">  1        2 0.63003896E-01 0.13231559E+04</pdfrwt>
<pdfrwt beam="2">  1       -2 0.16442503E+00 0.13231559E+04</pdfrwt>
<totfact> 0.17691800E+01</totfact>
</mgrwt>
</event>
<event>
 6    1  0.1072514E-005  0.1155930E+04  0.7818608E-02  0.9152330E-01
          2   -1    0    0  501    0  0.00000000000E+00  0.00000000000E+00  0.10380266958E+04  0.10380266958E+04  0.00000000000E+00 0. -1.
         -2   -1    0    0    0  501 -0.00000000000E+00 -0.00000000000E+00 -0.32180642948E+03  0.32180642948E+03  0.00000000000E+00 0.  1.
         23    2    1    2    0    0  0.47222990744E+03  0.26168085160E+03  0.13012120741E+03  0.56297048941E+03  0.92337910683E+02 0.  0.
         11    1    3    3    0    0  0.33602675646E+03  0.18742918355E+03  0.48879618174E+02  0.38785679958E+03  0.00000000000E+00 0.  1.
        -11    1    3    3    0    0  0.13620315098E+03  0.74251668049E+02  0.81241589232E+02  0.17511368983E+03  0.00000000000E+00 0. -1.
         22    1    1    2    0    0 -0.47222990744E+03 -0.26168085160E+03  0.58609905887E+03  0.79686263584E+03  0.00000000000E+00 0.  1.
<mgrwt>
<rscale>  0 0.11559302E+04</rscale>
<asrwt>0</asrwt>
<pdfrwt beam="1">  1        2 0.15969641E+00 0.11559302E+04</pdfrwt>
<pdfrwt beam="2">  1       -2 0.49508682E-01 0.11559302E+04</pdfrwt>
<totfact> 0.90987541E+01</totfact>
</mgrwt>
</event>
<event>
 6    1  0.1072514E-005  0.2280856E+04  0.7818608E-02  0.8485508E-01
         -2   -1    0    0    0  501 -0.00000000000E+00  0.00000000000E+00  0.20612661385E+04  0.20612661385E+04  0.00000000000E+00 0.  1.
          2   -1    0    0  501    0  0.00000000000E+00 -0.00000000000E+00 -0.63095995280E+03  0.63095995280E+03  0.00000000000E+00 0. -1.
         23    2    1    2    0    0 -0.92675315231E+03 -0.13295540245E+03 -0.48395361983E+02  0.94205272517E+03  0.92588776819E+02 0.  0.
         11    1    3    3    0    0 -0.82215226745E+03 -0.12944302950E+03 -0.69887219189E+02  0.83520899909E+03  0.00000000000E+00 0. -1.
        -11    1    3    3    0    0 -0.10460088486E+03 -0.35123729501E+01  0.21491857205E+02  0.10684372608E+03  0.00000000000E+00 0.  1.
         22    1    1    2    0    0  0.92675315231E+03  0.13295540245E+03  0.14787015477E+04  0.17501733661E+04  0.00000000000E+00 0.  1.
<mgrwt>
<rscale>  0 0.22808563E+04</rscale>
<asrwt>0</asrwt>
<pdfrwt beam="1">  1        2 0.97070763E-01 0.22808563E+04</pdfrwt>
<pdfrwt beam="2">  1       -2 0.31711786E+00 0.22808563E+04</pdfrwt>
<totfact> 0.10572444E+00</totfact>
</mgrwt>
</event>
<event>
 6    1  0.1072514E-005  0.3502746E+04  0.7818608E-02  0.8113139E-01
          2   -1    0    0  501    0  0.00000000000E+00  0.00000000000E+00  0.14611501730E+04  0.14611501730E+04  0.00000000000E+00 0. -1.
         -2   -1    0    0    0  501 -0.00000000000E+00 -0.00000000000E+00 -0.20992420797E+04  0.20992420797E+04  0.00000000000E+00 0.  1.
         23    2    1    2    0    0  0.17418996636E+04 -0.20378514426E+02 -0.49076216870E+03  0.18121543474E+04  0.91794068114E+02 0.  0.
         13    1    3    3    0    0  0.99662054390E+03  0.29769825816E+02 -0.29990395897E+03  0.10411921704E+04  0.00000000000E+00 0.  1.
        -13    1    3    3    0    0  0.74527911966E+03 -0.50148340242E+02 -0.19085820973E+03  0.77096217706E+03  0.00000000000E+00 0. -1.
         22    1    1    2    0    0 -0.17418996636E+04  0.20378514426E+02 -0.14732973791E+03  0.17482379053E+04  0.00000000000E+00 0. -1.
<mgrwt>
<rscale>  0 0.35027463E+04</rscale>
<asrwt>0</asrwt>
<pdfrwt beam="1">  1        2 0.22479233E+00 0.35027463E+04</pdfrwt>
<pdfrwt beam="2">  1       -2 0.32296032E+00 0.35027463E+04</pdfrwt>
<totfact> 0.25177502E-01</totfact>
</mgrwt>
</event>
<event>
 6    1  0.1072514E-005  0.5002678E+04  0.7818608E-02  0.7828094E-01
          1   -1    0    0  501    0  0.00000000000E+00  0.00000000000E+00  0.33358434802E+04  0.33358434802E+04  0.00000000000E+00 0. -1.
         -1   -1    0    0    0  501 -0.00000000000E+00 -0.00000000000E+00 -0.18755968797E+04  0.18755968797E+04  0.00000000000E+00 0.  1.
         23    2    1    2    0    0  0.17434908829E+04 -0.11403463520E+03  0.25938060172E+04  0.31287206696E+04  0.91098937250E+02 0.  0.
         13    1    3    3    0    0  0.19424324146E+03 -0.38192951561E+02  0.31844421852E+03  0.37496114294E+03  0.00000000000E+00 0. -1.
        -13    1    3    3    0    0  0.15492476415E+04 -0.75841683642E+02  0.22753617987E+04  0.27537595266E+04  0.00000000000E+00 0.  1.
         22    1    1    2    0    0 -0.17434908829E+04  0.11403463520E+03 -0.11335594167E+04  0.20827196902E+04  0.00000000000E+00 0.  1.
<mgrwt>
<rscale>  0 0.50026783E+04</rscale>
<asrwt>0</asrwt>
<pdfrwt beam="1">  1        1 0.51320669E+00 0.50026783E+04</pdfrwt>
<pdfrwt beam="2">  1       -1 0.28855337E+00 0.50026783E+04</pdfrwt>
<totfact> 0.94747834E-03</totfact>
</mgrwt>
</event>
<event>
 6    1  0.1072514E-005  0.3492763E+04  0.7818608E-02  0.8115507E-01
         -2   -1    0    0    0  501 -0.00000000000E+00  0.00000000000E+00  0.15645912469E+04  0.15645912469E+04  0.00000000000E+00 0.  1.
          2   -1    0    0  501    0  0.00000000000E+00 -0.00000000000E+00 -0.19492943195E+04  0.19492943195E+04  0.00000000000E+00 0. -1.
         23    2    1    2    0    0 -0.12861320744E+04 -0.37910662510E+03 -0.13163352857E+04  0.18811589736E+04  0.90349065455E+02 0.  0.
         13    1    3    3    0    0 -0.11858313622E+04 -0.32539244953E+03 -0.11910924500E+04  0.17119513691E+04  0.00000000000E+00 0. -1.
        -13    1    3    3    0    0 -0.10030071226E+03 -0.53714175570E+02 -0.12524283573E+03  0.16920760456E+03  0.00000000000E+00 0.  1.
         22    1    1    2    0    0  0.12861320744E+04  0.37910662510E+03  0.93163221307E+03  0.16327265927E+04  0.00000000000E+00 0.  1.
<mgrwt>
<rscale>  0 0.34927633E+04</rscale>
<asrwt>0</asrwt>
<pdfrwt beam="1">  1        2 0.29989143E+00 0.34927633E+04</pdfrwt>
<pdfrwt beam="2">  1       -2 0.24070635E+00 0.34927633E+04</pdfrwt>
<totfact> 0.42989305E-01</totfact>
</mgrwt>
</event>
<event>
 6    1  0.1072514E-005  0.5803798E+04  0.7818608E-02  0.7715216E-01
         -2   -1    0    0    0  501 -0.00000000000E+00  0.00000000000E+00  0.18289874136E+04  0.18289874136E+04  0.00000000000E+00 0.  1.
          2   -1    0    0  501    0  0.00000000000E+00 -0.00000000000E+00 -0.46041966116E+04  0.46041966116E+04  0.00000000000E+00 0. -1.
         23    2    1    2    0    0  0.20800028450E+04  0.19282286696E+04 -0.20645546413E+04  0.35092299325E+04  0.88494153688E+02 0.  0.
         11    1    3    3    0    0  0.48079567322E+03  0.40599376651E+03 -0.48586646745E+03  0.79502304496E+03  0.00000000000E+00 0. -1.
        -11    1    3    3    0    0  0.15992071718E+04  0.15222349030E+04 -0.15786881738E+04  0.27142068876E+04  0.00000000000E+00 0.  1.
         22    1    1    2    0    0 -0.20800028450E+04 -0.19282286696E+04 -0.71065455678E+03  0.29239540927E+04  0.00000000000E+00 0.  1.
<mgrwt>
<rscale>  0 0.58037979E+04</rscale>
<asrwt>0</asrwt>
<pdfrwt beam="1">  1        2 0.70833794E+00 0.58037979E+04</pdfrwt>
<pdfrwt beam="2">  1       -2 0.28138268E+00 0.58037979E+04</pdfrwt>
<totfact> 0.26954342E-03</totfact>
</mgrwt>
</event>
<event>
 6    1  0.1072514E-005  0.2073356E+04  0.7818608E-02  0.8573072E-01
          2   -1    0    0  501    0  0.00000000000E+00  0.00000000000E+00  0.12266313124E+04  0.12266313124E+04  0.00000000000E+00 0. -1.
         -2   -1    0    0    0  501 -0.00000000000E+00 -0.00000000000E+00 -0.87614057267E+03  0.87614057267E+03  0.00000000000E+00 0.  1.
         23    2    1    2    0    0 -0.66695628544E+03  0.74699635259E+03 -0.87585894339E+02  0.10097277987E+04  0.95103633363E+02 0.  0.
         11    1    3    3    0    0 -0.14743359019E+03  0.15497458379E+03 -0.57534871014E+02  0.22150405531E+03  0.00000000000E+00 0. -1.
        -11    1    3    3    0    0 -0.51952269526E+03  0.59202176880E+03 -0.30051023325E+02  0.78822374338E+03  0.00000000000E+00 0.  1.
         22    1    1    2    0    0  0.66695628544E+03 -0.74699635259E+03  0.43807663408E+03  0.10930440864E+04  0.00000000000E+00 0. -1.
<mgrwt>
<rscale>  0 0.20733562E+04</rscale>
<asrwt>0</asrwt>
<pdfrwt beam="1">  1        2 0.18871251E+00 0.20733562E+04</pdfrwt>
<pdfrwt beam="2">  1       -2 0.13479086E+00 0.20733562E+04</pdfrwt>
<totfact> 0.66806891E+00</totfact>
</mgrwt>
</event>
<event>
 6    1  0.1072514E-005  0.2614277E+04  0.7818608E-02  0.8363368E-01
         -2   -1    0    0    0  501 -0.00000000000E+00  0.00000000000E+00  0.59025405584E+03  0.59025405584E+03  0.00000000000E+00 0.  1.
          2   -1    0    0  501    0  0.00000000000E+00 -0.00000000000E+00 -0.28947035328E+04  0.28947035328E+04  0.00000000000E+00 0. -1.
         23    2    1    2    0    0  0.63822969427E+03 -0.76755457918E+03 -0.30378103325E+02  0.10014363411E+04  0.73991495660E+02 0.  0.
         11    1    3    3    0    0  0.16744995482E+03 -0.15555135713E+03  0.32853746590E+01  0.22857494561E+03  0.00000000000E+00 0.  1.
        -11    1    3    3    0    0  0.47077973945E+03 -0.61200322205E+03 -0.33663477984E+02  0.77286139548E+03  0.00000000000E+00 0. -1.
         22    1    1    2    0    0 -0.63822969427E+03  0.76755457918E+03 -0.22740713736E+04  0.24835212475E+04  0.00000000000E+00 0. -1.
<mgrwt>
<rscale>  0 0.26142766E+04</rscale>
<asrwt>0</asrwt>
<pdfrwt beam="1">  1        2 0.44533901E+00 0.26142766E+04</pdfrwt>
<pdfrwt beam="2">  1       -2 0.90808315E-01 0.26142766E+04</pdfrwt>
<totfact> 0.18510179E+00</totfact>
</mgrwt>
</event>
<event>
 6    1  0.1072514E-005  0.8145743E+03  0.7818608E-02  0.9539158E-01
         -2   -1    0    0    0  501 -0.00000000000E+00  0.00000000000E+00  0.12726133358E+03  0.12726133358E+03  0.00000000000E+00 0.  1.
          2   -1    0    0  501    0  0.00000000000E+00 -0.00000000000E+00 -0.13034817016E+04  0.13034817016E+04  0.00000000000E+00 0. -1.
         23    2    1    2    0    0  0.33675107159E+03  0.20923088815E+03 -0.70729721131E+03  0.81668458872E+03  0.97598788679E+02 0.  0.
         13    1    3    3    0    0  0.24740241539E+03  0.17490875705E+03 -0.60477773771E+03  0.67642970105E+03  0.00000000000E+00 0. -1.
        -13    1    3    3    0    0  0.89348656197E+02  0.34322131104E+02 -0.10251947360E+03  0.14025488767E+03  0.00000000000E+00 0.  1.
         22    1    1    2    0    0 -0.33675107159E+03 -0.20923088815E+03 -0.46892315675E+03  0.61405844649E+03  0.00000000000E+00 0. -1.
<mgrwt>
<rscale>  0 0.81457429E+03</rscale>
<asrwt>0</asrwt>
<pdfrwt beam="1">  1        2 0.20053563E+00 0.81457429E+03</pdfrwt>
<pdfrwt beam="2">  1       -2 0.19578668E-01 0.81457429E+03</pdfrwt>
<totfact> 0.36682167E+02</totfact>
</mgrwt>
</event>
<event>
 6    1  0.1072514E-005  0.1865876E+04  0.7818608E-02  0.8672031E-01
          2   -1    0    0  501    0  0.00000000000E+00  0.00000000000E+00  0.21113820103E+04  0.21113820103E+04  0.00000000000E+00 0. -1.
         -2   -1    0    0    0  501 -0.00000000000E+00 -0.00000000000E+00 -0.41222908180E+03  0.41222908180E+03  0.00000000000E+00 0.  1.
         23    2    1    2    0    0  0.71547662265E+02 -0.92753880408E+03  0.81685414452E+03  0.12414650609E+04  0.92398609400E+02 0.  0.
         11    1    3    3    0    0  0.14397927486E+02 -0.55626974041E+03  0.44030905665E+03  0.70958818323E+03  0.00000000000E+00 0.  1.
        -11    1    3    3    0    0  0.57149734779E+02 -0.37126906367E+03  0.37654508787E+03  0.53187687769E+03  0.00000000000E+00 0. -1.
         22    1    1    2    0    0 -0.71547662265E+02  0.92753880408E+03  0.88229878394E+03  0.12821460311E+04  0.00000000000E+00 0.  1.
<mgrwt>
<rscale>  0 0.18658757E+04</rscale>
<asrwt>0</asrwt>
<pdfrwt beam="1">  1        2 0.32482800E+00 0.18658757E+04</pdfrwt>
<pdfrwt beam="2">  1       -2 0.63419860E-01 0.18658757E+04</pdfrwt>
<totfact> 0.12516375E+01</totfact>
</mgrwt>
</event>
<event>
 6    1  0.1072514E-005  0.2510471E+04  0.7818608E-02  0.8399265E-01
         -1   -1    0    0    0  501 -0.00000000000E+00  0.00000000000E+00  0.82972719102E+03  0.82972719102E+03  0.00000000000E+00 0.  1.
          1   -1    0    0  501    0  0.00000000000E+00 -0.00000000000E+00 -0.18989566809E+04  0.18989566809E+04  0.00000000000E+00 0. -1.
         23    2    1    2    0    0 -0.52693573565E+03 -0.10859289176E+04 -0.16744524357E+03  0.12219928915E+04  0.91246006116E+02 0.  0.
         13    1    3    3    0    0 -0.41170415588E+03 -0.79933111471E+03 -0.15833693917E+03  0.91296283014E+03  0.00000000000E+00 0.  1.
        -13    1    3    3    0    0 -0.11523157977E+03 -0.28659780290E+03 -0.91083043956E+01  0.30903006134E+03  0.00000000000E+00 0. -1.
         22    1    1    2    0    0  0.52693573565E+03  0.10859289176E+04 -0.90178424629E+03  0.15066909804E+04  0.00000000000E+00 0. -1.
<mgrwt>
<rscale>  0 0.25104709E+04</rscale>
<asrwt>0</asrwt>
<pdfrwt beam="1">  1        1 0.29214718E+00 0.25104709E+04</pdfrwt>
<pdfrwt beam="2">  1       -1 0.12765034E+00 0.25104709E+04</pdfrwt>
<totfact> 0.16446094E+00</totfact>
</mgrwt>
</event>
<event>
 6    1  0.1072514E-005  0.4227481E+03  0.7818608E-02  0.1036176E+00
          1   -1    0    0  501    0  0.00000000000E+00  0.00000000000E+00  0.19970519951E+03  0.19970519951E+03  0.00000000000E+00 0. -1.
         -1   -1    0    0    0  501 -0.00000000000E+00 -0.00000000000E+00 -0.22372472147E+03  0.22372472147E+03  0.00000000000E+00 0.  1.
         23    2    1    2    0    0 -0.25084533610E+02 -0.19245260925E+03 -0.67394259647E+02  0.22456160148E+03  0.90656968802E+02 0.  0.
         13    1    3    3    0    0 -0.45068428568E+02 -0.12532385127E+03 -0.91973444316E+01  0.13349839735E+03  0.00000000000E+00 0. -1.
        -13    1    3    3    0    0  0.19983894959E+02 -0.67128757981E+02 -0.58196915215E+02  0.91063204130E+02  0.00000000000E+00 0.  1.
         22    1    1    2    0    0  0.25084533610E+02  0.19245260925E+03  0.43374737685E+02  0.19886831950E+03  0.00000000000E+00 0. -1.
<mgrwt>
<rscale>  0 0.42274811E+03</rscale>
<asrwt>0</asrwt>
<pdfrwt beam="1">  1        1 0.30723877E-01 0.42274811E+03</pdfrwt>
<pdfrwt beam="2">  1       -1 0.34419188E-01 0.42274811E+03</pdfrwt>
<totfact> 0.11890984E+03</totfact>
</mgrwt>
</event>
<event>
 6    1  0.1072514E-005  0.1976590E+04  0.7818608E-02  0.8617644E-01
         -2   -1    0    0    0  501 -0.00000000000E+00  0.00000000000E+00  0.47912689536E+03  0.47912689536E+03  0.00000000000E+00 0.  1.
          2   -1    0    0  501    0  0.00000000000E+00 -0.00000000000E+00 -0.20385568730E+04  0.20385568730E+04  0.00000000000E+00 0. -1.
         23    2    1    2    0    0  0.80671531843E+01  0.23361162624E+03 -0.20017290432E+04  0.20174159059E+04  0.91696803680E+02 0.  0.
         13    1    3    3    0    0  0.16764594261E+02  0.12067599364E+03 -0.13868149676E+04  0.13921564213E+04  0.00000000000E+00 0. -1.
        -13    1    3    3    0    0 -0.86974410770E+01  0.11293563260E+03 -0.61491407564E+03  0.62525948454E+03  0.00000000000E+00 0.  1.
         22    1    1    2    0    0 -0.80671531843E+01 -0.23361162624E+03  0.44229906557E+03  0.50026786253E+03  0.00000000000E+00 0.  1.
<mgrwt>
<rscale>  0 0.19765904E+04</rscale>
<asrwt>0</asrwt>
<pdfrwt beam="1">  1        2 0.31362414E+00 0.19765904E+04</pdfrwt>
<pdfrwt beam="2">  1       -2 0.73711828E-01 0.19765904E+04</pdfrwt>
<totfact> 0.98205176E+00</totfact>
</mgrwt>
</event>
<event>
 6    1  0.1494702E-005  0.4278153E+04  0.7818608E-02  0.7950670E-01
         -1   -1    0    0    0  501 -0.00000000000E+00  0.00000000000E+00  0.18887217567E+04  0.18887217567E+04  0.00000000000E+00 0.  1.
          1   -1    0    0  501    0  0.00000000000E+00 -0.00000000000E+00 -0.24226167051E+04  0.24226167051E+04  0.00000000000E+00 0. -1.
         23    2    1    2    0    0 -0.12316252677E+04 -0.13068575544E+04 -0.14366499889E+04  0.23014269884E+04  0.88461995752E+02 0.  0.
         11    1    3    3    0    0 -0.55712352654E+03 -0.61700077562E+03 -0.61334254567E+03  0.10330855043E+04  0.00000000000E+00 0. -1.
        -11    1    3    3    0    0 -0.67450174116E+03 -0.68985677876E+03 -0.82330744328E+03  0.12683414841E+04  0.00000000000E+00 0.  1.
         22    1    1    2    0    0  0.12316252677E+04  0.13068575544E+04  0.90275504063E+03  0.20099114734E+04  0.00000000000E+00 0.  1.
<mgrwt>
<rscale>  0 0.42781533E+04</rscale>
<asrwt>0</asrwt>
<pdfrwt beam="1">  1        1 0.37271026E+00 0.42781533E+04</pdfrwt>
<pdfrwt beam="2">  1       -1 0.29057258E+00 0.42781533E+04</pdfrwt>
<totfact> 0.44578659E-02</totfact>
</mgrwt>
</event>
<event>
 6    1  0.1072514E-005  0.4903174E+04  0.7818608E-02  0.7843620E-01
         -1   -1    0    0    0  501 -0.00000000000E+00  0.00000000000E+00  0.14974491456E+04  0.14974491456E+04  0.00000000000E+00 0.  1.
          1   -1    0    0  501    0  0.00000000000E+00 -0.00000000000E+00 -0.40136785002E+04  0.40136785002E+04  0.00000000000E+00 0. -1.
         23    2    1    2    0    0  0.57517476879E+03  0.84172604919E+03  0.12464264222E+04  0.16128065647E+04  0.90760302685E+02 0.  0.
         13    1    3    3    0    0  0.22174534808E+03  0.32439278892E+03  0.55115855033E+03  0.67688804725E+03  0.00000000000E+00 0. -1.
        -13    1    3    3    0    0  0.35342942071E+03  0.51733326027E+03  0.69526787185E+03  0.93591851741E+03  0.00000000000E+00 0.  1.
         22    1    1    2    0    0 -0.57517476879E+03 -0.84172604919E+03 -0.37626557769E+04  0.38983210811E+04  0.00000000000E+00 0. -1.
<mgrwt>
<rscale>  0 0.49031743E+04</rscale>
<asrwt>0</asrwt>
<pdfrwt beam="1">  1        1 0.61748899E+00 0.49031743E+04</pdfrwt>
<pdfrwt beam="2">  1       -1 0.23037679E+00 0.49031743E+04</pdfrwt>
<totfact> 0.63491185E-03</totfact>
</mgrwt>
</event>
<event>
 6    1  0.1072514E-005  0.4096171E+03  0.7818608E-02  0.1040500E+00
          1   -1    0    0  501    0  0.00000000000E+00  0.00000000000E+00  0.70810353320E+03  0.70810353320E+03  0.00000000000E+00 0. -1.
         -1   -1    0    0    0  501 -0.00000000000E+00 -0.00000000000E+00 -0.59237863027E+02  0.59237863027E+02  0.00000000000E+00 0.  1.
         23    2    1    2    0    0  0.17126424874E+03 -0.86336989403E+02  0.28260382683E+03  0.35390064289E+03  0.92710428017E+02 0.  0.
         11    1    3    3    0    0  0.76732799268E+02 -0.88373342312E+02  0.13571338814E+03  0.17920907855E+03  0.00000000000E+00 0. -1.
        -11    1    3    3    0    0  0.94531449467E+02  0.20363529089E+01  0.14689043869E+03  0.17469156434E+03  0.00000000000E+00 0.  1.
         22    1    1    2    0    0 -0.17126424874E+03  0.86336989403E+02  0.36626184334E+03  0.41344075334E+03  0.00000000000E+00 0. -1.
<mgrwt>
<rscale>  0 0.40961709E+03</rscale>
<asrwt>0</asrwt>
<pdfrwt beam="1">  1        1 0.10893900E+00 0.40961709E+03</pdfrwt>
<pdfrwt beam="2">  1       -1 0.91135179E-02 0.40961709E+03</pdfrwt>
<totfact> 0.19570787E+03</totfact>
</mgrwt>
</event>
<event>
 6    1  0.1072514E-005  0.1543596E+04  0.7818608E-02  0.8855969E-01
          2   -1    0    0  501    0  0.00000000000E+00  0.00000000000E+00  0.14869478447E+04  0.14869478447E+04  0.00000000000E+00 0.  1.
         -2   -1    0    0    0  501 -0.00000000000E+00 -0.00000000000E+00 -0.40060033836E+03  0.40060033836E+03  0.00000000000E+00 0. -1.
         23    2    1    2    0    0  0.44424286589E+03  0.15900872168E+03  0.12877995097E+04  0.13745000302E+04  0.90483469858E+02 0.  0.
         11    1    3    3    0    0  0.17973227205E+03  0.50961456396E+02  0.63494002865E+03  0.66185315565E+03  0.00000000000E+00 0. -1.
        -11    1    3    3    0    0  0.26451059384E+03  0.10804726528E+03  0.65285948104E+03  0.71264687453E+03  0.00000000000E+00 0.  1.
         22    1    1    2    0    0 -0.44424286589E+03 -0.15900872168E+03 -0.20145200340E+03  0.51304815285E+03  0.00000000000E+00 0. -1.
<mgrwt>
<rscale>  0 0.15435956E+04</rscale>
<asrwt>0</asrwt>
<pdfrwt beam="1">  1        2 0.22876120E+00 0.15435956E+04</pdfrwt>
<pdfrwt beam="2">  1       -2 0.61630822E-01 0.15435956E+04</pdfrwt>
<totfact> 0.30418116E+01</totfact>
</mgrwt>
</event>
<event>
 6    1  0.1072514E-005  0.1467305E+04  0.7818608E-02  0.8906491E-01
         -2   -1    0    0    0  501 -0.00000000000E+00  0.00000000000E+00  0.63898785128E+03  0.63898785128E+03  0.00000000000E+00 0.  1.
          2   -1    0    0  501    0  0.00000000000E+00 -0.00000000000E+00 -0.84234103430E+03  0.84234103430E+03  0.00000000000E+00 0. -1.
         23    2    1    2    0    0 -0.21536174173E+03  0.35522822016E+03  0.50546884107E+03  0.65974722193E+03  0.84852102901E+02 0.  0.
         11    1    3    3    0    0 -0.13673809382E+03  0.15484485842E+03  0.28080997320E+03  0.34860934802E+03  0.00000000000E+00 0. -1.
        -11    1    3    3    0    0 -0.78623647911E+02  0.20038336174E+03  0.22465886787E+03  0.31113787391E+03  0.00000000000E+00 0.  1.
         22    1    1    2    0    0  0.21536174173E+03 -0.35522822016E+03 -0.70882202409E+03  0.82158166364E+03  0.00000000000E+00 0. -1.
<mgrwt>
<rscale>  0 0.14673046E+04</rscale>
<asrwt>0</asrwt>
<pdfrwt beam="1">  1        2 0.12959093E+00 0.14673046E+04</pdfrwt>
<pdfrwt beam="2">  1       -2 0.98305823E-01 0.14673046E+04</pdfrwt>
<totfact> 0.26773414E+01</totfact>
</mgrwt>
</event>
<event>
 6    1  0.1072514E-005  0.6866060E+04  0.7818608E-02  0.7591409E-01
          2   -1    0    0  501    0  0.00000000000E+00  0.00000000000E+00  0.31332641940E+04  0.31332641940E+04  0.00000000000E+00 0. -1.
         -2   -1    0    0    0  501 -0.00000000000E+00 -0.00000000000E+00 -0.37614748504E+04  0.37614748504E+04  0.00000000000E+00 0.  1.
         23    2    1    2    0    0 -0.32354033665E+03  0.19886498144E+04  0.24762923013E+04  0.31937466034E+04  0.92668073920E+02 0.  0.
         13    1    3    3    0    0 -0.20505974764E+03  0.14420234606E+04  0.18353624845E+04  0.23430827152E+04  0.00000000000E+00 0. -1.
        -13    1    3    3    0    0 -0.11848058901E+03  0.54662635380E+03  0.64092981678E+03  0.85066388819E+03  0.00000000000E+00 0.  1.
         22    1    1    2    0    0  0.32354033665E+03 -0.19886498144E+04 -0.31045029577E+04  0.37009924409E+04  0.00000000000E+00 0.  1.
<mgrwt>
<rscale>  0 0.68660598E+04</rscale>
<asrwt>0</asrwt>
<pdfrwt beam="1">  1        2 0.48204065E+00 0.68660598E+04</pdfrwt>
<pdfrwt beam="2">  1       -2 0.57868844E+00 0.68660598E+04</pdfrwt>
<totfact> 0.57697740E-04</totfact>
</mgrwt>
</event>
<event>
 6    1  0.1072514E-005  0.8400001E+03  0.7818608E-02  0.9503858E-01
         -2   -1    0    0    0  501 -0.00000000000E+00  0.00000000000E+00  0.10926379962E+03  0.10926379962E+03  0.00000000000E+00 0.  1.
          2   -1    0    0  501    0  0.00000000000E+00 -0.00000000000E+00 -0.16144417058E+04  0.16144417058E+04  0.00000000000E+00 0. -1.
         23    2    1    2    0    0 -0.32790395171E+03 -0.23208986458E+03 -0.54316275707E+03  0.68117979642E+03  0.87140275405E+02 0.  0.
         11    1    3    3    0    0 -0.31275908484E+03 -0.19461497880E+03 -0.46540799020E+03  0.59354682416E+03  0.00000000000E+00 0.  1.
        -11    1    3    3    0    0 -0.15144866863E+02 -0.37474885781E+02 -0.77754766871E+02  0.87632972264E+02  0.00000000000E+00 0. -1.
         22    1    1    2    0    0  0.32790395171E+03  0.23208986458E+03 -0.96201514912E+03  0.10425257090E+04  0.00000000000E+00 0. -1.
<mgrwt>
<rscale>  0 0.84000008E+03</rscale>
<asrwt>0</asrwt>
<pdfrwt beam="1">  1        2 0.24837565E+00 0.84000008E+03</pdfrwt>
<pdfrwt beam="2">  1       -2 0.16809815E-01 0.84000008E+03</pdfrwt>
<totfact> 0.31873071E+02</totfact>
</mgrwt>
</event>
<event>
 6    1  0.1072514E-005  0.4578855E+04  0.7818608E-02  0.7896975E-01
         -2   -1    0    0    0  501 -0.00000000000E+00  0.00000000000E+00  0.23264531630E+04  0.23264531630E+04  0.00000000000E+00 0. -1.
          2   -1    0    0  501    0  0.00000000000E+00 -0.00000000000E+00 -0.22529915033E+04  0.22529915033E+04  0.00000000000E+00 0.  1.
         23    2    1    2    0    0  0.50324189648E+03  0.16262010774E+04  0.15663970719E+04  0.23152365277E+04  0.94541218602E+02 0.  0.
         13    1    3    3    0    0  0.23015739525E+03  0.60072657917E+03  0.56726508069E+03  0.85769139047E+03  0.00000000000E+00 0. -1.
        -13    1    3    3    0    0  0.27308450123E+03  0.10254744982E+04  0.99913199117E+03  0.14575451372E+04  0.00000000000E+00 0.  1.
         22    1    1    2    0    0 -0.50324189648E+03 -0.16262010774E+04 -0.14929354121E+04  0.22642081387E+04  0.00000000000E+00 0.  1.
<mgrwt>
<rscale>  0 0.45788554E+04</rscale>
<asrwt>0</asrwt>
<pdfrwt beam="1">  1        2 0.34661408E+00 0.45788554E+04</pdfrwt>
<pdfrwt beam="2">  1       -2 0.35791587E+00 0.45788554E+04</pdfrwt>
<totfact> 0.50315793E-02</totfact>
</mgrwt>
</event>
<event>
 6    1  0.1072514E-005  0.3098951E+03  0.7818608E-02  0.1080396E+00
          1   -1    0    0  501    0  0.00000000000E+00  0.00000000000E+00  0.27910757693E+03  0.27910757693E+03  0.00000000000E+00 0. -1.
         -1   -1    0    0    0  501 -0.00000000000E+00 -0.00000000000E+00 -0.86019663272E+02  0.86019663272E+02  0.00000000000E+00 0.  1.
         23    2    1    2    0    0 -0.15137375406E+02 -0.46714487578E+02 -0.52889302584E+02  0.11429627243E+03  0.88628302925E+02 0.  0.
         13    1    3    3    0    0 -0.51405605327E+02 -0.16261661868E+02 -0.29926599868E+02  0.61665057248E+02  0.00000000000E+00 0.  1.
        -13    1    3    3    0    0  0.36268229921E+02 -0.30452825710E+02 -0.22962702716E+02  0.52631215180E+02  0.00000000000E+00 0. -1.
         22    1    1    2    0    0  0.15137375406E+02  0.46714487578E+02  0.24597721625E+03  0.25083096778E+03  0.00000000000E+00 0. -1.
<mgrwt>
<rscale>  0 0.30989508E+03</rscale>
<asrwt>0</asrwt>
<pdfrwt beam="1">  1        1 0.42939627E-01 0.30989508E+03</pdfrwt>
<pdfrwt beam="2">  1       -1 0.13233794E-01 0.30989508E+03</pdfrwt>
<totfact> 0.37651059E+03</totfact>
</mgrwt>
</event>
<event>
 6    1  0.1072514E-005  0.1189372E+04  0.7818608E-02  0.9122210E-01
          2   -1    0    0  501    0  0.00000000000E+00  0.00000000000E+00  0.27903466791E+04  0.27903466791E+04  0.00000000000E+00 0. -1.
         -2   -1    0    0    0  501 -0.00000000000E+00 -0.00000000000E+00 -0.12674102495E+03  0.12674102495E+03  0.00000000000E+00 0.  1.
         23    2    1    2    0    0 -0.50419361719E+03  0.29157702094E+03  0.15767326690E+04  0.16839935273E+04  0.10256669964E+03 0.  0.
         11    1    3    3    0    0 -0.22173877309E+03  0.13797829525E+03  0.85236168183E+03  0.89147435751E+03  0.00000000000E+00 0.  1.
        -11    1    3    3    0    0 -0.28245484410E+03  0.15359872568E+03  0.72437098717E+03  0.79251916983E+03  0.00000000000E+00 0. -1.
         22    1    1    2    0    0  0.50419361719E+03 -0.29157702094E+03  0.10868729851E+04  0.12330941767E+04  0.00000000000E+00 0.  1.
<mgrwt>
<rscale>  0 0.11893719E+04</rscale>
<asrwt>0</asrwt>
<pdfrwt beam="1">  1        2 0.42928406E+00 0.11893719E+04</pdfrwt>
<pdfrwt beam="2">  1       -2 0.19498621E-01 0.11893719E+04</pdfrwt>
<totfact> 0.52298613E+01</totfact>
</mgrwt>
</event>
<event>
 6    1  0.1072514E-005  0.1232726E+04  0.7818608E-02  0.9084684E-01
         -2   -1    0    0    0  501 -0.00000000000E+00  0.00000000000E+00  0.79214280456E+03  0.79214280456E+03  0.00000000000E+00 0. -1.
          2   -1    0    0  501    0  0.00000000000E+00 -0.00000000000E+00 -0.47958933733E+03  0.47958933733E+03  0.00000000000E+00 0.  1.
         23    2    1    2    0    0 -0.23291238986E+03  0.54910145094E+03  0.10581304419E+02  0.60319061596E+03  0.89254525969E+02 0.  0.
         11    1    3    3    0    0 -0.87184914491E+02  0.13417680123E+03  0.30812214289E+02  0.16295402987E+03  0.00000000000E+00 0.  1.
        -11    1    3    3    0    0 -0.14572747537E+03  0.41492464971E+03 -0.20230909870E+02  0.44023658609E+03  0.00000000000E+00 0. -1.
         22    1    1    2    0    0  0.23291238986E+03 -0.54910145094E+03  0.30197216281E+03  0.66854152593E+03  0.00000000000E+00 0. -1.
<mgrwt>
<rscale>  0 0.12327258E+04</rscale>
<asrwt>0</asrwt>
<pdfrwt beam="1">  1        2 0.73782975E-01 0.12327258E+04</pdfrwt>
<pdfrwt beam="2">  1       -2 0.12186812E+00 0.12327258E+04</pdfrwt>
<totfact> 0.32504158E+01</totfact>
</mgrwt>
</event>
<event>
 6    1  0.1072514E-005  0.2391924E+04  0.7818608E-02  0.8442533E-01
         -2   -1    0    0    0  501 -0.00000000000E+00  0.00000000000E+00  0.97323942432E+03  0.97323942432E+03  0.00000000000E+00 0. -1.
          2   -1    0    0  501    0  0.00000000000E+00 -0.00000000000E+00 -0.14696538573E+04  0.14696538573E+04  0.00000000000E+00 0.  1.
         23    2    1    2    0    0  0.58472649008E+03  0.68920826699E+03 -0.10457273951E+04  0.13852270612E+04  0.91624903362E+02 0.  0.
         13    1    3    3    0    0  0.37904058048E+03  0.41702630201E+03 -0.71136693070E+03  0.90753821314E+03  0.00000000000E+00 0. -1.
        -13    1    3    3    0    0  0.20568590960E+03  0.27218196498E+03 -0.33436046437E+03  0.47768884810E+03  0.00000000000E+00 0.  1.
         22    1    1    2    0    0 -0.58472649008E+03 -0.68920826699E+03  0.54931296206E+03  0.10576662204E+04  0.00000000000E+00 0. -1.
<mgrwt>
<rscale>  0 0.23919240E+04</rscale>
<asrwt>0</asrwt>
<pdfrwt beam="1">  1        2 0.22610059E+00 0.23919240E+04</pdfrwt>
<pdfrwt beam="2">  1       -2 0.14972914E+00 0.23919240E+04</pdfrwt>
<totfact> 0.35781547E+00</totfact>
</mgrwt>
</event>
<event>
 6    1  0.1072514E-005  0.1789790E+04  0.7818608E-02  0.8711748E-01
         -1   -1    0    0    0  501 -0.00000000000E+00  0.00000000000E+00  0.62258806782E+03  0.62258806782E+03  0.00000000000E+00 0.  1.
          1   -1    0    0  501    0  0.00000000000E+00 -0.00000000000E+00 -0.12863025667E+04  0.12863025667E+04  0.00000000000E+00 0. -1.
         23    2    1    2    0    0  0.50749010259E+03 -0.14092219355E+03 -0.11013183275E+04  0.12241261643E+04  0.90429744004E+02 0.  0.
         13    1    3    3    0    0  0.31771646295E+03 -0.43137082005E+02 -0.68050910180E+03  0.75226138829E+03  0.00000000000E+00 0. -1.
        -13    1    3    3    0    0  0.18977363964E+03 -0.97785111541E+02 -0.42080922575E+03  0.47186477598E+03  0.00000000000E+00 0.  1.
         22    1    1    2    0    0 -0.50749010259E+03  0.14092219355E+03  0.43760382866E+03  0.68476447025E+03  0.00000000000E+00 0.  1.
<mgrwt>
<rscale>  0 0.17897895E+04</rscale>
<asrwt>0</asrwt>
<pdfrwt beam="1">  1        1 0.19789270E+00 0.17897895E+04</pdfrwt>
<pdfrwt beam="2">  1       -1 0.95782780E-01 0.17897895E+04</pdfrwt>
<totfact> 0.91857827E+00</totfact>
</mgrwt>
</event>
<event>
 6    1  0.1072514E-005  0.9299589E+03  0.7818608E-02  0.9388887E-01
          1   -1    0    0  501    0  0.00000000000E+00  0.00000000000E+00  0.70970437606E+03  0.70970437606E+03  0.00000000000E+00 0. -1.
         -1   -1    0    0    0  501 -0.00000000000E+00 -0.00000000000E+00 -0.30464215028E+03  0.30464215028E+03  0.00000000000E+00 0.  1.
         23    2    1    2    0    0  0.12144160871E+03 -0.44285622590E+03  0.14356936673E+03  0.48590711025E+03  0.67998938116E+02 0.  0.
         11    1    3    3    0    0  0.10138054629E+03 -0.26474741372E+03  0.10676549752E+03  0.30293246722E+03  0.00000000000E+00 0.  1.
        -11    1    3    3    0    0  0.20061062416E+02 -0.17810881219E+03  0.36803869205E+02  0.18297464303E+03  0.00000000000E+00 0. -1.
         22    1    1    2    0    0 -0.12144160871E+03  0.44285622590E+03  0.26149285906E+03  0.52843941610E+03  0.00000000000E+00 0. -1.
<mgrwt>
<rscale>  0 0.92995885E+03</rscale>
<asrwt>0</asrwt>
<pdfrwt beam="1">  1        1 0.10918529E+00 0.92995885E+03</pdfrwt>
<pdfrwt beam="2">  1       -1 0.46868023E-01 0.92995885E+03</pdfrwt>
<totfact> 0.12175471E+02</totfact>
</mgrwt>
</event>
<event>
 6    1  0.1072514E-005  0.2215386E+04  0.7818608E-02  0.8512051E-01
          2   -1    0    0  501    0  0.00000000000E+00  0.00000000000E+00  0.98649496598E+03  0.98649496598E+03  0.00000000000E+00 0. -1.
         -2   -1    0    0    0  501 -0.00000000000E+00 -0.00000000000E+00 -0.12437813994E+04  0.12437813994E+04  0.00000000000E+00 0.  1.
         23    2    1    2    0    0  0.16250645737E+03  0.45386210942E+03  0.87293089937E+03  0.10015410878E+04  0.93150589989E+02 0.  0.
         11    1    3    3    0    0  0.11195520200E+03  0.18820958615E+03  0.35090961423E+03  0.41363555569E+03  0.00000000000E+00 0. -1.
        -11    1    3    3    0    0  0.50551255370E+02  0.26565252326E+03  0.52202128514E+03  0.58790553210E+03  0.00000000000E+00 0.  1.
         22    1    1    2    0    0 -0.16250645737E+03 -0.45386210942E+03 -0.11302173328E+04  0.12287352776E+04  0.00000000000E+00 0.  1.
<mgrwt>
<rscale>  0 0.22153863E+04</rscale>
<asrwt>0</asrwt>
<pdfrwt beam="1">  1        2 0.15176846E+00 0.22153863E+04</pdfrwt>
<pdfrwt beam="2">  1       -2 0.19135098E+00 0.22153863E+04</pdfrwt>
<totfact> 0.35604881E+00</totfact>
</mgrwt>
</event>
<event>
 6    1  0.1072514E-005  0.3250660E+04  0.7818608E-02  0.8175565E-01
         -3   -1    0    0    0  501 -0.00000000000E+00  0.00000000000E+00  0.26835170606E+04  0.26835170606E+04  0.00000000000E+00 0.  1.
          3   -1    0    0  501    0  0.00000000000E+00 -0.00000000000E+00 -0.98441631770E+03  0.98441631770E+03  0.00000000000E+00 0. -1.
         23    2    1    2    0    0  0.12605753983E+04 -0.72350210824E+03  0.16679776510E+04  0.22141540683E+04  0.88448622023E+02 0.  0.
         11    1    3    3    0    0  0.26525449680E+03 -0.12508914208E+03  0.29693653794E+03  0.41734703677E+03  0.00000000000E+00 0.  1.
        -11    1    3    3    0    0  0.99532090146E+03 -0.59841296616E+03  0.13710411130E+04  0.17968070315E+04  0.00000000000E+00 0. -1.
         22    1    1    2    0    0 -0.12605753983E+04  0.72350210824E+03  0.31123091931E+02  0.14537793100E+04  0.00000000000E+00 0.  1.
<mgrwt>
<rscale>  0 0.32506602E+04</rscale>
<asrwt>0</asrwt>
<pdfrwt beam="1">  1        3 0.15144866E+00 0.32506602E+04</pdfrwt>
<pdfrwt beam="2">  1       -3 0.41284878E+00 0.32506602E+04</pdfrwt>
<totfact> 0.61578295E-03</totfact>
</mgrwt>
</event>
<event>
 6    1  0.1072514E-005  0.1652167E+04  0.7818608E-02  0.8789126E-01
          2   -1    0    0  501    0  0.00000000000E+00  0.00000000000E+00  0.31266622125E+04  0.31266622125E+04  0.00000000000E+00 0. -1.
         -2   -1    0    0    0  501 -0.00000000000E+00 -0.00000000000E+00 -0.21825632648E+03  0.21825632648E+03  0.00000000000E+00 0.  1.
         23    2    1    2    0    0 -0.51903715348E+03 -0.43323870927E+03  0.50641514614E+03  0.84959193502E+03  0.90855984485E+02 0.  0.
         11    1    3    3    0    0 -0.39924376909E+03 -0.35173828151E+03  0.43889807789E+03  0.68974410372E+03  0.00000000000E+00 0.  1.
        -11    1    3    3    0    0 -0.11979338439E+03 -0.81500427763E+02  0.67517068247E+02  0.15984783131E+03  0.00000000000E+00 0. -1.
         22    1    1    2    0    0  0.51903715348E+03  0.43323870927E+03  0.24019907399E+04  0.24953266040E+04  0.00000000000E+00 0.  1.
<mgrwt>
<rscale>  0 0.16521668E+04</rscale>
<asrwt>0</asrwt>
<pdfrwt beam="1">  1        2 0.48102492E+00 0.16521668E+04</pdfrwt>
<pdfrwt beam="2">  1       -2 0.33577899E-01 0.16521668E+04</pdfrwt>
<totfact> 0.11533259E+01</totfact>
</mgrwt>
</event>
<event>
 6    1  0.1072514E-005  0.1192254E+04  0.7818608E-02  0.9119664E-01
          2   -1    0    0  501    0  0.00000000000E+00  0.00000000000E+00  0.13679208774E+04  0.13679208774E+04  0.00000000000E+00 0. -1.
         -2   -1    0    0    0  501 -0.00000000000E+00 -0.00000000000E+00 -0.25978647693E+03  0.25978647693E+03  0.00000000000E+00 0.  1.
         23    2    1    2    0    0  0.25170809152E+02  0.56462542473E+03  0.80020073165E+03  0.98407812543E+03  0.93022073406E+02 0.  0.
         11    1    3    3    0    0  0.59045173750E+02  0.40613197800E+03  0.58818032504E+03  0.71720681178E+03  0.00000000000E+00 0.  1.
        -11    1    3    3    0    0 -0.33874364598E+02  0.15849344673E+03  0.21202040660E+03  0.26687131365E+03  0.00000000000E+00 0. -1.
         22    1    1    2    0    0 -0.25170809152E+02 -0.56462542473E+03  0.30793366881E+03  0.64362922888E+03  0.00000000000E+00 0.  1.
<mgrwt>
<rscale>  0 0.11922539E+04</rscale>
<asrwt>0</asrwt>
<pdfrwt beam="1">  1        2 0.21044936E+00 0.11922539E+04</pdfrwt>
<pdfrwt beam="2">  1       -2 0.39967151E-01 0.11922539E+04</pdfrwt>
<totfact> 0.88240630E+01</totfact>
</mgrwt>
</event>
<event>
 6    1  0.1072514E-005  0.1891641E+04  0.7818608E-02  0.8659028E-01
         -1   -1    0    0    0  501 -0.00000000000E+00  0.00000000000E+00  0.19936934528E+04  0.19936934528E+04  0.00000000000E+00 0.  1.
          1   -1    0    0  501    0  0.00000000000E+00 -0.00000000000E+00 -0.44870311035E+03  0.44870311035E+03  0.00000000000E+00 0. -1.
         23    2    1    2    0    0 -0.26454311351E+03  0.32342943096E+03  0.18668741949E+04  0.19149509544E+04  0.85019070246E+02 0.  0.
         13    1    3    3    0    0 -0.30847034342E+02  0.23811335986E+02  0.92973306209E+02  0.10080949815E+03  0.00000000000E+00 0.  1.
        -13    1    3    3    0    0 -0.23369607917E+03  0.29961809497E+03  0.17739008887E+04  0.18141414563E+04  0.00000000000E+00 0. -1.
         22    1    1    2    0    0  0.26454311351E+03 -0.32342943096E+03 -0.32188385248E+03  0.52744560876E+03  0.00000000000E+00 0. -1.
<mgrwt>
<rscale>  0 0.18916410E+04</rscale>
<asrwt>0</asrwt>
<pdfrwt beam="1">  1        1 0.69031249E-01 0.18916410E+04</pdfrwt>
<pdfrwt beam="2">  1       -1 0.30672206E+00 0.18916410E+04</pdfrwt>
<totfact> 0.14390076E+00</totfact>
</mgrwt>
</event>
<event>
 6    1  0.1072514E-005  0.2220703E+04  0.7818608E-02  0.8509860E-01
          2   -1    0    0  501    0  0.00000000000E+00  0.00000000000E+00  0.34078935601E+04  0.34078935601E+04  0.00000000000E+00 0. -1.
         -2   -1    0    0    0  501 -0.00000000000E+00 -0.00000000000E+00 -0.36177212809E+03  0.36177212809E+03  0.00000000000E+00 0.  1.
         23    2    1    2    0    0  0.33080225807E+03  0.69734870094E+03  0.28762217482E+04  0.29793548334E+04  0.90434140090E+02 0.  0.
         11    1    3    3    0    0  0.18920954148E+03  0.47787434145E+03  0.20046793303E+04  0.20695176622E+04  0.00000000000E+00 0. -1.
        -11    1    3    3    0    0  0.14159271659E+03  0.21947435949E+03  0.87154241795E+03  0.90983717123E+03  0.00000000000E+00 0.  1.
         22    1    1    2    0    0 -0.33080225807E+03 -0.69734870094E+03  0.16989968378E+03  0.79031085478E+03  0.00000000000E+00 0.  1.
<mgrwt>
<rscale>  0 0.22207034E+04</rscale>
<asrwt>0</asrwt>
<pdfrwt beam="1">  1        2 0.52429130E+00 0.22207034E+04</pdfrwt>
<pdfrwt beam="2">  1       -2 0.55657253E-01 0.22207034E+04</pdfrwt>
<totfact> 0.26133228E+00</totfact>
</mgrwt>
</event>
<event>
 6    1  0.1072514E-005  0.1373592E+04  0.7818608E-02  0.8973159E-01
          2   -1    0    0  501    0  0.00000000000E+00  0.00000000000E+00  0.10020496117E+04  0.10020496117E+04  0.00000000000E+00 0. -1.
         -2   -1    0    0    0  501 -0.00000000000E+00 -0.00000000000E+00 -0.47072365510E+03  0.47072365510E+03  0.00000000000E+00 0.  1.
         23    2    1    2    0    0  0.28374710264E+03 -0.49066190050E+02  0.93188020231E+03  0.97945428989E+03  0.89499079681E+02 0.  0.
         13    1    3    3    0    0  0.21176826503E+03 -0.43269176112E+02  0.80449726684E+03  0.83302693356E+03  0.00000000000E+00 0. -1.
        -13    1    3    3    0    0  0.71978837608E+02 -0.57970139373E+01  0.12738293547E+03  0.14642735633E+03  0.00000000000E+00 0.  1.
         22    1    1    2    0    0 -0.28374710264E+03  0.49066190050E+02 -0.40055424568E+03  0.49331897693E+03  0.00000000000E+00 0.  1.
<mgrwt>
<rscale>  0 0.13735916E+04</rscale>
<asrwt>0</asrwt>
<pdfrwt beam="1">  1        2 0.15416148E+00 0.13735916E+04</pdfrwt>
<pdfrwt beam="2">  1       -2 0.72419024E-01 0.13735916E+04</pdfrwt>
<totfact> 0.42261031E+01</totfact>
</mgrwt>
</event>
<event>
 6    1  0.1072514E-005  0.1280760E+04  0.7818608E-02  0.9044963E-01
          1   -1    0    0  501    0  0.00000000000E+00  0.00000000000E+00  0.63905099354E+03  0.63905099354E+03  0.00000000000E+00 0. -1.
         -1   -1    0    0    0  501 -0.00000000000E+00 -0.00000000000E+00 -0.64171172514E+03  0.64171172514E+03  0.00000000000E+00 0.  1.
         23    2    1    2    0    0 -0.17666194614E+03 -0.38695870660E+03  0.47297099405E+03  0.64266239563E+03  0.91470813528E+02 0.  0.
         11    1    3    3    0    0 -0.39788222644E+02 -0.78020778627E+02  0.48477545789E+02  0.10010203297E+03  0.00000000000E+00 0. -1.
        -11    1    3    3    0    0 -0.13687372350E+03 -0.30893792797E+03  0.42449344826E+03  0.54256036267E+03  0.00000000000E+00 0.  1.
         22    1    1    2    0    0  0.17666194614E+03  0.38695870660E+03 -0.47563172564E+03  0.63810032304E+03  0.00000000000E+00 0.  1.
<mgrwt>
<rscale>  0 0.12807600E+04</rscale>
<asrwt>0</asrwt>
<pdfrwt beam="1">  1        1 0.98315538E-01 0.12807600E+04</pdfrwt>
<pdfrwt beam="2">  1       -1 0.98724880E-01 0.12807600E+04</pdfrwt>
<totfact> 0.30176795E+01</totfact>
</mgrwt>
</event>
<event>
 6    1  0.1278737E-005  0.2836195E+04  0.7818608E-02  0.8292118E-01
          1   -1    0    0  501    0  0.00000000000E+00  0.00000000000E+00  0.15615037933E+04  0.15615037933E+04  0.00000000000E+00 0. -1.
         -1   -1    0    0    0  501 -0.00000000000E+00 -0.00000000000E+00 -0.12878618476E+04  0.12878618476E+04  0.00000000000E+00 0.  1.
         23    2    1    2    0    0  0.46425505356E+03  0.46481193142E+03  0.13979933305E+04  0.15471563938E+04  0.87890092985E+02 0.  0.
         13    1    3    3    0    0  0.18435321825E+03  0.18309069863E+03  0.45514658299E+03  0.52408656252E+03  0.00000000000E+00 0.  1.
        -13    1    3    3    0    0  0.27990183531E+03  0.28172123279E+03  0.94284674754E+03  0.10230698313E+04  0.00000000000E+00 0. -1.
         22    1    1    2    0    0 -0.46425505356E+03 -0.46481193142E+03 -0.11243513849E+04  0.13022092470E+04  0.00000000000E+00 0.  1.
<mgrwt>
<rscale>  0 0.28361955E+04</rscale>
<asrwt>0</asrwt>
<pdfrwt beam="1">  1        1 0.24023135E+00 0.28361955E+04</pdfrwt>
<pdfrwt beam="2">  1       -1 0.19813259E+00 0.28361955E+04</pdfrwt>
<totfact> 0.79372557E-01</totfact>
</mgrwt>
</event>
<event>
 6    1  0.1072514E-005  0.1692435E+04  0.7818608E-02  0.8765691E-01
          4   -1    0    0  501    0  0.00000000000E+00  0.00000000000E+00  0.36349554048E+03  0.36349554048E+03  0.00000000000E+00 0.  1.
         -4   -1    0    0    0  501 -0.00000000000E+00 -0.00000000000E+00 -0.19699950454E+04  0.19699950454E+04  0.00000000000E+00 0. -1.
         23    2    1    2    0    0 -0.57577491286E+02 -0.65806693488E+03 -0.15293901458E+04  0.16684243399E+04  0.90765090962E+02 0.  0.
         13    1    3    3    0    0 -0.70597877636E+02 -0.46039548838E+03 -0.11416501073E+04  0.12330097459E+04  0.00000000000E+00 0. -1.
        -13    1    3    3    0    0  0.13020386350E+02 -0.19767144649E+03 -0.38774003846E+03  0.43541459398E+03  0.00000000000E+00 0.  1.
         22    1    1    2    0    0  0.57577491286E+02  0.65806693488E+03 -0.77109359173E+02  0.66506624599E+03  0.00000000000E+00 0.  1.
<mgrwt>
<rscale>  0 0.16924354E+04</rscale>
<asrwt>0</asrwt>
<pdfrwt beam="1">  1        4 0.55922391E-01 0.16924354E+04</pdfrwt>
<pdfrwt beam="2">  1       -4 0.30307616E+00 0.16924354E+04</pdfrwt>
<totfact> 0.17231135E-01</totfact>
</mgrwt>
</event>
<event>
 6    1  0.1072514E-005  0.2007182E+04  0.7818608E-02  0.8603270E-01
          2   -1    0    0  501    0  0.00000000000E+00  0.00000000000E+00  0.36403143911E+04  0.36403143911E+04  0.00000000000E+00 0. -1.
         -2   -1    0    0    0  501 -0.00000000000E+00 -0.00000000000E+00 -0.27667811732E+03  0.27667811732E+03  0.00000000000E+00 0.  1.
         23    2    1    2    0    0 -0.58449918642E+02  0.39299803702E+03  0.34791751498E+04  0.35032134829E+04  0.99905623119E+02 0.  0.
         11    1    3    3    0    0 -0.86689548126E+02  0.30664464102E+03  0.27487138497E+04  0.27671237488E+04  0.00000000000E+00 0.  1.
        -11    1    3    3    0    0  0.28239629485E+02  0.86353396001E+02  0.73046130006E+03  0.73608973404E+03  0.00000000000E+00 0. -1.
         22    1    1    2    0    0  0.58449918642E+02 -0.39299803702E+03 -0.11553887602E+03  0.41377902553E+03  0.00000000000E+00 0.  1.
<mgrwt>
<rscale>  0 0.20071824E+04</rscale>
<asrwt>0</asrwt>
<pdfrwt beam="1">  1        2 0.56004833E+00 0.20071824E+04</pdfrwt>
<pdfrwt beam="2">  1       -2 0.42565867E-01 0.20071824E+04</pdfrwt>
<totfact> 0.31574469E+00</totfact>
</mgrwt>
</event>
<event>
 6    1  0.1072514E-005  0.1075481E+04  0.7818608E-02  0.9229425E-01
          1   -1    0    0  501    0  0.00000000000E+00  0.00000000000E+00  0.17073795469E+04  0.17073795469E+04  0.00000000000E+00 0. -1.
         -1   -1    0    0    0  501 -0.00000000000E+00 -0.00000000000E+00 -0.16936162923E+03  0.16936162923E+03  0.00000000000E+00 0.  1.
         23    2    1    2    0    0 -0.63948556208E+02  0.15990835625E+03  0.16563433304E+04  0.16677890200E+04  0.91579948151E+02 0.  0.
         11    1    3    3    0    0  0.20899195809E+02  0.51170541185E+02  0.58461615483E+03  0.58722333840E+03  0.00000000000E+00 0. -1.
        -11    1    3    3    0    0 -0.84847752018E+02  0.10873781506E+03  0.10717271756E+04  0.10805656816E+04  0.00000000000E+00 0.  1.
         22    1    1    2    0    0  0.63948556208E+02 -0.15990835625E+03 -0.11832541274E+03  0.20895215610E+03  0.00000000000E+00 0.  1.
<mgrwt>
<rscale>  0 0.10754805E+04</rscale>
<asrwt>0</asrwt>
<pdfrwt beam="1">  1        1 0.26267376E+00 0.10754805E+04</pdfrwt>
<pdfrwt beam="2">  1       -1 0.26055636E-01 0.10754805E+04</pdfrwt>
<totfact> 0.61383581E+01</totfact>
</mgrwt>
</event>
<event>
 6    1  0.1072514E-005  0.2278807E+04  0.7818608E-02  0.8486324E-01
         -2   -1    0    0    0  501 -0.00000000000E+00  0.00000000000E+00  0.88515015572E+03  0.88515015572E+03  0.00000000000E+00 0.  1.
          2   -1    0    0  501    0  0.00000000000E+00 -0.00000000000E+00 -0.14666899497E+04  0.14666899497E+04  0.00000000000E+00 0. -1.
         23    2    1    2    0    0 -0.75013266910E+03  0.84676322825E+03 -0.16821366271E+03  0.11474541719E+04  0.92995991287E+02 0.  0.
         13    1    3    3    0    0 -0.34250952407E+03  0.33241915588E+03 -0.99736035032E+02  0.48760900931E+03  0.00000000000E+00 0. -1.
        -13    1    3    3    0    0 -0.40762314503E+03  0.51434407237E+03 -0.68477627676E+02  0.65984516263E+03  0.00000000000E+00 0.  1.
         22    1    1    2    0    0  0.75013266910E+03 -0.84676322825E+03 -0.41332613126E+03  0.12043859335E+04  0.00000000000E+00 0. -1.
<mgrwt>
<rscale>  0 0.22788074E+04</rscale>
<asrwt>0</asrwt>
<pdfrwt beam="1">  1        2 0.22564460E+00 0.22788074E+04</pdfrwt>
<pdfrwt beam="2">  1       -2 0.13617695E+00 0.22788074E+04</pdfrwt>
<totfact> 0.46464251E+00</totfact>
</mgrwt>
</event>
<event>
 6    1  0.1072514E-005  0.1637549E+04  0.7818608E-02  0.8797807E-01
          2   -1    0    0  501    0  0.00000000000E+00  0.00000000000E+00  0.32168723602E+04  0.32168723602E+04  0.00000000000E+00 0.  1.
         -2   -1    0    0    0  501 -0.00000000000E+00 -0.00000000000E+00 -0.20839859083E+03  0.20839859083E+03  0.00000000000E+00 0. -1.
         23    2    1    2    0    0 -0.56843838220E+03 -0.28551478914E+03  0.43976817095E+03  0.77897366227E+03  0.93611073909E+02 0.  0.
         13    1    3    3    0    0 -0.13201870255E+03 -0.25779715374E+02  0.78738541335E+02  0.15586304706E+03  0.00000000000E+00 0.  1.
        -13    1    3    3    0    0 -0.43641967966E+03 -0.25973507376E+03  0.36102962961E+03  0.62311061521E+03  0.00000000000E+00 0. -1.
         22    1    1    2    0    0  0.56843838220E+03  0.28551478914E+03  0.25687055985E+04  0.26462972888E+04  0.00000000000E+00 0.  1.
<mgrwt>
<rscale>  0 0.16375490E+04</rscale>
<asrwt>0</asrwt>
<pdfrwt beam="1">  1        2 0.49490341E+00 0.16375490E+04</pdfrwt>
<pdfrwt beam="2">  1       -2 0.32061324E-01 0.16375490E+04</pdfrwt>
<totfact> 0.11025806E+01</totfact>
</mgrwt>
</event>
<event>
 6    1  0.1072514E-005  0.2182472E+04  0.7818608E-02  0.8525759E-01
         -2   -1    0    0    0  501 -0.00000000000E+00  0.00000000000E+00  0.19624966074E+04  0.19624966074E+04  0.00000000000E+00 0.  1.
          2   -1    0    0  501    0  0.00000000000E+00 -0.00000000000E+00 -0.60677597747E+03  0.60677597747E+03  0.00000000000E+00 0. -1.
         23    2    1    2    0    0  0.54942217996E+03  0.11700257188E+02 -0.42829497166E+03  0.70253390617E+03  0.90087061853E+02 0.  0.
         11    1    3    3    0    0  0.37234981049E+03  0.41101962234E+02 -0.32159959719E+03  0.49372062301E+03  0.00000000000E+00 0. -1.
        -11    1    3    3    0    0  0.17707236947E+03 -0.29401705046E+02 -0.10669537446E+03  0.20881328316E+03  0.00000000000E+00 0.  1.
         22    1    1    2    0    0 -0.54942217996E+03 -0.11700257188E+02  0.17840156016E+04  0.18667386787E+04  0.00000000000E+00 0.  1.
<mgrwt>
<rscale>  0 0.21824718E+04</rscale>
<asrwt>0</asrwt>
<pdfrwt beam="1">  1        2 0.93350151E-01 0.21824718E+04</pdfrwt>
<pdfrwt beam="2">  1       -2 0.30192255E+00 0.21824718E+04</pdfrwt>
<totfact> 0.13861857E+00</totfact>
</mgrwt>
</event>
<event>
 6    1  0.1072514E-005  0.1419825E+04  0.7818608E-02  0.8939592E-01
         -2   -1    0    0    0  501 -0.00000000000E+00  0.00000000000E+00  0.30108274709E+03  0.30108274709E+03  0.00000000000E+00 0.  1.
          2   -1    0    0  501    0  0.00000000000E+00 -0.00000000000E+00 -0.16738775771E+04  0.16738775771E+04  0.00000000000E+00 0. -1.
         23    2    1    2    0    0  0.45236125777E+03  0.19898810358E+03 -0.13924873097E+04  0.14803748749E+04  0.90894936475E+02 0.  0.
         11    1    3    3    0    0  0.26637104811E+03  0.13953822153E+03 -0.72428888579E+03  0.78423136931E+03  0.00000000000E+00 0.  1.
        -11    1    3    3    0    0  0.18599020967E+03  0.59449882050E+02 -0.66819842393E+03  0.69614350554E+03  0.00000000000E+00 0. -1.
         22    1    1    2    0    0 -0.45236125777E+03 -0.19898810358E+03  0.19692479746E+02  0.49458544930E+03  0.00000000000E+00 0.  1.
<mgrwt>
<rscale>  0 0.14198249E+04</rscale>
<asrwt>0</asrwt>
<pdfrwt beam="1">  1        2 0.25751962E+00 0.14198249E+04</pdfrwt>
<pdfrwt beam="2">  1       -2 0.46320423E-01 0.14198249E+04</pdfrwt>
<totfact> 0.43547471E+01</totfact>
</mgrwt>
</event>
<event>
 6    1  0.1072514E-005  0.8750615E+03  0.7818608E-02  0.9457304E-01
         -1   -1    0    0    0  501 -0.00000000000E+00  0.00000000000E+00  0.61412777880E+03  0.61412777880E+03  0.00000000000E+00 0.  1.
          1   -1    0    0  501    0  0.00000000000E+00 -0.00000000000E+00 -0.31171552213E+03  0.31171552213E+03  0.00000000000E+00 0. -1.
         23    2    1    2    0    0 -0.38741695776E+03  0.15339233014E+03  0.27252521564E+03  0.50809416409E+03  0.10133400375E+03 0.  0.
         13    1    3    3    0    0 -0.18969337671E+03  0.28143896202E+02  0.93074769097E+02  0.21316324426E+03  0.00000000000E+00 0. -1.
        -13    1    3    3    0    0 -0.19772358105E+03  0.12524843394E+03  0.17945044654E+03  0.29493091983E+03  0.00000000000E+00 0.  1.
         22    1    1    2    0    0  0.38741695776E+03 -0.15339233014E+03  0.29887041039E+02  0.41774913684E+03  0.00000000000E+00 0. -1.
<mgrwt>
<rscale>  0 0.87506151E+03</rscale>
<asrwt>0</asrwt>
<pdfrwt beam="1">  1        1 0.47956234E-01 0.87506151E+03</pdfrwt>
<pdfrwt beam="2">  1       -1 0.94481196E-01 0.87506151E+03</pdfrwt>
<totfact> 0.91269250E+01</totfact>
</mgrwt>
</event>
<event>
 6    1  0.1072514E-005  0.1709229E+04  0.7818608E-02  0.8756118E-01
          4   -1    0    0  501    0  0.00000000000E+00  0.00000000000E+00  0.14556591499E+04  0.14556591499E+04  0.00000000000E+00 0. -1.
         -4   -1    0    0    0  501 -0.00000000000E+00 -0.00000000000E+00 -0.50174257877E+03  0.50174257877E+03  0.00000000000E+00 0.  1.
         23    2    1    2    0    0  0.64505812250E+01  0.74560569370E+03  0.56251012302E+01  0.75107417267E+03  0.90062814865E+02 0.  0.
         13    1    3    3    0    0  0.43451573446E+02  0.56268882118E+03  0.85751978375E+01  0.56442916538E+03  0.00000000000E+00 0. -1.
        -13    1    3    3    0    0 -0.37000992221E+02  0.18291687252E+03 -0.29500966073E+01  0.18664500729E+03  0.00000000000E+00 0.  1.
         22    1    1    2    0    0 -0.64505812250E+01 -0.74560569370E+03  0.94829146995E+03  0.12063275560E+04  0.00000000000E+00 0. -1.
<mgrwt>
<rscale>  0 0.17092293E+04</rscale>
<asrwt>0</asrwt>
<pdfrwt beam="1">  1        4 0.22394756E+00 0.17092293E+04</pdfrwt>
<pdfrwt beam="2">  1       -4 0.77191167E-01 0.17092293E+04</pdfrwt>
<totfact> 0.26361813E-01</totfact>
</mgrwt>
</event>
<event>
 6    1  0.1072514E-005  0.2035636E+04  0.7818608E-02  0.8590138E-01
         -2   -1    0    0    0  501 -0.00000000000E+00  0.00000000000E+00  0.10718506702E+04  0.10718506702E+04  0.00000000000E+00 0.  1.
          2   -1    0    0  501    0  0.00000000000E+00 -0.00000000000E+00 -0.96650937002E+03  0.96650937002E+03  0.00000000000E+00 0. -1.
         23    2    1    2    0    0 -0.97441778017E+03 -0.16509735909E+03  0.28802317866E+03  0.10333128686E+04  0.89615761621E+02 0.  0.
         13    1    3    3    0    0 -0.54838467138E+03 -0.85193373910E+02  0.20719648600E+03  0.59237998158E+03  0.00000000000E+00 0. -1.
        -13    1    3    3    0    0 -0.42603310880E+03 -0.79903985185E+02  0.80826692653E+02  0.44093288705E+03  0.00000000000E+00 0.  1.
         22    1    1    2    0    0  0.97441778017E+03  0.16509735909E+03 -0.18268187852E+03  0.10050471715E+04  0.00000000000E+00 0.  1.
<mgrwt>
<rscale>  0 0.20356362E+04</rscale>
<asrwt>0</asrwt>
<pdfrwt beam="1">  1        2 0.14869375E+00 0.20356362E+04</pdfrwt>
<pdfrwt beam="2">  1       -2 0.16490010E+00 0.20356362E+04</pdfrwt>
<totfact> 0.56876782E+00</totfact>
</mgrwt>
</event>
<event>
 6    1  0.1072514E-005  0.2882892E+04  0.7818608E-02  0.8277986E-01
          1   -1    0    0  501    0  0.00000000000E+00  0.00000000000E+00  0.16578258982E+04  0.16578258982E+04  0.00000000000E+00 0. -1.
         -1   -1    0    0    0  501 -0.00000000000E+00 -0.00000000000E+00 -0.12533077669E+04  0.12533077669E+04  0.00000000000E+00 0.  1.
         23    2    1    2    0    0 -0.65569593432E+02 -0.62889221446E+03 -0.11040071334E+04  0.12754523810E+04  0.90234342786E+02 0.  0.
         11    1    3    3    0    0  0.16201228002E+02 -0.27554771557E+03 -0.47818761726E+03  0.55213442263E+03  0.00000000000E+00 0. -1.
        -11    1    3    3    0    0 -0.81770821433E+02 -0.35334449889E+03 -0.62581951614E+03  0.72331795838E+03  0.00000000000E+00 0.  1.
         22    1    1    2    0    0  0.65569593432E+02  0.62889221446E+03  0.15085252647E+04  0.16356812841E+04  0.00000000000E+00 0. -1.
<mgrwt>
<rscale>  0 0.28828917E+04</rscale>
<asrwt>0</asrwt>
<pdfrwt beam="1">  1        1 0.25505014E+00 0.28828917E+04</pdfrwt>
<pdfrwt beam="2">  1       -1 0.19281658E+00 0.28828917E+04</pdfrwt>
<totfact> 0.73926394E-01</totfact>
</mgrwt>
</event>
<event>
 6    1  0.1072514E-005  0.3136826E+04  0.7818608E-02  0.8205703E-01
         -2   -1    0    0    0  501 -0.00000000000E+00  0.00000000000E+00  0.20794424927E+04  0.20794424927E+04  0.00000000000E+00 0.  1.
          2   -1    0    0  501    0  0.00000000000E+00 -0.00000000000E+00 -0.11829707043E+04  0.11829707043E+04  0.00000000000E+00 0. -1.
         23    2    1    2    0    0  0.14989507378E+04 -0.45657706495E+03  0.47249538943E+03  0.16391227370E+04  0.90307935765E+02 0.  0.
         13    1    3    3    0    0  0.91086462515E+03 -0.29769220233E+03  0.33001077648E+03  0.10135098052E+04  0.00000000000E+00 0. -1.
        -13    1    3    3    0    0  0.58808611264E+03 -0.15888486261E+03  0.14248461295E+03  0.62561293175E+03  0.00000000000E+00 0.  1.
         22    1    1    2    0    0 -0.14989507378E+04  0.45657706495E+03  0.42397639900E+03  0.16232904600E+04  0.00000000000E+00 0. -1.
<mgrwt>
<rscale>  0 0.31368261E+04</rscale>
<asrwt>0</asrwt>
<pdfrwt beam="1">  1        2 0.18199549E+00 0.31368261E+04</pdfrwt>
<pdfrwt beam="2">  1       -2 0.31991423E+00 0.31368261E+04</pdfrwt>
<totfact> 0.39343258E-01</totfact>
</mgrwt>
</event>
<event>
 6    1  0.1072514E-005  0.1328141E+04  0.7818608E-02  0.9007542E-01
          2   -1    0    0  501    0  0.00000000000E+00  0.00000000000E+00  0.18358214491E+04  0.18358214491E+04  0.00000000000E+00 0. -1.
         -2   -1    0    0    0  501 -0.00000000000E+00 -0.00000000000E+00 -0.24021394394E+03  0.24021394394E+03  0.00000000000E+00 0.  1.
         23    2    1    2    0    0  0.47178616888E+03 -0.66836358401E+02  0.86621234163E+02  0.49360408205E+03  0.95354410779E+02 0.  0.
         11    1    3    3    0    0  0.23217084447E+03  0.14604506126E+02  0.33786259345E+02  0.23507042336E+03  0.00000000000E+00 0. -1.
        -11    1    3    3    0    0  0.23961532442E+03 -0.81440864527E+02  0.52834974819E+02  0.25853365869E+03  0.00000000000E+00 0.  1.
         22    1    1    2    0    0 -0.47178616888E+03  0.66836358401E+02  0.15089862710E+04  0.15824313110E+04  0.00000000000E+00 0. -1.
<mgrwt>
<rscale>  0 0.13281414E+04</rscale>
<asrwt>0</asrwt>
<pdfrwt beam="1">  1        2 0.28243406E+00 0.13281414E+04</pdfrwt>
<pdfrwt beam="2">  1       -2 0.36955993E-01 0.13281414E+04</pdfrwt>
<totfact> 0.55644704E+01</totfact>
</mgrwt>
</event>
<event>
 6    1  0.1072514E-005  0.4803270E+04  0.7818608E-02  0.7859592E-01
         -1   -1    0    0    0  501 -0.00000000000E+00  0.00000000000E+00  0.22835213696E+04  0.22835213696E+04  0.00000000000E+00 0.  1.
          1   -1    0    0  501    0  0.00000000000E+00 -0.00000000000E+00 -0.25258582741E+04  0.25258582741E+04  0.00000000000E+00 0. -1.
         23    2    1    2    0    0  0.11845956035E+04  0.11609852038E+04  0.16166823551E+04  0.23179732146E+04  0.90468772564E+02 0.  0.
         13    1    3    3    0    0  0.10335136445E+04  0.10524791417E+04  0.14308081123E+04  0.20550120805E+04  0.00000000000E+00 0. -1.
        -13    1    3    3    0    0  0.15108195901E+03  0.10850606215E+03  0.18587424287E+03  0.26296113406E+03  0.00000000000E+00 0.  1.
         22    1    1    2    0    0 -0.11845956035E+04 -0.11609852038E+04 -0.18590192596E+04  0.24914064291E+04  0.00000000000E+00 0. -1.
<mgrwt>
<rscale>  0 0.48032703E+04</rscale>
<asrwt>0</asrwt>
<pdfrwt beam="1">  1        1 0.38859358E+00 0.48032703E+04</pdfrwt>
<pdfrwt beam="2">  1       -1 0.35131098E+00 0.48032703E+04</pdfrwt>
<totfact> 0.14517300E-02</totfact>
</mgrwt>
</event>
<event>
 6    1  0.1072514E-005  0.3598769E+04  0.7818608E-02  0.8090774E-01
         -1   -1    0    0    0  501 -0.00000000000E+00  0.00000000000E+00  0.18902841255E+04  0.18902841255E+04  0.00000000000E+00 0.  1.
          1   -1    0    0  501    0  0.00000000000E+00 -0.00000000000E+00 -0.17128559697E+04  0.17128559697E+04  0.00000000000E+00 0. -1.
         23    2    1    2    0    0  0.14019375269E+04  0.68094761787E+03  0.98716490905E+03  0.18467824730E+04  0.83620915859E+02 0.  0.
         11    1    3    3    0    0  0.91147511062E+03  0.42109875737E+03  0.59400313871E+03  0.11665979468E+04  0.00000000000E+00 0. -1.
        -11    1    3    3    0    0  0.49046241625E+03  0.25984886050E+03  0.39316177034E+03  0.68018452622E+03  0.00000000000E+00 0.  1.
         22    1    1    2    0    0 -0.14019375269E+04 -0.68094761787E+03 -0.80973675326E+03  0.17563576222E+04  0.00000000000E+00 0. -1.
<mgrwt>
<rscale>  0 0.35987689E+04</rscale>
<asrwt>0</asrwt>
<pdfrwt beam="1">  1        1 0.26351630E+00 0.35987689E+04</pdfrwt>
<pdfrwt beam="2">  1       -1 0.29081294E+00 0.35987689E+04</pdfrwt>
<totfact> 0.14313990E-01</totfact>
</mgrwt>
</event>
<event>
 6    1  0.1072514E-005  0.2943457E+04  0.7818608E-02  0.8260064E-01
          2   -1    0    0  501    0  0.00000000000E+00  0.00000000000E+00  0.21628627980E+04  0.21628627980E+04  0.00000000000E+00 0. -1.
         -2   -1    0    0    0  501 -0.00000000000E+00 -0.00000000000E+00 -0.10014434955E+04  0.10014434955E+04  0.00000000000E+00 0.  1.
         23    2    1    2    0    0  0.12341008669E+04 -0.74915141612E+03  0.28198527081E+03  0.14738516180E+04  0.92141764524E+02 0.  0.
         11    1    3    3    0    0  0.58343216508E+03 -0.30356814210E+03  0.11264403581E+03  0.66725960987E+03  0.00000000000E+00 0. -1.
        -11    1    3    3    0    0  0.65066870184E+03 -0.44558327402E+03  0.16934123500E+03  0.80659200809E+03  0.00000000000E+00 0.  1.
         22    1    1    2    0    0 -0.12341008669E+04  0.74915141612E+03  0.87943403164E+03  0.16904546755E+04  0.00000000000E+00 0. -1.
<mgrwt>
<rscale>  0 0.29434571E+04</rscale>
<asrwt>0</asrwt>
<pdfrwt beam="1">  1        2 0.33274812E+00 0.29434571E+04</pdfrwt>
<pdfrwt beam="2">  1       -2 0.15406823E+00 0.29434571E+04</pdfrwt>
<totfact> 0.12999947E+00</totfact>
</mgrwt>
</event>
<event>
 6    1  0.1072514E-005  0.2109600E+04  0.7818608E-02  0.8557026E-01
         -2   -1    0    0    0  501 -0.00000000000E+00  0.00000000000E+00  0.12823014174E+04  0.12823014174E+04  0.00000000000E+00 0.  1.
          2   -1    0    0  501    0  0.00000000000E+00 -0.00000000000E+00 -0.86766087144E+03  0.86766087144E+03  0.00000000000E+00 0. -1.
         23    2    1    2    0    0  0.31870884051E+03  0.15225613621E+02  0.12304322550E+04  0.12739923938E+04  0.85357723555E+02 0.  0.
         11    1    3    3    0    0  0.24940726693E+03  0.50968791067E+00  0.80659400118E+03  0.84427372772E+03  0.00000000000E+00 0. -1.
        -11    1    3    3    0    0  0.69301573580E+02  0.14715925711E+02  0.42383825385E+03  0.42971866610E+03  0.00000000000E+00 0.  1.
         22    1    1    2    0    0 -0.31870884051E+03 -0.15225613621E+02 -0.81579170909E+03  0.87596989500E+03  0.00000000000E+00 0. -1.
<mgrwt>
<rscale>  0 0.21095997E+04</rscale>
<asrwt>0</asrwt>
<pdfrwt beam="1">  1        2 0.13348629E+00 0.21095997E+04</pdfrwt>
<pdfrwt beam="2">  1       -2 0.19727714E+00 0.21095997E+04</pdfrwt>
<totfact> 0.39366025E+00</totfact>
</mgrwt>
</event>
<event>
 6    1  0.1072514E-005  0.8531737E+03  0.7818608E-02  0.9486087E-01
         -2   -1    0    0    0  501 -0.00000000000E+00  0.00000000000E+00  0.11845514228E+03  0.11845514228E+03  0.00000000000E+00 0.  1.
          2   -1    0    0  501    0  0.00000000000E+00 -0.00000000000E+00 -0.15362467423E+04  0.15362467423E+04  0.00000000000E+00 0. -1.
         23    2    1    2    0    0 -0.21591068214E+03  0.19609331083E+03 -0.13076403378E+04  0.13429274312E+04  0.91982733320E+02 0.  0.
         11    1    3    3    0    0 -0.95929579939E+02  0.10325180103E+03 -0.82668968229E+03  0.83861746317E+03  0.00000000000E+00 0. -1.
        -11    1    3    3    0    0 -0.11998110220E+03  0.92841509808E+02 -0.48095065550E+03  0.50430996803E+03  0.00000000000E+00 0.  1.
         22    1    1    2    0    0  0.21591068214E+03 -0.19609331083E+03 -0.11015126225E+03  0.31177445340E+03  0.00000000000E+00 0.  1.
<mgrwt>
<rscale>  0 0.85317367E+03</rscale>
<asrwt>0</asrwt>
<pdfrwt beam="1">  1        2 0.23634565E+00 0.85317367E+03</pdfrwt>
<pdfrwt beam="2">  1       -2 0.18223869E-01 0.85317367E+03</pdfrwt>
<totfact> 0.30616699E+02</totfact>
</mgrwt>
</event>
<event>
 6    1  0.1072514E-005  0.1590836E+04  0.7818608E-02  0.8826198E-01
          2   -1    0    0  501    0  0.00000000000E+00  0.00000000000E+00  0.13171137485E+04  0.13171137485E+04  0.00000000000E+00 0. -1.
         -2   -1    0    0    0  501 -0.00000000000E+00 -0.00000000000E+00 -0.48036070200E+03  0.48036070200E+03  0.00000000000E+00 0.  1.
         23    2    1    2    0    0 -0.39306778107E+03 -0.15858871558E+03 -0.33757743062E+03  0.54899348120E+03  0.88219382836E+02 0.  0.
         13    1    3    3    0    0 -0.36289653486E+03 -0.12395365291E+03 -0.32119935132E+03  0.50022737467E+03  0.00000000000E+00 0. -1.
        -13    1    3    3    0    0 -0.30171246211E+02 -0.34635062669E+02 -0.16378079297E+02  0.48766106524E+02  0.00000000000E+00 0.  1.
         22    1    1    2    0    0  0.39306778107E+03  0.15858871558E+03  0.11743304771E+04  0.12484809693E+04  0.00000000000E+00 0. -1.
<mgrwt>
<rscale>  0 0.15908359E+04</rscale>
<asrwt>0</asrwt>
<pdfrwt beam="1">  1        2 0.20263288E+00 0.15908359E+04</pdfrwt>
<pdfrwt beam="2">  1       -2 0.73901647E-01 0.15908359E+04</pdfrwt>
<totfact> 0.25579565E+01</totfact>
</mgrwt>
</event>
<event>
 6    1  0.1072514E-005  0.2104124E+04  0.7818608E-02  0.8559429E-01
          4   -1    0    0  501    0  0.00000000000E+00  0.00000000000E+00  0.14278650537E+04  0.14278650537E+04  0.00000000000E+00 0. -1.
         -4   -1    0    0    0  501 -0.00000000000E+00 -0.00000000000E+00 -0.77516723123E+03  0.77516723123E+03  0.00000000000E+00 0.  1.
         23    2    1    2    0    0  0.15196807135E+03 -0.10107628980E+04  0.57682296914E+03  0.11780967142E+04  0.10223110828E+03 0.  0.
         11    1    3    3    0    0  0.11865380927E+03 -0.52853898372E+03  0.34283368712E+03  0.64106717338E+03  0.00000000000E+00 0. -1.
        -11    1    3    3    0    0  0.33314262084E+02 -0.48222391433E+03  0.23398928202E+03  0.53702954082E+03  0.00000000000E+00 0.  1.
         22    1    1    2    0    0 -0.15196807135E+03  0.10107628980E+04  0.75874853331E+02  0.10249355707E+04  0.00000000000E+00 0. -1.
<mgrwt>
<rscale>  0 0.21041238E+04</rscale>
<asrwt>0</asrwt>
<pdfrwt beam="1">  1        4 0.21967155E+00 0.21041238E+04</pdfrwt>
<pdfrwt beam="2">  1       -4 0.11925650E+00 0.21041238E+04</pdfrwt>
<totfact> 0.97091283E-02</totfact>
</mgrwt>
</event>
<event>
 6    1  0.1072514E-005  0.4426549E+04  0.7818608E-02  0.7923624E-01
         -2   -1    0    0    0  501 -0.00000000000E+00  0.00000000000E+00  0.21816726455E+04  0.21816726455E+04  0.00000000000E+00 0.  1.
          2   -1    0    0  501    0  0.00000000000E+00 -0.00000000000E+00 -0.22453340008E+04  0.22453340008E+04  0.00000000000E+00 0. -1.
         23    2    1    2    0    0 -0.13076340059E+04  0.17434523558E+04 -0.41401347576E+03  0.22196826060E+04  0.77787548333E+02 0.  0.
         13    1    3    3    0    0 -0.39127024036E+03  0.55416844997E+03 -0.15974324271E+03  0.69693111246E+03  0.00000000000E+00 0.  1.
        -13    1    3    3    0    0 -0.91636376558E+03  0.11892839059E+04 -0.25427023305E+03  0.15227514935E+04  0.00000000000E+00 0. -1.
         22    1    1    2    0    0  0.13076340059E+04 -0.17434523558E+04  0.35035212041E+03  0.22073240403E+04  0.00000000000E+00 0.  1.
<mgrwt>
<rscale>  0 0.44265489E+04</rscale>
<asrwt>0</asrwt>
<pdfrwt beam="1">  1        2 0.34543600E+00 0.44265489E+04</pdfrwt>
<pdfrwt beam="2">  1       -2 0.33564195E+00 0.44265489E+04</pdfrwt>
<totfact> 0.71043570E-02</totfact>
</mgrwt>
</event>
<event>
 6    1  0.1072514E-005  0.2932163E+04  0.7818608E-02  0.8263372E-01
         -1   -1    0    0    0  501 -0.00000000000E+00  0.00000000000E+00  0.10080467591E+04  0.10080467591E+04  0.00000000000E+00 0.  1.
          1   -1    0    0  501    0  0.00000000000E+00 -0.00000000000E+00 -0.21322370926E+04  0.21322370926E+04  0.00000000000E+00 0. -1.
         23    2    1    2    0    0 -0.11337715431E+04  0.84645278907E+03 -0.15716269351E+03  0.14264977820E+04  0.90970180597E+02 0.  0.
         13    1    3    3    0    0 -0.57429141045E+03  0.47622382971E+03 -0.10772122208E+03  0.75379282418E+03  0.00000000000E+00 0.  1.
        -13    1    3    3    0    0 -0.55948013269E+03  0.37022895936E+03 -0.49441471437E+02  0.67270495785E+03  0.00000000000E+00 0. -1.
         22    1    1    2    0    0  0.11337715431E+04 -0.84645278907E+03 -0.96702763994E+03  0.17137860697E+04  0.00000000000E+00 0. -1.
<mgrwt>
<rscale>  0 0.29321628E+04</rscale>
<asrwt>0</asrwt>
<pdfrwt beam="1">  1        1 0.32803647E+00 0.29321628E+04</pdfrwt>
<pdfrwt beam="2">  1       -1 0.15508412E+00 0.29321628E+04</pdfrwt>
<totfact> 0.66081625E-01</totfact>
</mgrwt>
</event>
<event>
 6    1  0.1072514E-005  0.2036689E+04  0.7818608E-02  0.8589657E-01
          2   -1    0    0  501    0  0.00000000000E+00  0.00000000000E+00  0.13570849189E+04  0.13570849189E+04  0.00000000000E+00 0. -1.
         -2   -1    0    0    0  501 -0.00000000000E+00 -0.00000000000E+00 -0.76415676112E+03  0.76415676112E+03  0.00000000000E+00 0.  1.
         23    2    1    2    0    0 -0.10035589598E+04  0.16021712973E+03  0.30204669755E+03  0.10641645123E+04  0.91726698364E+02 0.  0.
         13    1    3    3    0    0 -0.65916798303E+03  0.83539521728E+02  0.15731927336E+03  0.68281083421E+03  0.00000000000E+00 0. -1.
        -13    1    3    3    0    0 -0.34439097682E+03  0.76677608001E+02  0.14472742420E+03  0.38135367810E+03  0.00000000000E+00 0.  1.
         22    1    1    2    0    0  0.10035589598E+04 -0.16021712973E+03  0.29088146020E+03  0.10570771677E+04  0.00000000000E+00 0. -1.
<mgrwt>
<rscale>  0 0.20366891E+04</rscale>
<asrwt>0</asrwt>
<pdfrwt beam="1">  1        2 0.20878229E+00 0.20366891E+04</pdfrwt>
<pdfrwt beam="2">  1       -2 0.11756258E+00 0.20366891E+04</pdfrwt>
<totfact> 0.79278025E+00</totfact>
</mgrwt>
</event>
<event>
 6    1  0.1072514E-005  0.7664018E+03  0.7818608E-02  0.9609964E-01
         -4   -1    0    0    0  501 -0.00000000000E+00  0.00000000000E+00  0.30477656588E+03  0.30477656588E+03  0.00000000000E+00 0.  1.
          4   -1    0    0  501    0  0.00000000000E+00 -0.00000000000E+00 -0.48180524228E+03  0.48180524228E+03  0.00000000000E+00 0. -1.
         23    2    1    2    0    0 -0.34102365529E+01  0.33030556344E+03  0.98220374848E+02  0.35661037288E+03  0.91707802565E+02 0.  0.
         13    1    3    3    0    0  0.43593711568E+02  0.17983470256E+03  0.57979617543E+02  0.19391381587E+03  0.00000000000E+00 0.  1.
        -13    1    3    3    0    0 -0.47003948121E+02  0.15047086088E+03  0.40240757305E+02  0.16269655701E+03  0.00000000000E+00 0. -1.
         22    1    1    2    0    0  0.34102365529E+01 -0.33030556344E+03 -0.27524905125E+03  0.42997143529E+03  0.00000000000E+00 0. -1.
<mgrwt>
<rscale>  0 0.76640185E+03</rscale>
<asrwt>0</asrwt>
<pdfrwt beam="1">  1        4 0.74123883E-01 0.76640185E+03</pdfrwt>
<pdfrwt beam="2">  1       -4 0.46888703E-01 0.76640185E+03</pdfrwt>
<totfact> 0.14445184E+01</totfact>
</mgrwt>
</event>
<event>
 6    1  0.1072514E-005  0.1257458E+04  0.7818608E-02  0.9063999E-01
         -1   -1    0    0    0  501 -0.00000000000E+00  0.00000000000E+00  0.14102734537E+04  0.14102734537E+04  0.00000000000E+00 0.  1.
          1   -1    0    0  501    0  0.00000000000E+00 -0.00000000000E+00 -0.28030032902E+03  0.28030032902E+03  0.00000000000E+00 0. -1.
         23    2    1    2    0    0  0.15480880701E+03 -0.49656778301E+03  0.10097722990E+03  0.53758727747E+03  0.90875464727E+02 0.  0.
         13    1    3    3    0    0  0.93990222744E+02 -0.22817474270E+03  0.88303322184E+02  0.26209798146E+03  0.00000000000E+00 0. -1.
        -13    1    3    3    0    0  0.60818584266E+02 -0.26839304031E+03  0.12673907714E+02  0.27548929601E+03  0.00000000000E+00 0.  1.
         22    1    1    2    0    0 -0.15480880701E+03  0.49656778301E+03  0.10289958948E+04  0.11529865053E+04  0.00000000000E+00 0.  1.
<mgrwt>
<rscale>  0 0.12574579E+04</rscale>
<asrwt>0</asrwt>
<pdfrwt beam="1">  1        1 0.43123128E-01 0.12574579E+04</pdfrwt>
<pdfrwt beam="2">  1       -1 0.21696514E+00 0.12574579E+04</pdfrwt>
<totfact> 0.10896956E+01</totfact>
</mgrwt>
</event>
<event>
 6    1  0.1072514E-005  0.3607284E+04  0.7818608E-02  0.8088825E-01
          2   -1    0    0  501    0  0.00000000000E+00  0.00000000000E+00  0.34637798935E+04  0.34637798935E+04  0.00000000000E+00 0. -1.
         -2   -1    0    0    0  501 -0.00000000000E+00 -0.00000000000E+00 -0.93918325975E+03  0.93918325975E+03  0.00000000000E+00 0.  1.
         23    2    1    2    0    0  0.10723645637E+04  0.12163781634E+04  0.22237627840E+04  0.27537079883E+04  0.90802923566E+02 0.  0.
         11    1    3    3    0    0  0.64736904878E+03  0.69204919750E+03  0.12391211962E+04  0.15599487543E+04  0.00000000000E+00 0.  1.
        -11    1    3    3    0    0  0.42499551496E+03  0.52432896595E+03  0.98464158779E+03  0.11937592340E+04  0.00000000000E+00 0. -1.
         22    1    1    2    0    0 -0.10723645637E+04 -0.12163781634E+04  0.30083384971E+03  0.16492551650E+04  0.00000000000E+00 0.  1.
<mgrwt>
<rscale>  0 0.36072838E+04</rscale>
<asrwt>0</asrwt>
<pdfrwt beam="1">  1        2 0.53288921E+00 0.36072838E+04</pdfrwt>
<pdfrwt beam="2">  1       -2 0.14448973E+00 0.36072838E+04</pdfrwt>
<totfact> 0.23175487E-01</totfact>
</mgrwt>
</event>
<event>
 6    1  0.1072514E-005  0.1757997E+04  0.7818608E-02  0.8728961E-01
          2   -1    0    0  501    0  0.00000000000E+00  0.00000000000E+00  0.10881223339E+04  0.10881223339E+04  0.00000000000E+00 0. -1.
         -2   -1    0    0    0  501 -0.00000000000E+00 -0.00000000000E+00 -0.71006531662E+03  0.71006531662E+03  0.00000000000E+00 0.  1.
         23    2    1    2    0    0 -0.58931433103E+03  0.18010125264E+03  0.82727846062E+03  0.10356079844E+04  0.91468048946E+02 0.  0.
         13    1    3    3    0    0 -0.40956884035E+03  0.15888777029E+03  0.54083624979E+03  0.69677529205E+03  0.00000000000E+00 0.  1.
        -13    1    3    3    0    0 -0.17974549068E+03  0.21213482357E+02  0.28644221083E+03  0.33883269234E+03  0.00000000000E+00 0. -1.
         22    1    1    2    0    0  0.58931433103E+03 -0.18010125264E+03 -0.44922144336E+03  0.76257966610E+03  0.00000000000E+00 0.  1.
<mgrwt>
<rscale>  0 0.17579965E+04</rscale>
<asrwt>0</asrwt>
<pdfrwt beam="1">  1        2 0.16740344E+00 0.17579965E+04</pdfrwt>
<pdfrwt beam="2">  1       -2 0.10924082E+00 0.17579965E+04</pdfrwt>
<totfact> 0.14025572E+01</totfact>
</mgrwt>
</event>
<event>
 6    1  0.1072514E-005  0.3098338E+04  0.7818608E-02  0.8216194E-01
          2   -1    0    0  501    0  0.00000000000E+00  0.00000000000E+00  0.13697337294E+04  0.13697337294E+04  0.00000000000E+00 0. -1.
         -2   -1    0    0    0  501 -0.00000000000E+00 -0.00000000000E+00 -0.17521099815E+04  0.17521099815E+04  0.00000000000E+00 0.  1.
         23    2    1    2    0    0  0.12865812635E+03  0.93900181778E+03  0.10415069676E+04  0.14113698729E+04  0.94608812726E+02 0.  0.
         13    1    3    3    0    0  0.73037670640E+02  0.74275883302E+03  0.77746111458E+03  0.10777156258E+04  0.00000000000E+00 0.  1.
        -13    1    3    3    0    0  0.55620455714E+02  0.19624298476E+03  0.26404585299E+03  0.33365424716E+03  0.00000000000E+00 0. -1.
         22    1    1    2    0    0 -0.12865812635E+03 -0.93900181778E+03 -0.14238832197E+04  0.17104738380E+04  0.00000000000E+00 0.  1.
<mgrwt>
<rscale>  0 0.30983377E+04</rscale>
<asrwt>0</asrwt>
<pdfrwt beam="1">  1        2 0.21072827E+00 0.30983377E+04</pdfrwt>
<pdfrwt beam="2">  1       -2 0.26955538E+00 0.30983377E+04</pdfrwt>
<totfact> 0.62374201E-01</totfact>
</mgrwt>
</event>
<event>
 6    1  0.1072514E-005  0.1683749E+04  0.7818608E-02  0.8770687E-01
          2   -1    0    0  501    0  0.00000000000E+00  0.00000000000E+00  0.25306588657E+04  0.25306588657E+04  0.00000000000E+00 0. -1.
         -2   -1    0    0    0  501 -0.00000000000E+00 -0.00000000000E+00 -0.28006659089E+03  0.28006659089E+03  0.00000000000E+00 0.  1.
         23    2    1    2    0    0  0.61678502041E+03  0.42518063133E+03  0.17607263662E+04  0.19156439301E+04  0.91279787699E+02 0.  0.
         13    1    3    3    0    0  0.34567660258E+03  0.18370267959E+03  0.89383220256E+03  0.97579454517E+03  0.00000000000E+00 0. -1.
        -13    1    3    3    0    0  0.27110841784E+03  0.24147795174E+03  0.86689416362E+03  0.93984938491E+03  0.00000000000E+00 0.  1.
         22    1    1    2    0    0 -0.61678502041E+03 -0.42518063133E+03  0.48986590862E+03  0.89508152650E+03  0.00000000000E+00 0.  1.
<mgrwt>
<rscale>  0 0.16837494E+04</rscale>
<asrwt>0</asrwt>
<pdfrwt beam="1">  1        2 0.38933212E+00 0.16837494E+04</pdfrwt>
<pdfrwt beam="2">  1       -2 0.43087169E-01 0.16837494E+04</pdfrwt>
<totfact> 0.16287921E+01</totfact>
</mgrwt>
</event>
<event>
 6    1  0.1072514E-005  0.1869745E+04  0.7818608E-02  0.8670065E-01
          1   -1    0    0  501    0  0.00000000000E+00  0.00000000000E+00  0.13463932698E+04  0.13463932698E+04  0.00000000000E+00 0. -1.
         -1   -1    0    0    0  501 -0.00000000000E+00 -0.00000000000E+00 -0.64913159543E+03  0.64913159543E+03  0.00000000000E+00 0.  1.
         23    2    1    2    0    0  0.56651272405E+03 -0.23777514780E+02 -0.44107942035E+03  0.72378492144E+03  0.88382807861E+02 0.  0.
         11    1    3    3    0    0  0.26097923694E+03 -0.27447942982E+02 -0.15258603696E+03  0.30355567918E+03  0.00000000000E+00 0. -1.
        -11    1    3    3    0    0  0.30553348711E+03  0.36704282021E+01 -0.28849338339E+03  0.42022924226E+03  0.00000000000E+00 0.  1.
         22    1    1    2    0    0 -0.56651272405E+03  0.23777514780E+02  0.11383410947E+04  0.12717399438E+04  0.00000000000E+00 0. -1.
<mgrwt>
<rscale>  0 0.18697448E+04</rscale>
<asrwt>0</asrwt>
<pdfrwt beam="1">  1        1 0.20713743E+00 0.18697448E+04</pdfrwt>
<pdfrwt beam="2">  1       -1 0.99866399E-01 0.18697448E+04</pdfrwt>
<totfact> 0.75177950E+00</totfact>
</mgrwt>
</event>
<event>
 6    1  0.1862347E-005  0.3627696E+04  0.7818608E-02  0.8084177E-01
          2   -1    0    0  501    0  0.00000000000E+00  0.00000000000E+00  0.20611729549E+04  0.20611729549E+04  0.00000000000E+00 0.  1.
         -2   -1    0    0    0  501 -0.00000000000E+00 -0.00000000000E+00 -0.15961999776E+04  0.15961999776E+04  0.00000000000E+00 0. -1.
         23    2    1    2    0    0  0.10246066123E+03 -0.51063716498E+03  0.19831160685E+04  0.20523785566E+04  0.90883977181E+02 0.  0.
         11    1    3    3    0    0  0.63790931826E+02 -0.28833796596E+03  0.12937205663E+04  0.13269969741E+04  0.00000000000E+00 0. -1.
        -11    1    3    3    0    0  0.38669729408E+02 -0.22229919901E+03  0.68939550218E+03  0.72538158254E+03  0.00000000000E+00 0.  1.
         22    1    1    2    0    0 -0.10246066123E+03  0.51063716498E+03 -0.15181430912E+04  0.16049943759E+04  0.00000000000E+00 0. -1.
<mgrwt>
<rscale>  0 0.36276958E+04</rscale>
<asrwt>0</asrwt>
<pdfrwt beam="1">  1        2 0.31710353E+00 0.36276958E+04</pdfrwt>
<pdfrwt beam="2">  1       -2 0.24556923E+00 0.36276958E+04</pdfrwt>
<totfact> 0.34374768E-01</totfact>
</mgrwt>
</event>
<event>
 6    1  0.1072514E-005  0.3182149E+04  0.7818608E-02  0.8193548E-01
         -2   -1    0    0    0  501 -0.00000000000E+00  0.00000000000E+00  0.10713757347E+04  0.10713757347E+04  0.00000000000E+00 0.  1.
          2   -1    0    0  501    0  0.00000000000E+00 -0.00000000000E+00 -0.23628665502E+04  0.23628665502E+04  0.00000000000E+00 0. -1.
         23    2    1    2    0    0 -0.89714901245E+03 -0.82179873093E+03 -0.17504491898E+04  0.21339068305E+04  0.96210657843E+02 0.  0.
         13    1    3    3    0    0 -0.50557961516E+03 -0.51939929782E+03 -0.10006662822E+04  0.12356048665E+04  0.00000000000E+00 0.  1.
        -13    1    3    3    0    0 -0.39156939729E+03 -0.30239943310E+03 -0.74978290760E+03  0.89830196402E+03  0.00000000000E+00 0. -1.
         22    1    1    2    0    0  0.89714901245E+03  0.82179873093E+03  0.45895837422E+03  0.13003354544E+04  0.00000000000E+00 0.  1.
<mgrwt>
<rscale>  0 0.31821489E+04</rscale>
<asrwt>0</asrwt>
<pdfrwt beam="1">  1        2 0.36351793E+00 0.31821489E+04</pdfrwt>
<pdfrwt beam="2">  1       -2 0.16482704E+00 0.31821489E+04</pdfrwt>
<totfact> 0.81738210E-01</totfact>
</mgrwt>
</event>
<event>
 6    1  0.1072514E-005  0.2701250E+04  0.7818608E-02  0.8334600E-01
         -1   -1    0    0    0  501 -0.00000000000E+00  0.00000000000E+00  0.73625455734E+03  0.73625455734E+03  0.00000000000E+00 0.  1.
          1   -1    0    0  501    0  0.00000000000E+00 -0.00000000000E+00 -0.24776584421E+04  0.24776584421E+04  0.00000000000E+00 0. -1.
         23    2    1    2    0    0 -0.75865358687E+03  0.85948637912E+03 -0.17179975225E+04  0.20672570098E+04  0.88113316120E+02 0.  0.
         11    1    3    3    0    0 -0.45132011684E+03  0.48653094506E+03 -0.10658658144E+04  0.12555764185E+04  0.00000000000E+00 0. -1.
        -11    1    3    3    0    0 -0.30733347003E+03  0.37295543405E+03 -0.65213170812E+03  0.81168059132E+03  0.00000000000E+00 0.  1.
         22    1    1    2    0    0  0.75865358687E+03 -0.85948637912E+03 -0.23406362247E+02  0.11466559896E+04  0.00000000000E+00 0.  1.
<mgrwt>
<rscale>  0 0.27012496E+04</rscale>
<asrwt>0</asrwt>
<pdfrwt beam="1">  1        1 0.38117821E+00 0.27012496E+04</pdfrwt>
<pdfrwt beam="2">  1       -1 0.11326993E+00 0.27012496E+04</pdfrwt>
<totfact> 0.87211193E-01</totfact>
</mgrwt>
</event>
<event>
 6    1  0.1072514E-005  0.2981862E+04  0.7818608E-02  0.8248929E-01
         -2   -1    0    0    0  501 -0.00000000000E+00  0.00000000000E+00  0.56601269716E+03  0.56601269716E+03  0.00000000000E+00 0. -1.
          2   -1    0    0  501    0  0.00000000000E+00 -0.00000000000E+00 -0.39272541379E+04  0.39272541379E+04  0.00000000000E+00 0.  1.
         23    2    1    2    0    0  0.90711913330E+03  0.11773151538E+04 -0.18324795781E+04  0.23611202814E+04  0.89283177712E+02 0.  0.
         13    1    3    3    0    0  0.19948874839E+03  0.30741059595E+03 -0.49098059039E+03  0.61266546776E+03  0.00000000000E+00 0.  1.
        -13    1    3    3    0    0  0.70763038491E+03  0.86990455788E+03 -0.13414989877E+04  0.17484548137E+04  0.00000000000E+00 0. -1.
         22    1    1    2    0    0 -0.90711913330E+03 -0.11773151538E+04 -0.15287618626E+04  0.21321465536E+04  0.00000000000E+00 0. -1.
<mgrwt>
<rscale>  0 0.29818623E+04</rscale>
<asrwt>0</asrwt>
<pdfrwt beam="1">  1        2 0.60419296E+00 0.29818623E+04</pdfrwt>
<pdfrwt beam="2">  1       -2 0.87078874E-01 0.29818623E+04</pdfrwt>
<totfact> 0.38220678E-01</totfact>
</mgrwt>
</event>
<event>
 6    1  0.1072514E-005  0.2059395E+04  0.7818608E-02  0.8579344E-01
         -2   -1    0    0    0  501 -0.00000000000E+00  0.00000000000E+00  0.13730185340E+04  0.13730185340E+04  0.00000000000E+00 0.  1.
          2   -1    0    0  501    0  0.00000000000E+00 -0.00000000000E+00 -0.77222303422E+03  0.77222303422E+03  0.00000000000E+00 0. -1.
         23    2    1    2    0    0 -0.77271503635E+03  0.62648148732E+03  0.56990972987E+03  0.11499920959E+04  0.90095166700E+02 0.  0.
         13    1    3    3    0    0 -0.33509678561E+03  0.32719100785E+03  0.28198386618E+03  0.54667971622E+03  0.00000000000E+00 0.  1.
        -13    1    3    3    0    0 -0.43761825075E+03  0.29929047947E+03  0.28792586370E+03  0.60331237968E+03  0.00000000000E+00 0. -1.
         22    1    1    2    0    0  0.77271503635E+03 -0.62648148732E+03  0.30885769903E+02  0.99524947231E+03  0.00000000000E+00 0. -1.
<mgrwt>
<rscale>  0 0.20593946E+04</rscale>
<asrwt>0</asrwt>
<pdfrwt beam="1">  1        2 0.11880354E+00 0.20593946E+04</pdfrwt>
<pdfrwt beam="2">  1       -2 0.21123362E+00 0.20593946E+04</pdfrwt>
<totfact> 0.37505098E+00</totfact>
</mgrwt>
</event>
<event>
 6    1  0.1072514E-005  0.9195540E+03  0.7818608E-02  0.9401463E-01
          2   -1    0    0  501    0  0.00000000000E+00  0.00000000000E+00  0.36033895688E+03  0.36033895688E+03  0.00000000000E+00 0.  1.
         -2   -1    0    0    0  501 -0.00000000000E+00 -0.00000000000E+00 -0.58665566371E+03  0.58665566371E+03  0.00000000000E+00 0. -1.
         23    2    1    2    0    0 -0.14792576814E+03 -0.47393072532E+02 -0.55505258017E+03  0.58340775253E+03  0.90294533306E+02 0.  0.
         13    1    3    3    0    0 -0.13721760022E+03 -0.43133319583E+02 -0.35513043379E+03  0.38315372642E+03  0.00000000000E+00 0.  1.
        -13    1    3    3    0    0 -0.10708167923E+02 -0.42597529489E+01 -0.19992214639E+03  0.20025402610E+03  0.00000000000E+00 0. -1.
         22    1    1    2    0    0  0.14792576814E+03  0.47393072532E+02  0.32873587334E+03  0.36358686806E+03  0.00000000000E+00 0.  1.
<mgrwt>
<rscale>  0 0.91955400E+03</rscale>
<asrwt>0</asrwt>
<pdfrwt beam="1">  1        2 0.55436763E-01 0.91955400E+03</pdfrwt>
<pdfrwt beam="2">  1       -2 0.90254717E-01 0.91955400E+03</pdfrwt>
<totfact> 0.94171737E+01</totfact>
</mgrwt>
</event>
<event>
 6    1  0.1072514E-005  0.3049730E+04  0.7818608E-02  0.8229671E-01
          2   -1    0    0  501    0  0.00000000000E+00  0.00000000000E+00  0.11689044003E+04  0.11689044003E+04  0.00000000000E+00 0. -1.
         -2   -1    0    0    0  501 -0.00000000000E+00 -0.00000000000E+00 -0.19892245725E+04  0.19892245725E+04  0.00000000000E+00 0.  1.
         23    2    1    2    0    0 -0.10566739326E+04 -0.27697988963E+03 -0.15101103388E+04  0.18661970345E+04  0.94765379903E+02 0.  0.
         11    1    3    3    0    0 -0.53770532101E+03 -0.10505749734E+03 -0.81074481725E+03  0.97850459820E+03  0.00000000000E+00 0. -1.
        -11    1    3    3    0    0 -0.51896861161E+03 -0.17192239229E+03 -0.69936552151E+03  0.88769243630E+03  0.00000000000E+00 0.  1.
         22    1    1    2    0    0  0.10566739326E+04  0.27697988963E+03  0.68979016662E+03  0.12919319383E+04  0.00000000000E+00 0. -1.
<mgrwt>
<rscale>  0 0.30497301E+04</rscale>
<asrwt>0</asrwt>
<pdfrwt beam="1">  1        2 0.17983145E+00 0.30497301E+04</pdfrwt>
<pdfrwt beam="2">  1       -2 0.30603455E+00 0.30497301E+04</pdfrwt>
<totfact> 0.49199706E-01</totfact>
</mgrwt>
</event>
<event>
 6    1  0.1072514E-005  0.4328787E+04  0.7818608E-02  0.7941316E-01
          1   -1    0    0  501    0  0.00000000000E+00  0.00000000000E+00  0.25655131260E+04  0.25655131260E+04  0.00000000000E+00 0. -1.
         -1   -1    0    0    0  501 -0.00000000000E+00 -0.00000000000E+00 -0.18259891635E+04  0.18259891635E+04  0.00000000000E+00 0.  1.
         23    2    1    2    0    0 -0.63181607520E+03  0.67908522758E+03  0.23528427748E+04  0.25305493375E+04  0.86385922629E+02 0.  0.
         13    1    3    3    0    0 -0.10419452799E+03  0.12169312134E+03  0.49978773116E+03  0.52483663330E+03  0.00000000000E+00 0.  1.
        -13    1    3    3    0    0 -0.52762154721E+03  0.55739210624E+03  0.18530550436E+04  0.20057127042E+04  0.00000000000E+00 0. -1.
         22    1    1    2    0    0  0.63181607520E+03 -0.67908522758E+03 -0.16133188123E+04  0.18609529519E+04  0.00000000000E+00 0.  1.
<mgrwt>
<rscale>  0 0.43287870E+04</rscale>
<asrwt>0</asrwt>
<pdfrwt beam="1">  1        1 0.39469433E+00 0.43287870E+04</pdfrwt>
<pdfrwt beam="2">  1       -1 0.28092141E+00 0.43287870E+04</pdfrwt>
<totfact> 0.40800380E-02</totfact>
</mgrwt>
</event>
<event>
 6    1  0.1072514E-005  0.2048043E+04  0.7818608E-02  0.8584483E-01
          2   -1    0    0  501    0  0.00000000000E+00  0.00000000000E+00  0.18979357247E+04  0.18979357247E+04  0.00000000000E+00 0. -1.
         -2   -1    0    0    0  501 -0.00000000000E+00 -0.00000000000E+00 -0.55250572013E+03  0.55250572013E+03  0.00000000000E+00 0.  1.
         23    2    1    2    0    0 -0.68944917387E+03 -0.16362482072E+03 -0.20707660362E+03  0.74386885224E+03  0.91361393681E+02 0.  0.
         11    1    3    3    0    0 -0.16236337401E+03 -0.72551687675E+02 -0.74344371090E+02  0.19275035180E+03  0.00000000000E+00 0. -1.
        -11    1    3    3    0    0 -0.52708579986E+03 -0.91073133044E+02 -0.13273223253E+03  0.55111850044E+03  0.00000000000E+00 0.  1.
         22    1    1    2    0    0  0.68944917387E+03  0.16362482072E+03  0.15525066082E+04  0.17065725926E+04  0.00000000000E+00 0. -1.
<mgrwt>
<rscale>  0 0.20480433E+04</rscale>
<asrwt>0</asrwt>
<pdfrwt beam="1">  1        2 0.29199011E+00 0.20480433E+04</pdfrwt>
<pdfrwt beam="2">  1       -2 0.85000881E-01 0.20480433E+04</pdfrwt>
<totfact> 0.84888937E+00</totfact>
</mgrwt>
</event>
<event>
 6    1  0.1072514E-005  0.8834707E+03  0.7818608E-02  0.9446483E-01
          1   -1    0    0  501    0  0.00000000000E+00  0.00000000000E+00  0.85216520993E+03  0.85216520993E+03  0.00000000000E+00 0. -1.
         -1   -1    0    0    0  501 -0.00000000000E+00 -0.00000000000E+00 -0.22898157331E+03  0.22898157331E+03  0.00000000000E+00 0.  1.
         23    2    1    2    0    0  0.29865503234E+03 -0.27879990831E+03  0.50534589444E+03  0.65592924985E+03  0.89131871801E+02 0.  0.
         11    1    3    3    0    0  0.22117438313E+03 -0.23527537664E+03  0.34459019416E+03  0.47224465325E+03  0.00000000000E+00 0.  1.
        -11    1    3    3    0    0  0.77480649202E+02 -0.43524531668E+02  0.16075570028E+03  0.18368459661E+03  0.00000000000E+00 0. -1.
         22    1    1    2    0    0 -0.29865503234E+03  0.27879990831E+03  0.11783774218E+03  0.42521753338E+03  0.00000000000E+00 0.  1.
<mgrwt>
<rscale>  0 0.88347073E+03</rscale>
<asrwt>0</asrwt>
<pdfrwt beam="1">  1        1 0.13110234E+00 0.88347073E+03</pdfrwt>
<pdfrwt beam="2">  1       -1 0.35227935E-01 0.88347073E+03</pdfrwt>
<totfact> 0.15405073E+02</totfact>
</mgrwt>
</event>
<event>
 6    1  0.1072514E-005  0.2201735E+04  0.7818608E-02  0.8517706E-01
          1   -1    0    0  501    0  0.00000000000E+00  0.00000000000E+00  0.16028897439E+04  0.16028897439E+04  0.00000000000E+00 0. -1.
         -1   -1    0    0    0  501 -0.00000000000E+00 -0.00000000000E+00 -0.75607773290E+03  0.75607773290E+03  0.00000000000E+00 0.  1.
         23    2    1    2    0    0  0.60828614121E+03 -0.71661358311E+03 -0.18529606617E+03  0.96297530632E+03  0.97158382865E+02 0.  0.
         11    1    3    3    0    0  0.20542813960E+03 -0.23124265739E+03 -0.15287828501E+02  0.30968952975E+03  0.00000000000E+00 0. -1.
        -11    1    3    3    0    0  0.40285800160E+03 -0.48537092571E+03 -0.17000823767E+03  0.65328577656E+03  0.00000000000E+00 0.  1.
         22    1    1    2    0    0 -0.60828614121E+03  0.71661358311E+03  0.10321080771E+04  0.13959921704E+04  0.00000000000E+00 0. -1.
<mgrwt>
<rscale>  0 0.22017350E+04</rscale>
<asrwt>0</asrwt>
<pdfrwt beam="1">  1        1 0.24659842E+00 0.22017350E+04</pdfrwt>
<pdfrwt beam="2">  1       -1 0.11631965E+00 0.22017350E+04</pdfrwt>
<totfact> 0.33813006E+00</totfact>
</mgrwt>
</event>
<event>
 6    1  0.1072514E-005  0.9558195E+03  0.7818608E-02  0.9358374E-01
         -2   -1    0    0    0  501 -0.00000000000E+00  0.00000000000E+00  0.10377591877E+04  0.10377591877E+04  0.00000000000E+00 0.  1.
          2   -1    0    0  501    0  0.00000000000E+00 -0.00000000000E+00 -0.22008741332E+03  0.22008741332E+03  0.00000000000E+00 0. -1.
         23    2    1    2    0    0  0.35636748163E+03 -0.29780241626E+01  0.82307639774E+03  0.90142569740E+03  0.90038218592E+02 0.  0.
         11    1    3    3    0    0  0.46010517110E+02 -0.72087901772E+00  0.20129673564E+03  0.20648937776E+03  0.00000000000E+00 0.  1.
        -11    1    3    3    0    0  0.31035696452E+03 -0.22571451449E+01  0.62177966211E+03  0.69493631963E+03  0.00000000000E+00 0. -1.
         22    1    1    2    0    0 -0.35636748163E+03  0.29780241626E+01 -0.54046233635E+01  0.35642090363E+03  0.00000000000E+00 0. -1.
<mgrwt>
<rscale>  0 0.95581951E+03</rscale>
<asrwt>0</asrwt>
<pdfrwt beam="1">  1        2 0.33859603E-01 0.95581951E+03</pdfrwt>
<pdfrwt beam="2">  1       -2 0.15965526E+00 0.95581951E+03</pdfrwt>
<totfact> 0.39349105E+01</totfact>
</mgrwt>
</event>
<event>
 6    1  0.1072514E-005  0.2854138E+04  0.7818608E-02  0.8286655E-01
         -2   -1    0    0    0  501 -0.00000000000E+00  0.00000000000E+00  0.23210097628E+04  0.23210097628E+04  0.00000000000E+00 0.  1.
          2   -1    0    0  501    0  0.00000000000E+00 -0.00000000000E+00 -0.87743114375E+03  0.87743114375E+03  0.00000000000E+00 0. -1.
         23    2    1    2    0    0  0.86093697501E+03 -0.78429875487E+03  0.16438263117E+04  0.20167319109E+04  0.93304050194E+02 0.  0.
         13    1    3    3    0    0  0.32469367318E+03 -0.33212583090E+03  0.59178063000E+03  0.75228841743E+03  0.00000000000E+00 0. -1.
        -13    1    3    3    0    0  0.53624330183E+03 -0.45217292396E+03  0.10520456817E+04  0.12644434935E+04  0.00000000000E+00 0.  1.
         22    1    1    2    0    0 -0.86093697501E+03  0.78429875487E+03 -0.20024769265E+03  0.11817089956E+04  0.00000000000E+00 0. -1.
<mgrwt>
<rscale>  0 0.28541382E+04</rscale>
<asrwt>0</asrwt>
<pdfrwt beam="1">  1        2 0.13498941E+00 0.28541382E+04</pdfrwt>
<pdfrwt beam="2">  1       -2 0.35707842E+00 0.28541382E+04</pdfrwt>
<totfact> 0.36931177E-01</totfact>
</mgrwt>
</event>
<event>
 6    1  0.1072514E-005  0.1508831E+04  0.7818608E-02  0.8878602E-01
         -2   -1    0    0    0  501 -0.00000000000E+00  0.00000000000E+00  0.32861864398E+03  0.32861864398E+03  0.00000000000E+00 0.  1.
          2   -1    0    0  501    0  0.00000000000E+00 -0.00000000000E+00 -0.17319239944E+04  0.17319239944E+04  0.00000000000E+00 0. -1.
         23    2    1    2    0    0 -0.28781153876E+03 -0.22740188348E+03 -0.16002012225E+04  0.16442313571E+04  0.91135638342E+02 0.  0.
         11    1    3    3    0    0 -0.13006790941E+03 -0.47214008252E+02 -0.56731498208E+03  0.58394615551E+03  0.00000000000E+00 0.  1.
        -11    1    3    3    0    0 -0.15774362934E+03 -0.18018787523E+03 -0.10328862405E+04  0.10602852016E+04  0.00000000000E+00 0. -1.
         22    1    1    2    0    0  0.28781153876E+03  0.22740188348E+03  0.19689587213E+03  0.41631128127E+03  0.00000000000E+00 0.  1.
<mgrwt>
<rscale>  0 0.15088307E+04</rscale>
<asrwt>0</asrwt>
<pdfrwt beam="1">  1        2 0.26644984E+00 0.15088307E+04</pdfrwt>
<pdfrwt beam="2">  1       -2 0.50556715E-01 0.15088307E+04</pdfrwt>
<totfact> 0.33623792E+01</totfact>
</mgrwt>
</event>
<event>
 6    1  0.1072514E-005  0.6229770E+03  0.7818608E-02  0.9858850E-01
          2   -1    0    0  501    0  0.00000000000E+00  0.00000000000E+00  0.13905393931E+04  0.13905393931E+04  0.00000000000E+00 0.  1.
         -2   -1    0    0    0  501 -0.00000000000E+00 -0.00000000000E+00 -0.69775143373E+02  0.69775143373E+02  0.00000000000E+00 0. -1.
         23    2    1    2    0    0 -0.24543276678E+02  0.46695963017E+02  0.13782759399E+04  0.13822730097E+04  0.90836234667E+02 0.  0.
         11    1    3    3    0    0 -0.10618848442E+02 -0.27009143760E+02  0.47643009094E+03  0.47731319418E+03  0.00000000000E+00 0. -1.
        -11    1    3    3    0    0 -0.13924428236E+02  0.73705106777E+02  0.90184584892E+03  0.90495981551E+03  0.00000000000E+00 0.  1.
         22    1    1    2    0    0  0.24543276678E+02 -0.46695963017E+02 -0.57511690165E+02  0.78041526752E+02  0.00000000000E+00 0. -1.
<mgrwt>
<rscale>  0 0.62297700E+03</rscale>
<asrwt>0</asrwt>
<pdfrwt beam="1">  1        2 0.21392912E+00 0.62297700E+03</pdfrwt>
<pdfrwt beam="2">  1       -2 0.10734639E-01 0.62297700E+03</pdfrwt>
<totfact> 0.90965493E+02</totfact>
</mgrwt>
</event>
<event>
 6    1  0.1072514E-005  0.4099457E+04  0.7818608E-02  0.7984778E-01
          1   -1    0    0  501    0  0.00000000000E+00  0.00000000000E+00  0.28328499106E+04  0.28328499106E+04  0.00000000000E+00 0. -1.
         -1   -1    0    0    0  501 -0.00000000000E+00 -0.00000000000E+00 -0.14830951920E+04  0.14830951920E+04  0.00000000000E+00 0.  1.
         23    2    1    2    0    0 -0.38916145810E+03  0.80151286307E+03  0.26174429724E+04  0.27664603433E+04  0.91791106583E+02 0.  0.
         13    1    3    3    0    0 -0.13696825419E+03  0.19007335800E+03  0.67660708362E+03  0.71602048133E+03  0.00000000000E+00 0. -1.
        -13    1    3    3    0    0 -0.25219320391E+03  0.61143950507E+03  0.19408358888E+04  0.20504398620E+04  0.00000000000E+00 0.  1.
         22    1    1    2    0    0  0.38916145810E+03 -0.80151286307E+03 -0.12676882538E+04  0.15494847592E+04  0.00000000000E+00 0.  1.
<mgrwt>
<rscale>  0 0.40994566E+04</rscale>
<asrwt>0</asrwt>
<pdfrwt beam="1">  1        1 0.43582306E+00 0.40994566E+04</pdfrwt>
<pdfrwt beam="2">  1       -1 0.22816849E+00 0.40994566E+04</pdfrwt>
<totfact> 0.59485424E-02</totfact>
</mgrwt>
</event>
<event>
 6    1  0.1072514E-005  0.1168876E+04  0.7818608E-02  0.9140544E-01
         -2   -1    0    0    0  501 -0.00000000000E+00  0.00000000000E+00  0.16797149168E+04  0.16797149168E+04  0.00000000000E+00 0.  1.
          2   -1    0    0  501    0  0.00000000000E+00 -0.00000000000E+00 -0.20334861116E+03  0.20334861116E+03  0.00000000000E+00 0. -1.
         23    2    1    2    0    0 -0.39722956086E+03 -0.17910781309E+03  0.13614050344E+04  0.14324117482E+04  0.92243243674E+02 0.  0.
         13    1    3    3    0    0 -0.21239805508E+03 -0.13148441238E+03  0.66665028230E+03  0.71191550298E+03  0.00000000000E+00 0. -1.
        -13    1    3    3    0    0 -0.18483150578E+03 -0.47623400709E+02  0.69475475208E+03  0.72049624521E+03  0.00000000000E+00 0.  1.
         22    1    1    2    0    0  0.39722956086E+03  0.17910781309E+03  0.11496127127E+03  0.45065177978E+03  0.00000000000E+00 0. -1.
<mgrwt>
<rscale>  0 0.11688759E+04</rscale>
<asrwt>0</asrwt>
<pdfrwt beam="1">  1        2 0.31284403E-01 0.11688759E+04</pdfrwt>
<pdfrwt beam="2">  1       -2 0.25841767E+00 0.11688759E+04</pdfrwt>
<totfact> 0.96188246E+00</totfact>
</mgrwt>
</event>
<event>
 6    1  0.1072514E-005  0.1453978E+04  0.7818608E-02  0.8915647E-01
          1   -1    0    0  501    0  0.00000000000E+00  0.00000000000E+00  0.19383401138E+04  0.19383401138E+04  0.00000000000E+00 0. -1.
         -1   -1    0    0    0  501 -0.00000000000E+00 -0.00000000000E+00 -0.27266263807E+03  0.27266263807E+03  0.00000000000E+00 0.  1.
         23    2    1    2    0    0  0.27905027028E+03 -0.64979892098E+03  0.10744249802E+04  0.12892179589E+04  0.87098889057E+02 0.  0.
         13    1    3    3    0    0  0.17522963929E+03 -0.44798251665E+03  0.79541253653E+03  0.92955627317E+03  0.00000000000E+00 0. -1.
        -13    1    3    3    0    0  0.10382063100E+03 -0.20181640433E+03  0.27901244362E+03  0.35966168572E+03  0.00000000000E+00 0.  1.
         22    1    1    2    0    0 -0.27905027028E+03  0.64979892098E+03  0.59125249555E+03  0.92178479297E+03  0.00000000000E+00 0.  1.
<mgrwt>
<rscale>  0 0.14539779E+04</rscale>
<asrwt>0</asrwt>
<pdfrwt beam="1">  1        1 0.29820616E+00 0.14539779E+04</pdfrwt>
<pdfrwt beam="2">  1       -1 0.41948099E-01 0.14539779E+04</pdfrwt>
<totfact> 0.17789923E+01</totfact>
</mgrwt>
</event>
<event>
 6    1  0.1072514E-005  0.6696733E+03  0.7818608E-02  0.9770548E-01
          2   -1    0    0  501    0  0.00000000000E+00  0.00000000000E+00  0.18144149702E+04  0.18144149702E+04  0.00000000000E+00 0. -1.
         -2   -1    0    0    0  501 -0.00000000000E+00 -0.00000000000E+00 -0.61791586714E+02  0.61791586714E+02  0.00000000000E+00 0.  1.
         23    2    1    2    0    0  0.47850804739E+02  0.24362969043E+03  0.14935347887E+04  0.15173583641E+04  0.10042466971E+03 0.  0.
         13    1    3    3    0    0  0.83757201973E+01  0.11962510914E+03  0.44861073348E+03  0.46436183050E+03  0.00000000000E+00 0.  1.
        -13    1    3    3    0    0  0.39475084541E+02  0.12400458129E+03  0.10449240553E+04  0.10529965336E+04  0.00000000000E+00 0. -1.
         22    1    1    2    0    0 -0.47850804739E+02 -0.24362969043E+03  0.25908859473E+03  0.35884819283E+03  0.00000000000E+00 0.  1.
<mgrwt>
<rscale>  0 0.66967329E+03</rscale>
<asrwt>0</asrwt>
<pdfrwt beam="1">  1        2 0.27914072E+00 0.66967329E+03</pdfrwt>
<pdfrwt beam="2">  1       -2 0.95063993E-02 0.66967329E+03</pdfrwt>
<totfact> 0.64648147E+02</totfact>
</mgrwt>
</event>
<event>
 6    1  0.1072514E-005  0.2185250E+04  0.7818608E-02  0.8524593E-01
          3   -1    0    0  501    0  0.00000000000E+00  0.00000000000E+00  0.50413884966E+03  0.50413884966E+03  0.00000000000E+00 0. -1.
         -3   -1    0    0    0  501 -0.00000000000E+00 -0.00000000000E+00 -0.23680566634E+04  0.23680566634E+04  0.00000000000E+00 0.  1.
         23    2    1    2    0    0 -0.34869386801E+03 -0.90005107434E+03 -0.26601248736E+03  0.10053851901E+04  0.91418744985E+02 0.  0.
         13    1    3    3    0    0 -0.97276206011E+02 -0.31238329922E+03 -0.51792694466E+02  0.33125287785E+03  0.00000000000E+00 0. -1.
        -13    1    3    3    0    0 -0.25141766200E+03 -0.58766777513E+03 -0.21421979289E+03  0.67413231220E+03  0.00000000000E+00 0.  1.
         22    1    1    2    0    0  0.34869386801E+03  0.90005107434E+03 -0.15979053264E+04  0.18668103230E+04  0.00000000000E+00 0.  1.
<mgrwt>
<rscale>  0 0.21852500E+04</rscale>
<asrwt>0</asrwt>
<pdfrwt beam="1">  1        3 0.77559822E-01 0.21852500E+04</pdfrwt>
<pdfrwt beam="2">  1       -3 0.36431641E+00 0.21852500E+04</pdfrwt>
<totfact> 0.62150295E-02</totfact>
</mgrwt>
</event>
<event>
 6    1  0.1072514E-005  0.1377047E+04  0.7818608E-02  0.8970603E-01
         -2   -1    0    0    0  501 -0.00000000000E+00  0.00000000000E+00  0.30264230409E+03  0.30264230409E+03  0.00000000000E+00 0.  1.
          2   -1    0    0  501    0  0.00000000000E+00 -0.00000000000E+00 -0.15664188528E+04  0.15664188528E+04  0.00000000000E+00 0. -1.
         23    2    1    2    0    0  0.15816095898E+03  0.21223827832E+03  0.22366080288E+03  0.35825678483E+03  0.90905409114E+02 0.  0.
         13    1    3    3    0    0  0.42587220929E+02  0.12366121577E+03  0.13402752498E+03  0.18726757627E+03  0.00000000000E+00 0. -1.
        -13    1    3    3    0    0  0.11557373805E+03  0.88577062552E+02  0.89633277900E+02  0.17098920856E+03  0.00000000000E+00 0.  1.
         22    1    1    2    0    0 -0.15816095898E+03 -0.21223827832E+03 -0.14874373516E+04  0.15108043720E+04  0.00000000000E+00 0. -1.
<mgrwt>
<rscale>  0 0.13770470E+04</rscale>
<asrwt>0</asrwt>
<pdfrwt beam="1">  1        2 0.24098752E+00 0.13770470E+04</pdfrwt>
<pdfrwt beam="2">  1       -2 0.46560354E-01 0.13770470E+04</pdfrwt>
<totfact> 0.49640005E+01</totfact>
</mgrwt>
</event>
<event>
 6    1  0.1072514E-005  0.1574361E+04  0.7818608E-02  0.8836456E-01
         -1   -1    0    0    0  501 -0.00000000000E+00  0.00000000000E+00  0.27123748804E+03  0.27123748804E+03  0.00000000000E+00 0.  1.
          1   -1    0    0  501    0  0.00000000000E+00 -0.00000000000E+00 -0.22845404183E+04  0.22845404183E+04  0.00000000000E+00 0. -1.
         23    2    1    2    0    0  0.29754831296E+03  0.64916074371E+03 -0.48236151548E+03  0.86648033481E+03  0.90392860815E+02 0.  0.
         11    1    3    3    0    0  0.13641580387E+03  0.20775499452E+03 -0.14175411388E+03  0.28612171902E+03  0.00000000000E+00 0. -1.
        -11    1    3    3    0    0  0.16113250909E+03  0.44140574919E+03 -0.34060740160E+03  0.58035861579E+03  0.00000000000E+00 0.  1.
         22    1    1    2    0    0 -0.29754831296E+03 -0.64916074371E+03 -0.15309414148E+04  0.16892975715E+04  0.00000000000E+00 0. -1.
<mgrwt>
<rscale>  0 0.15743608E+04</rscale>
<asrwt>0</asrwt>
<pdfrwt beam="1">  1        1 0.35146776E+00 0.15743608E+04</pdfrwt>
<pdfrwt beam="2">  1       -1 0.41728844E-01 0.15743608E+04</pdfrwt>
<totfact> 0.10346014E+01</totfact>
</mgrwt>
</event>
<event>
 6    1  0.1072514E-005  0.3309085E+04  0.7818608E-02  0.8160588E-01
          1   -1    0    0  501    0  0.00000000000E+00  0.00000000000E+00  0.13669383371E+04  0.13669383371E+04  0.00000000000E+00 0. -1.
         -1   -1    0    0    0  501 -0.00000000000E+00 -0.00000000000E+00 -0.20026588022E+04  0.20026588022E+04  0.00000000000E+00 0.  1.
         23    2    1    2    0    0  0.12269530555E+04  0.10797245058E+04 -0.66626388589E+02  0.16389652095E+04  0.10270868284E+03 0.  0.
         11    1    3    3    0    0  0.40368940198E+03  0.29793937278E+03 -0.40199931544E+02  0.50333789606E+03  0.00000000000E+00 0.  1.
        -11    1    3    3    0    0  0.82326365349E+03  0.78178513303E+03 -0.26426457045E+02  0.11356273134E+04  0.00000000000E+00 0. -1.
         22    1    1    2    0    0 -0.12269530555E+04 -0.10797245058E+04 -0.56909407649E+03  0.17306319299E+04  0.00000000000E+00 0.  1.
<mgrwt>
<rscale>  0 0.33090851E+04</rscale>
<asrwt>0</asrwt>
<pdfrwt beam="1">  1        1 0.21029821E+00 0.33090851E+04</pdfrwt>
<pdfrwt beam="2">  1       -1 0.30810135E+00 0.33090851E+04</pdfrwt>
<totfact> 0.19657462E-01</totfact>
</mgrwt>
</event>
<event>
 6    1  0.1072514E-005  0.2414395E+04  0.7818608E-02  0.8434134E-01
         -1   -1    0    0    0  501 -0.00000000000E+00  0.00000000000E+00  0.79012653018E+03  0.79012653018E+03  0.00000000000E+00 0.  1.
          1   -1    0    0  501    0  0.00000000000E+00 -0.00000000000E+00 -0.18444203405E+04  0.18444203405E+04  0.00000000000E+00 0. -1.
         23    2    1    2    0    0  0.48073699846E+03 -0.10828103944E+04 -0.77082967178E+03  0.14163767965E+04  0.91424476466E+02 0.  0.
         11    1    3    3    0    0  0.38766003190E+02 -0.93697162774E+02 -0.37320117107E+02  0.10804976842E+03  0.00000000000E+00 0.  1.
        -11    1    3    3    0    0  0.44197099527E+03 -0.98911323159E+03 -0.73350955468E+03  0.13083270281E+04  0.00000000000E+00 0. -1.
         22    1    1    2    0    0 -0.48073699846E+03  0.10828103944E+04 -0.28346413855E+03  0.12181700742E+04  0.00000000000E+00 0. -1.
<mgrwt>
<rscale>  0 0.24143947E+04</rscale>
<asrwt>0</asrwt>
<pdfrwt beam="1">  1        1 0.28375697E+00 0.24143947E+04</pdfrwt>
<pdfrwt beam="2">  1       -1 0.12155793E+00 0.24143947E+04</pdfrwt>
<totfact> 0.20397398E+00</totfact>
</mgrwt>
</event>
<event>
 6    1  0.1072514E-005  0.4626816E+04  0.7818608E-02  0.7888804E-01
          2   -1    0    0  501    0  0.00000000000E+00  0.00000000000E+00  0.28014520362E+04  0.28014520362E+04  0.00000000000E+00 0. -1.
         -2   -1    0    0    0  501 -0.00000000000E+00 -0.00000000000E+00 -0.19103866845E+04  0.19103866845E+04  0.00000000000E+00 0.  1.
         23    2    1    2    0    0 -0.20613466368E+04 -0.36241187420E+03  0.14471866397E+04  0.25462526082E+04  0.92524865618E+02 0.  0.
         13    1    3    3    0    0 -0.12081650248E+04 -0.24286210429E+03  0.80996097346E+03  0.14746801373E+04  0.00000000000E+00 0. -1.
        -13    1    3    3    0    0 -0.85318161205E+03 -0.11954976991E+03  0.63722566622E+03  0.10715724709E+04  0.00000000000E+00 0.  1.
         22    1    1    2    0    0  0.20613466368E+04  0.36241187420E+03 -0.55612128798E+03  0.21655861125E+04  0.00000000000E+00 0. -1.
<mgrwt>
<rscale>  0 0.46268160E+04</rscale>
<asrwt>0</asrwt>
<pdfrwt beam="1">  1        2 0.43099262E+00 0.46268160E+04</pdfrwt>
<pdfrwt beam="2">  1       -2 0.29390564E+00 0.46268160E+04</pdfrwt>
<totfact> 0.59929373E-02</totfact>
</mgrwt>
</event>
<event>
 6    1  0.1072514E-005  0.1156958E+04  0.7818608E-02  0.9151389E-01
          3   -1    0    0  501    0  0.00000000000E+00  0.00000000000E+00  0.14068866914E+03  0.14068866914E+03  0.00000000000E+00 0. -1.
         -3   -1    0    0    0  501 -0.00000000000E+00 -0.00000000000E+00 -0.23785696050E+04  0.23785696050E+04  0.00000000000E+00 0.  1.
         23    2    1    2    0    0  0.21320611867E+03 -0.13637860075E+03 -0.22497035199E+04  0.22658894811E+04  0.95043364262E+02 0.  0.
         13    1    3    3    0    0 -0.97968048826E+00 -0.29197360872E+02 -0.17709386874E+03  0.17948728089E+03  0.00000000000E+00 0. -1.
        -13    1    3    3    0    0  0.21418579916E+03 -0.10718123988E+03 -0.20726096512E+04  0.20864022002E+04  0.00000000000E+00 0.  1.
         22    1    1    2    0    0 -0.21320611867E+03  0.13637860075E+03  0.11822584115E+02  0.25336879302E+03  0.00000000000E+00 0. -1.
<mgrwt>
<rscale>  0 0.11569577E+04</rscale>
<asrwt>0</asrwt>
<pdfrwt beam="1">  1        3 0.21644412E-01 0.11569577E+04</pdfrwt>
<pdfrwt beam="2">  1       -3 0.36593376E+00 0.11569577E+04</pdfrwt>
<totfact> 0.85795070E-01</totfact>
</mgrwt>
</event>
<event>
 6    1  0.1072514E-005  0.3077035E+04  0.7818608E-02  0.8222069E-01
          2   -1    0    0  501    0  0.00000000000E+00  0.00000000000E+00  0.13429031450E+04  0.13429031450E+04  0.00000000000E+00 0. -1.
         -2   -1    0    0    0  501 -0.00000000000E+00 -0.00000000000E+00 -0.17626264320E+04  0.17626264320E+04  0.00000000000E+00 0.  1.
         23    2    1    2    0    0 -0.37392039518E+03 -0.76206949592E+02  0.12927836244E+04  0.13510199924E+04  0.91332137105E+02 0.  0.
         13    1    3    3    0    0 -0.30651913633E+03 -0.90987355020E+02  0.98496329609E+03  0.10355604156E+04  0.00000000000E+00 0. -1.
        -13    1    3    3    0    0 -0.67401258852E+02  0.14780405428E+02  0.30782032832E+03  0.31545957681E+03  0.00000000000E+00 0.  1.
         22    1    1    2    0    0  0.37392039518E+03  0.76206949592E+02 -0.17125069114E+04  0.17545095847E+04  0.00000000000E+00 0.  1.
<mgrwt>
<rscale>  0 0.30770353E+04</rscale>
<asrwt>0</asrwt>
<pdfrwt beam="1">  1        2 0.20660048E+00 0.30770353E+04</pdfrwt>
<pdfrwt beam="2">  1       -2 0.27117330E+00 0.30770353E+04</pdfrwt>
<totfact> 0.63295663E-01</totfact>
</mgrwt>
</event>
<event>
 6    1  0.1072514E-005  0.3934474E+04  0.7818608E-02  0.8017897E-01
          1   -1    0    0  501    0  0.00000000000E+00  0.00000000000E+00  0.29644739699E+04  0.29644739699E+04  0.00000000000E+00 0. -1.
         -1   -1    0    0    0  501 -0.00000000000E+00 -0.00000000000E+00 -0.13054661738E+04  0.13054661738E+04  0.00000000000E+00 0.  1.
         23    2    1    2    0    0  0.83404749738E+03  0.17516272436E+04  0.11763786281E+04  0.22707492718E+04  0.92748856699E+02 0.  0.
         13    1    3    3    0    0  0.65732582957E+03  0.13724504661E+04  0.87752571904E+03  0.17566299882E+04  0.00000000000E+00 0.  1.
        -13    1    3    3    0    0  0.17672166781E+03  0.37917677755E+03  0.29885290902E+03  0.51411928357E+03  0.00000000000E+00 0. -1.
         22    1    1    2    0    0 -0.83404749738E+03 -0.17516272436E+04  0.48262916810E+03  0.19991908719E+04  0.00000000000E+00 0.  1.
<mgrwt>
<rscale>  0 0.39344735E+04</rscale>
<asrwt>0</asrwt>
<pdfrwt beam="1">  1        1 0.45607291E+00 0.39344735E+04</pdfrwt>
<pdfrwt beam="2">  1       -1 0.20084095E+00 0.39344735E+04</pdfrwt>
<totfact> 0.74100730E-02</totfact>
</mgrwt>
</event>
<event>
 6    1  0.1072514E-005  0.1626013E+04  0.7818608E-02  0.8804725E-01
          2   -1    0    0  501    0  0.00000000000E+00  0.00000000000E+00  0.85996104125E+03  0.85996104125E+03  0.00000000000E+00 0. -1.
         -2   -1    0    0    0  501 -0.00000000000E+00 -0.00000000000E+00 -0.76861551795E+03  0.76861551795E+03  0.00000000000E+00 0.  1.
         23    2    1    2    0    0  0.28016954129E+03  0.68364186228E+03 -0.28790341371E+03  0.79810023567E+03  0.90633563435E+02 0.  0.
         13    1    3    3    0    0  0.65762143584E+02  0.27542353919E+03 -0.10327687902E+03  0.30141151140E+03  0.00000000000E+00 0. -1.
        -13    1    3    3    0    0  0.21440739771E+03  0.40821832309E+03 -0.18462653469E+03  0.49668872426E+03  0.00000000000E+00 0.  1.
         22    1    1    2    0    0 -0.28016954129E+03 -0.68364186228E+03  0.37924893701E+03  0.83047632353E+03  0.00000000000E+00 0. -1.
<mgrwt>
<rscale>  0 0.16260128E+04</rscale>
<asrwt>0</asrwt>
<pdfrwt beam="1">  1        2 0.13230170E+00 0.16260128E+04</pdfrwt>
<pdfrwt beam="2">  1       -2 0.11824854E+00 0.16260128E+04</pdfrwt>
<totfact> 0.16463256E+01</totfact>
</mgrwt>
</event>
<event>
 6    1  0.1072514E-005  0.3095886E+04  0.7818608E-02  0.8216868E-01
          2   -1    0    0  501    0  0.00000000000E+00  0.00000000000E+00  0.27458777098E+04  0.27458777098E+04  0.00000000000E+00 0. -1.
         -2   -1    0    0    0  501 -0.00000000000E+00 -0.00000000000E+00 -0.87262709053E+03  0.87262709053E+03  0.00000000000E+00 0.  1.
         23    2    1    2    0    0 -0.19394997733E+03  0.14127871569E+04  0.16372848803E+04  0.21730761530E+04  0.89297497432E+02 0.  0.
         13    1    3    3    0    0 -0.93303221911E+02  0.62527713293E+03  0.79268935447E+03  0.10139198178E+04  0.00000000000E+00 0.  1.
        -13    1    3    3    0    0 -0.10064675542E+03  0.78751002401E+03  0.84459552585E+03  0.11591563353E+04  0.00000000000E+00 0. -1.
         22    1    1    2    0    0  0.19394997733E+03 -0.14127871569E+04  0.23596573900E+03  0.14454286473E+04  0.00000000000E+00 0. -1.
<mgrwt>
<rscale>  0 0.30958858E+04</rscale>
<asrwt>0</asrwt>
<pdfrwt beam="1">  1        2 0.42244272E+00 0.30958858E+04</pdfrwt>
<pdfrwt beam="2">  1       -2 0.13425032E+00 0.30958858E+04</pdfrwt>
<totfact> 0.84688791E-01</totfact>
</mgrwt>
</event>
<event>
 6    1  0.1072514E-005  0.2368474E+04  0.7818608E-02  0.8451401E-01
         -2   -1    0    0    0  501 -0.00000000000E+00  0.00000000000E+00  0.53491991097E+03  0.53491991097E+03  0.00000000000E+00 0.  1.
          2   -1    0    0  501    0  0.00000000000E+00 -0.00000000000E+00 -0.26217339936E+04  0.26217339936E+04  0.00000000000E+00 0. -1.
         23    2    1    2    0    0 -0.61879152689E+03  0.30206828424E+03 -0.23261890235E+04  0.24276487163E+04  0.90414128824E+02 0.  0.
         13    1    3    3    0    0 -0.17730467922E+03  0.11823356808E+03 -0.61433335158E+03  0.65024733199E+03  0.00000000000E+00 0.  1.
        -13    1    3    3    0    0 -0.44148684766E+03  0.18383471616E+03 -0.17118556719E+04  0.17774013843E+04  0.00000000000E+00 0. -1.
         22    1    1    2    0    0  0.61879152689E+03 -0.30206828424E+03  0.23937494092E+03  0.72900518821E+03  0.00000000000E+00 0.  1.
<mgrwt>
<rscale>  0 0.23684744E+04</rscale>
<asrwt>0</asrwt>
<pdfrwt beam="1">  1        2 0.40334367E+00 0.23684744E+04</pdfrwt>
<pdfrwt beam="2">  1       -2 0.82295374E-01 0.23684744E+04</pdfrwt>
<totfact> 0.34545723E+00</totfact>
</mgrwt>
</event>
<event>
 6    1  0.1072514E-005  0.1117404E+04  0.7818608E-02  0.9188392E-01
          1   -1    0    0  501    0  0.00000000000E+00  0.00000000000E+00  0.12179595031E+04  0.12179595031E+04  0.00000000000E+00 0. -1.
         -1   -1    0    0    0  501 -0.00000000000E+00 -0.00000000000E+00 -0.25628781875E+03  0.25628781875E+03  0.00000000000E+00 0.  1.
         23    2    1    2    0    0 -0.51029743133E+03  0.13031990367E+03  0.25338873080E+03  0.59160838774E+03  0.91694546389E+02 0.  0.
         13    1    3    3    0    0 -0.40579751201E+03  0.10013786410E+03  0.24011137334E+03  0.48202975446E+03  0.00000000000E+00 0. -1.
        -13    1    3    3    0    0 -0.10449991932E+03  0.30182039564E+02  0.13277357457E+02  0.10957863328E+03  0.00000000000E+00 0.  1.
         22    1    1    2    0    0  0.51029743133E+03 -0.13031990367E+03  0.70828295355E+03  0.88263893411E+03  0.00000000000E+00 0. -1.
<mgrwt>
<rscale>  0 0.11174045E+04</rscale>
<asrwt>0</asrwt>
<pdfrwt beam="1">  1        1 0.18737838E+00 0.11174045E+04</pdfrwt>
<pdfrwt beam="2">  1       -1 0.39428896E-01 0.11174045E+04</pdfrwt>
<totfact> 0.64489259E+01</totfact>
</mgrwt>
</event>
<event>
 6    1  0.1072514E-005  0.3080303E+04  0.7818608E-02  0.8221164E-01
         -1   -1    0    0    0  501 -0.00000000000E+00  0.00000000000E+00  0.12506884438E+04  0.12506884438E+04  0.00000000000E+00 0.  1.
          1   -1    0    0  501    0  0.00000000000E+00 -0.00000000000E+00 -0.18966091340E+04  0.18966091340E+04  0.00000000000E+00 0. -1.
         23    2    1    2    0    0 -0.13411934504E+04  0.63528364664E+03 -0.73904373695E+03  0.16603352094E+04  0.90234025903E+02 0.  0.
         13    1    3    3    0    0 -0.38275994518E+03  0.16134190154E+03 -0.16674445928E+03  0.44759367682E+03  0.00000000000E+00 0. -1.
        -13    1    3    3    0    0 -0.95843350522E+03  0.47394174510E+03 -0.57229927767E+03  0.12127415326E+04  0.00000000000E+00 0.  1.
         22    1    1    2    0    0  0.13411934504E+04 -0.63528364664E+03  0.93123046725E+02  0.14869623684E+04  0.00000000000E+00 0.  1.
<mgrwt>
<rscale>  0 0.30803033E+04</rscale>
<asrwt>0</asrwt>
<pdfrwt beam="1">  1        1 0.29178602E+00 0.30803033E+04</pdfrwt>
<pdfrwt beam="2">  1       -1 0.19241361E+00 0.30803033E+04</pdfrwt>
<totfact> 0.50315632E-01</totfact>
</mgrwt>
</event>
<event>
 6    1  0.1072514E-005  0.1590249E+04  0.7818608E-02  0.8826561E-01
         -2   -1    0    0    0  501 -0.00000000000E+00  0.00000000000E+00  0.64661912399E+03  0.64661912399E+03  0.00000000000E+00 0. -1.
          2   -1    0    0  501    0  0.00000000000E+00 -0.00000000000E+00 -0.97773635568E+03  0.97773635568E+03  0.00000000000E+00 0.  1.
         23    2    1    2    0    0 -0.60010349215E+03 -0.30561344902E+03  0.26346514393E+03  0.72599475986E+03  0.64270737917E+02 0.  0.
         11    1    3    3    0    0 -0.36556090471E+03 -0.16463480407E+03  0.12955592095E+03  0.42133612522E+03  0.00000000000E+00 0. -1.
        -11    1    3    3    0    0 -0.23454258744E+03 -0.14097864496E+03  0.13390922298E+03  0.30465863463E+03  0.00000000000E+00 0.  1.
         22    1    1    2    0    0  0.60010349215E+03  0.30561344902E+03 -0.59458237562E+03  0.89836071982E+03  0.00000000000E+00 0. -1.
<mgrwt>
<rscale>  0 0.15902491E+04</rscale>
<asrwt>0</asrwt>
<pdfrwt beam="1">  1        2 0.15042098E+00 0.15902491E+04</pdfrwt>
<pdfrwt beam="2">  1       -2 0.99479866E-01 0.15902491E+04</pdfrwt>
<totfact> 0.20900240E+01</totfact>
</mgrwt>
</event>
<event>
 6    1  0.1124079E-005  0.4460242E+04  0.7818608E-02  0.7917634E-01
          2   -1    0    0  501    0  0.00000000000E+00  0.00000000000E+00  0.31598209607E+04  0.31598209607E+04  0.00000000000E+00 0. -1.
         -2   -1    0    0    0  501 -0.00000000000E+00 -0.00000000000E+00 -0.15739626915E+04  0.15739626915E+04  0.00000000000E+00 0.  1.
         23    2    1    2    0    0 -0.20351939709E+03  0.53922647695E+03 -0.14921729097E+04  0.16022566642E+04  0.91984167423E+02 0.  0.
         11    1    3    3    0    0 -0.10954822337E+03  0.28802193196E+03 -0.92245661599E+03  0.97256550161E+03  0.00000000000E+00 0.  1.
        -11    1    3    3    0    0 -0.93971173716E+02  0.25120454498E+03 -0.56971629371E+03  0.62969116258E+03  0.00000000000E+00 0. -1.
         22    1    1    2    0    0  0.20351939709E+03 -0.53922647695E+03  0.30780311789E+04  0.31315269880E+04  0.00000000000E+00 0. -1.
<mgrwt>
<rscale>  0 0.44602423E+04</rscale>
<asrwt>0</asrwt>
<pdfrwt beam="1">  1        2 0.48612630E+00 0.44602423E+04</pdfrwt>
<pdfrwt beam="2">  1       -2 0.24214811E+00 0.44602423E+04</pdfrwt>
<totfact> 0.75141807E-02</totfact>
</mgrwt>
</event>
<event>
 6    1  0.1072514E-005  0.3416013E+04  0.7818608E-02  0.8133987E-01
          2   -1    0    0  501    0  0.00000000000E+00  0.00000000000E+00  0.22944246992E+04  0.22944246992E+04  0.00000000000E+00 0. -1.
         -2   -1    0    0    0  501 -0.00000000000E+00 -0.00000000000E+00 -0.12714672601E+04  0.12714672601E+04  0.00000000000E+00 0.  1.
         23    2    1    2    0    0  0.91647100748E+03 -0.14235704435E+04  0.28628500578E+03  0.17195013752E+04  0.90851304364E+02 0.  0.
         11    1    3    3    0    0  0.99248373977E+02 -0.11596467840E+03  0.99436007069E+01  0.15296052291E+03  0.00000000000E+00 0.  1.
        -11    1    3    3    0    0  0.81722263351E+03 -0.13076057651E+04  0.27634140507E+03  0.15665408523E+04  0.00000000000E+00 0. -1.
         22    1    1    2    0    0 -0.91647100748E+03  0.14235704435E+04  0.73667243334E+03  0.18463905842E+04  0.00000000000E+00 0. -1.
<mgrwt>
<rscale>  0 0.34160128E+04</rscale>
<asrwt>0</asrwt>
<pdfrwt beam="1">  1        2 0.35298842E+00 0.34160128E+04</pdfrwt>
<pdfrwt beam="2">  1       -2 0.19561035E+00 0.34160128E+04</pdfrwt>
<totfact> 0.53721216E-01</totfact>
</mgrwt>
</event>
<event>
 6    1  0.1072514E-005  0.2491594E+04  0.7818608E-02  0.8405986E-01
          1   -1    0    0  501    0  0.00000000000E+00  0.00000000000E+00  0.52114423373E+04  0.52114423373E+04  0.00000000000E+00 0. -1.
         -1   -1    0    0    0  501 -0.00000000000E+00 -0.00000000000E+00 -0.29780823875E+03  0.29780823875E+03  0.00000000000E+00 0.  1.
         23    2    1    2    0    0  0.10312916824E+04 -0.22693803089E+03  0.39147032183E+04  0.40556597438E+04  0.91712956851E+02 0.  0.
         13    1    3    3    0    0  0.92607685802E+03 -0.22336814662E+03  0.35945229681E+04  0.37186162809E+04  0.00000000000E+00 0. -1.
        -13    1    3    3    0    0  0.10521482435E+03 -0.35698842727E+01  0.32018025012E+03  0.33704346293E+03  0.00000000000E+00 0.  1.
         22    1    1    2    0    0 -0.10312916824E+04  0.22693803089E+03  0.99893088028E+03  0.14535908322E+04  0.00000000000E+00 0.  1.
<mgrwt>
<rscale>  0 0.24915942E+04</rscale>
<asrwt>0</asrwt>
<pdfrwt beam="1">  1        1 0.80176029E+00 0.24915942E+04</pdfrwt>
<pdfrwt beam="2">  1       -1 0.45816656E-01 0.24915942E+04</pdfrwt>
<totfact> 0.18944344E-02</totfact>
</mgrwt>
</event>
<event>
 6    1  0.1072514E-005  0.3499619E+03  0.7818608E-02  0.1062631E+00
         -1   -1    0    0    0  501 -0.00000000000E+00  0.00000000000E+00  0.12054001536E+03  0.12054001536E+03  0.00000000000E+00 0.  1.
          1   -1    0    0  501    0  0.00000000000E+00 -0.00000000000E+00 -0.25400962914E+03  0.25400962914E+03  0.00000000000E+00 0. -1.
         23    2    1    2    0    0 -0.40414767720E+02 -0.84229941152E+02 -0.21438888851E+03  0.25095366779E+03  0.91033573069E+02 0.  0.
         11    1    3    3    0    0 -0.28997121441E+02 -0.29148461714E+02 -0.18084347026E+03  0.18545842286E+03  0.00000000000E+00 0. -1.
        -11    1    3    3    0    0 -0.11417646279E+02 -0.55081479438E+02 -0.33545418244E+02  0.65495244933E+02  0.00000000000E+00 0.  1.
         22    1    1    2    0    0  0.40414767720E+02  0.84229941152E+02  0.80919274723E+02  0.12359597671E+03  0.00000000000E+00 0.  1.
<mgrwt>
<rscale>  0 0.34996185E+03</rscale>
<asrwt>0</asrwt>
<pdfrwt beam="1">  1        1 0.39078404E-01 0.34996185E+03</pdfrwt>
<pdfrwt beam="2">  1       -1 0.18544618E-01 0.34996185E+03</pdfrwt>
<totfact> 0.24770952E+03</totfact>
</mgrwt>
</event>
<event>
 6    1  0.1072514E-005  0.3559964E+04  0.7818608E-02  0.8099725E-01
         -1   -1    0    0    0  501 -0.00000000000E+00  0.00000000000E+00  0.81747600510E+03  0.81747600510E+03  0.00000000000E+00 0.  1.
          1   -1    0    0  501    0  0.00000000000E+00 -0.00000000000E+00 -0.38757536179E+04  0.38757536179E+04  0.00000000000E+00 0. -1.
         23    2    1    2    0    0  0.15744103443E+04 -0.12400893880E+03 -0.45107235710E+03  0.16450063053E+04  0.91833130345E+02 0.  0.
         13    1    3    3    0    0  0.78512000966E+03 -0.20081170768E+02 -0.24414861614E+03  0.82245074610E+03  0.00000000000E+00 0. -1.
        -13    1    3    3    0    0  0.78929033468E+03 -0.10392776803E+03 -0.20692374096E+03  0.82255555919E+03  0.00000000000E+00 0.  1.
         22    1    1    2    0    0 -0.15744103443E+04  0.12400893880E+03 -0.26072052557E+04  0.30482233177E+04  0.00000000000E+00 0. -1.
<mgrwt>
<rscale>  0 0.35599638E+04</rscale>
<asrwt>0</asrwt>
<pdfrwt beam="1">  1        1 0.59626978E+00 0.35599638E+04</pdfrwt>
<pdfrwt beam="2">  1       -1 0.12576554E+00 0.35599638E+04</pdfrwt>
<totfact> 0.54888383E-02</totfact>
</mgrwt>
</event>
<event>
 6    1  0.1072514E-005  0.2676686E+04  0.7818608E-02  0.8342610E-01
         -1   -1    0    0    0  501 -0.00000000000E+00  0.00000000000E+00  0.64203817954E+03  0.64203817954E+03  0.00000000000E+00 0.  1.
          1   -1    0    0  501    0  0.00000000000E+00 -0.00000000000E+00 -0.27898052779E+04  0.27898052779E+04  0.00000000000E+00 0. -1.
         23    2    1    2    0    0  0.41740104620E+03  0.27212512171E+03  0.51502580001E+03  0.72283224763E+03  0.94652883223E+02 0.  0.
         13    1    3    3    0    0  0.21428301073E+03  0.91462971269E+02  0.20316254132E+03  0.30912408835E+03  0.00000000000E+00 0. -1.
        -13    1    3    3    0    0  0.20311803547E+03  0.18066215044E+03  0.31186325870E+03  0.41370815928E+03  0.00000000000E+00 0.  1.
         22    1    1    2    0    0 -0.41740104620E+03 -0.27212512171E+03 -0.26627928983E+04  0.27090112098E+04  0.00000000000E+00 0. -1.
<mgrwt>
<rscale>  0 0.26766856E+04</rscale>
<asrwt>0</asrwt>
<pdfrwt beam="1">  1        1 0.42920080E+00 0.26766856E+04</pdfrwt>
<pdfrwt beam="2">  1       -1 0.98775107E-01 0.26766856E+04</pdfrwt>
<totfact> 0.72652280E-01</totfact>
</mgrwt>
</event>
<event>
 6    1  0.1072514E-005  0.7505273E+03  0.7818608E-02  0.9634523E-01
         -3   -1    0    0    0  501 -0.00000000000E+00  0.00000000000E+00  0.11224927880E+03  0.11224927880E+03  0.00000000000E+00 0.  1.
          3   -1    0    0  501    0  0.00000000000E+00 -0.00000000000E+00 -0.12545542227E+04  0.12545542227E+04  0.00000000000E+00 0. -1.
         23    2    1    2    0    0 -0.36672417422E+03  0.46392377881E+01 -0.65849433873E+03  0.75969490813E+03  0.94939016292E+02 0.  0.
         11    1    3    3    0    0 -0.88921634891E+02 -0.69588433021E+01 -0.89270647911E+02  0.12619322973E+03  0.00000000000E+00 0.  1.
        -11    1    3    3    0    0 -0.27780253933E+03  0.11598081090E+02 -0.56922369082E+03  0.63350167840E+03  0.00000000000E+00 0. -1.
         22    1    1    2    0    0  0.36672417422E+03 -0.46392377881E+01 -0.48381060519E+03  0.60710859340E+03  0.00000000000E+00 0.  1.
<mgrwt>
<rscale>  0 0.75052730E+03</rscale>
<asrwt>0</asrwt>
<pdfrwt beam="1">  1        3 0.19300835E+00 0.75052730E+03</pdfrwt>
<pdfrwt beam="2">  1       -3 0.17269119E-01 0.75052730E+03</pdfrwt>
<totfact> 0.12943938E+01</totfact>
</mgrwt>
</event>
<event>
 6    1  0.1072514E-005  0.2664948E+04  0.7818608E-02  0.8346469E-01
         -1   -1    0    0    0  501 -0.00000000000E+00  0.00000000000E+00  0.94536623252E+03  0.94536623252E+03  0.00000000000E+00 0.  1.
          1   -1    0    0  501    0  0.00000000000E+00 -0.00000000000E+00 -0.18780943432E+04  0.18780943432E+04  0.00000000000E+00 0. -1.
         23    2    1    2    0    0 -0.48966324256E+03  0.12071134477E+04 -0.75578237949E+03  0.15088493181E+04  0.92337927944E+02 0.  0.
         13    1    3    3    0    0 -0.39741480953E+03  0.89075747452E+03 -0.59022921599E+03  0.11400692684E+04  0.00000000000E+00 0. -1.
        -13    1    3    3    0    0 -0.92248433033E+02  0.31635597320E+03 -0.16555316350E+03  0.36878004979E+03  0.00000000000E+00 0.  1.
         22    1    1    2    0    0  0.48966324256E+03 -0.12071134477E+04 -0.17694573120E+03  0.13146112576E+04  0.00000000000E+00 0.  1.
<mgrwt>
<rscale>  0 0.26649480E+04</rscale>
<asrwt>0</asrwt>
<pdfrwt beam="1">  1        1 0.28893759E+00 0.26649480E+04</pdfrwt>
<pdfrwt beam="2">  1       -1 0.14544096E+00 0.26649480E+04</pdfrwt>
<totfact> 0.11966819E+00</totfact>
</mgrwt>
</event>
<event>
 6    1  0.1072514E-005  0.1732868E+04  0.7818608E-02  0.8742838E-01
         -1   -1    0    0    0  501 -0.00000000000E+00  0.00000000000E+00  0.11300670211E+04  0.11300670211E+04  0.00000000000E+00 0.  1.
          1   -1    0    0  501    0  0.00000000000E+00 -0.00000000000E+00 -0.66430359878E+03  0.66430359878E+03  0.00000000000E+00 0. -1.
         23    2    1    2    0    0 -0.58612167763E+03 -0.50082048732E+03 -0.17055740486E+03  0.79473869931E+03  0.90332664735E+02 0.  0.
         11    1    3    3    0    0 -0.41087614848E+03 -0.31099415231E+03 -0.14389332753E+03  0.53501575852E+03  0.00000000000E+00 0. -1.
        -11    1    3    3    0    0 -0.17524552915E+03 -0.18982633501E+03 -0.26664077335E+02  0.25972294078E+03  0.00000000000E+00 0.  1.
         22    1    1    2    0    0  0.58612167763E+03  0.50082048732E+03  0.63632082716E+03  0.99963192055E+03  0.00000000000E+00 0.  1.
<mgrwt>
<rscale>  0 0.17328677E+04</rscale>
<asrwt>0</asrwt>
<pdfrwt beam="1">  1        1 0.10220055E+00 0.17328677E+04</pdfrwt>
<pdfrwt beam="2">  1       -1 0.17385646E+00 0.17328677E+04</pdfrwt>
<totfact> 0.64509210E+00</totfact>
</mgrwt>
</event>
<event>
 6    1  0.1072514E-005  0.2870814E+04  0.7818608E-02  0.8281615E-01
         -1   -1    0    0    0  501 -0.00000000000E+00  0.00000000000E+00  0.14697053008E+04  0.14697053008E+04  0.00000000000E+00 0.  1.
          1   -1    0    0  501    0  0.00000000000E+00 -0.00000000000E+00 -0.14019090136E+04  0.14019090136E+04  0.00000000000E+00 0. -1.
         23    2    1    2    0    0  0.67787181491E+03 -0.12634861368E+04  0.39244233782E+02  0.14374864836E+04  0.94445038236E+02 0.  0.
         11    1    3    3    0    0  0.23830432966E+03 -0.46771042898E+03 -0.29751592346E+02  0.52576340321E+03  0.00000000000E+00 0.  1.
        -11    1    3    3    0    0  0.43956748525E+03 -0.79577570782E+03  0.68995826129E+02  0.91172308037E+03  0.00000000000E+00 0. -1.
         22    1    1    2    0    0 -0.67787181491E+03  0.12634861368E+04  0.28552053463E+02  0.14341278308E+04  0.00000000000E+00 0.  1.
<mgrwt>
<rscale>  0 0.28708139E+04</rscale>
<asrwt>0</asrwt>
<pdfrwt beam="1">  1        1 0.21567831E+00 0.28708139E+04</pdfrwt>
<pdfrwt beam="2">  1       -1 0.22610851E+00 0.28708139E+04</pdfrwt>
<totfact> 0.66028873E-01</totfact>
</mgrwt>
</event>
<event>
 6    1  0.1072514E-005  0.1208744E+04  0.7818608E-02  0.9105237E-01
          1   -1    0    0  501    0  0.00000000000E+00  0.00000000000E+00  0.88807068833E+03  0.88807068833E+03  0.00000000000E+00 0.  1.
         -1   -1    0    0    0  501 -0.00000000000E+00 -0.00000000000E+00 -0.41130216929E+03  0.41130216929E+03  0.00000000000E+00 0. -1.
         23    2    1    2    0    0 -0.40353965566E+03 -0.27466612377E+03 -0.13712770119E+03  0.51505512707E+03  0.90509912458E+02 0.  0.
         11    1    3    3    0    0 -0.91385070336E+02 -0.11099418928E+03 -0.46869093113E+02  0.15122054431E+03  0.00000000000E+00 0. -1.
        -11    1    3    3    0    0 -0.31215458532E+03 -0.16367193450E+03 -0.90258608079E+02  0.36383458276E+03  0.00000000000E+00 0.  1.
         22    1    1    2    0    0  0.40353965566E+03  0.27466612377E+03  0.61389622023E+03  0.78431773054E+03  0.00000000000E+00 0.  1.
<mgrwt>
<rscale>  0 0.12087438E+04</rscale>
<asrwt>0</asrwt>
<pdfrwt beam="1">  1        1 0.13662626E+00 0.12087438E+04</pdfrwt>
<pdfrwt beam="2">  1       -1 0.63277257E-01 0.12087438E+04</pdfrwt>
<totfact> 0.46640371E+01</totfact>
</mgrwt>
</event>
<event>
 6    1  0.1072514E-005  0.1764973E+04  0.7818608E-02  0.8725152E-01
          2   -1    0    0  501    0  0.00000000000E+00  0.00000000000E+00  0.17672163729E+04  0.17672163729E+04  0.00000000000E+00 0. -1.
         -2   -1    0    0    0  501 -0.00000000000E+00 -0.00000000000E+00 -0.44068303669E+03  0.44068303669E+03  0.00000000000E+00 0.  1.
         23    2    1    2    0    0  0.48310517747E+03 -0.73545813812E+03  0.64139035541E+03  0.10926818570E+04  0.91009709809E+02 0.  0.
         11    1    3    3    0    0  0.60204055459E+02 -0.12903404533E+03  0.72264904713E+02  0.15967632762E+03  0.00000000000E+00 0. -1.
        -11    1    3    3    0    0  0.42290112201E+03 -0.60642409278E+03  0.56912545070E+03  0.93300552942E+03  0.00000000000E+00 0.  1.
         22    1    1    2    0    0 -0.48310517747E+03  0.73545813812E+03  0.68514298084E+03  0.11152175526E+04  0.00000000000E+00 0.  1.
<mgrwt>
<rscale>  0 0.17649728E+04</rscale>
<asrwt>0</asrwt>
<pdfrwt beam="1">  1        2 0.27187944E+00 0.17649728E+04</pdfrwt>
<pdfrwt beam="2">  1       -2 0.67797391E-01 0.17649728E+04</pdfrwt>
<totfact> 0.16976207E+01</totfact>
</mgrwt>
</event>
<event>
 6    1  0.1072514E-005  0.5264043E+04  0.7818608E-02  0.7789019E-01
         -1   -1    0    0    0  501 -0.00000000000E+00  0.00000000000E+00  0.48244997249E+04  0.48244997249E+04  0.00000000000E+00 0.  1.
          1   -1    0    0  501    0  0.00000000000E+00 -0.00000000000E+00 -0.14359078828E+04  0.14359078828E+04  0.00000000000E+00 0. -1.
         23    2    1    2    0    0  0.13664727449E+04 -0.12972293780E+04 -0.48951142200E+03  0.19488259086E+04  0.90824931590E+02 0.  0.
         11    1    3    3    0    0  0.11659384532E+04 -0.10604890453E+04 -0.40817213980E+03  0.16280829179E+04  0.00000000000E+00 0.  1.
        -11    1    3    3    0    0  0.20053429163E+03 -0.23674033267E+03 -0.81339282195E+02  0.32074299067E+03  0.00000000000E+00 0. -1.
         22    1    1    2    0    0 -0.13664727449E+04  0.12972293780E+04  0.38781032641E+04  0.43115816991E+04  0.00000000000E+00 0.  1.
<mgrwt>
<rscale>  0 0.52640430E+04</rscale>
<asrwt>0</asrwt>
<pdfrwt beam="1">  1        1 0.22090891E+00 0.52640430E+04</pdfrwt>
<pdfrwt beam="2">  1       -1 0.74223072E+00 0.52640430E+04</pdfrwt>
<totfact> 0.71186312E-04</totfact>
</mgrwt>
</event>
<event>
 6    1  0.1072514E-005  0.1114115E+04  0.7818608E-02  0.9191543E-01
          1   -1    0    0  501    0  0.00000000000E+00  0.00000000000E+00  0.15696611858E+04  0.15696611858E+04  0.00000000000E+00 0. -1.
         -1   -1    0    0    0  501 -0.00000000000E+00 -0.00000000000E+00 -0.19769419547E+03  0.19769419547E+03  0.00000000000E+00 0.  1.
         23    2    1    2    0    0 -0.30927856230E+02 -0.55161109964E+03  0.64098934187E+03  0.85108049890E+03  0.90770819576E+02 0.  0.
         11    1    3    3    0    0  0.30311377333E+02 -0.17321395945E+03  0.22189084278E+03  0.28312082483E+03  0.00000000000E+00 0.  1.
        -11    1    3    3    0    0 -0.61239233563E+02 -0.37839714019E+03  0.41909849908E+03  0.56795967407E+03  0.00000000000E+00 0. -1.
         22    1    1    2    0    0  0.30927856230E+02  0.55161109964E+03  0.73097764850E+03  0.91627488241E+03  0.00000000000E+00 0. -1.
<mgrwt>
<rscale>  0 0.11141147E+04</rscale>
<asrwt>0</asrwt>
<pdfrwt beam="1">  1        1 0.24148633E+00 0.11141147E+04</pdfrwt>
<pdfrwt beam="2">  1       -1 0.30414493E-01 0.11141147E+04</pdfrwt>
<totfact> 0.58058674E+01</totfact>
</mgrwt>
</event>
<event>
 6    1  0.1072514E-005  0.9080654E+03  0.7818608E-02  0.9415555E-01
          1   -1    0    0  501    0  0.00000000000E+00  0.00000000000E+00  0.96572044374E+03  0.96572044374E+03  0.00000000000E+00 0. -1.
         -1   -1    0    0    0  501 -0.00000000000E+00 -0.00000000000E+00 -0.21346311417E+03  0.21346311417E+03  0.00000000000E+00 0.  1.
         23    2    1    2    0    0 -0.74065513527E+02  0.22610627585E+03 -0.11590690495E+03  0.27900641625E+03  0.88319994458E+02 0.  0.
         13    1    3    3    0    0 -0.33208374035E+02  0.15402108339E+03 -0.11681878525E+03  0.19614259818E+03  0.00000000000E+00 0. -1.
        -13    1    3    3    0    0 -0.40857139492E+02  0.72085192461E+02  0.91188029450E+00  0.82863818071E+02  0.00000000000E+00 0.  1.
         22    1    1    2    0    0  0.74065513527E+02 -0.22610627585E+03  0.86816423452E+03  0.90017714166E+03  0.00000000000E+00 0. -1.
<mgrwt>
<rscale>  0 0.90806540E+03</rscale>
<asrwt>0</asrwt>
<pdfrwt beam="1">  1        1 0.14857237E+00 0.90806540E+03</pdfrwt>
<pdfrwt beam="2">  1       -1 0.32840480E-01 0.90806540E+03</pdfrwt>
<totfact> 0.14084882E+02</totfact>
</mgrwt>
</event>
<event>
 6    1  0.1072514E-005  0.2136160E+04  0.7818608E-02  0.8545480E-01
          2   -1    0    0  501    0  0.00000000000E+00  0.00000000000E+00  0.16891037617E+04  0.16891037617E+04  0.00000000000E+00 0. -1.
         -2   -1    0    0    0  501 -0.00000000000E+00 -0.00000000000E+00 -0.67538487112E+03  0.67538487112E+03  0.00000000000E+00 0.  1.
         23    2    1    2    0    0 -0.67586919971E+03 -0.51347319313E+02  0.14189123580E+04  0.15747940916E+04  0.85020168498E+02 0.  0.
         13    1    3    3    0    0 -0.44614216883E+03 -0.57283362637E+02  0.86118295647E+03  0.97157619514E+03  0.00000000000E+00 0.  1.
        -13    1    3    3    0    0 -0.22972703088E+03  0.59360433241E+01  0.55772940150E+03  0.60321789647E+03  0.00000000000E+00 0. -1.
         22    1    1    2    0    0  0.67586919971E+03  0.51347319313E+02 -0.40519346743E+03  0.78969454118E+03  0.00000000000E+00 0.  1.
<mgrwt>
<rscale>  0 0.21361602E+04</rscale>
<asrwt>0</asrwt>
<pdfrwt beam="1">  1        2 0.25986212E+00 0.21361602E+04</pdfrwt>
<pdfrwt beam="2">  1       -2 0.10390537E+00 0.21361602E+04</pdfrwt>
<totfact> 0.68884898E+00</totfact>
</mgrwt>
</event>
<event>
 6    1  0.1072514E-005  0.3378350E+04  0.7818608E-02  0.8143241E-01
         -2   -1    0    0    0  501 -0.00000000000E+00  0.00000000000E+00  0.22680414114E+04  0.22680414114E+04  0.00000000000E+00 0.  1.
          2   -1    0    0  501    0  0.00000000000E+00 -0.00000000000E+00 -0.12580509323E+04  0.12580509323E+04  0.00000000000E+00 0. -1.
         23    2    1    2    0    0  0.80814259715E+02 -0.16249459668E+04  0.36113155115E+02  0.16299337581E+04  0.91649093600E+02 0.  0.
         11    1    3    3    0    0  0.55730489891E+02 -0.86948206093E+03 -0.24652399780E+02  0.87161498530E+03  0.00000000000E+00 0.  1.
        -11    1    3    3    0    0  0.25083769824E+02 -0.75546390586E+03  0.60765554895E+02  0.75831877283E+03  0.00000000000E+00 0. -1.
         22    1    1    2    0    0 -0.80814259715E+02  0.16249459668E+04  0.97387732399E+03  0.18961585856E+04  0.00000000000E+00 0.  1.
<mgrwt>
<rscale>  0 0.33783497E+04</rscale>
<asrwt>0</asrwt>
<pdfrwt beam="1">  1        2 0.19354630E+00 0.33783497E+04</pdfrwt>
<pdfrwt beam="2">  1       -2 0.34892945E+00 0.33783497E+04</pdfrwt>
<totfact> 0.22933497E-01</totfact>
</mgrwt>
</event>
<event>
 6    1  0.1072514E-005  0.1883129E+04  0.7818608E-02  0.8663300E-01
         -2   -1    0    0    0  501 -0.00000000000E+00  0.00000000000E+00  0.70894839979E+03  0.70894839979E+03  0.00000000000E+00 0.  1.
          2   -1    0    0  501    0  0.00000000000E+00 -0.00000000000E+00 -0.12505057046E+04  0.12505057046E+04  0.00000000000E+00 0. -1.
         23    2    1    2    0    0  0.13548392057E+03  0.56840218396E+03 -0.10367064337E+04  0.11935496749E+04  0.91453054970E+02 0.  0.
         11    1    3    3    0    0  0.67245642707E+02  0.44820114457E+03 -0.79568151227E+03  0.91570481676E+03  0.00000000000E+00 0. -1.
        -11    1    3    3    0    0  0.68238277862E+02  0.12020103939E+03 -0.24102492139E+03  0.27784485809E+03  0.00000000000E+00 0.  1.
         22    1    1    2    0    0 -0.13548392057E+03 -0.56840218396E+03  0.49514912882E+03  0.76590442957E+03  0.00000000000E+00 0.  1.
<mgrwt>
<rscale>  0 0.18831293E+04</rscale>
<asrwt>0</asrwt>
<pdfrwt beam="1">  1        2 0.19238549E+00 0.18831293E+04</pdfrwt>
<pdfrwt beam="2">  1       -2 0.10906899E+00 0.18831293E+04</pdfrwt>
<totfact> 0.11119649E+01</totfact>
</mgrwt>
</event>
<event>
 6    1  0.1072514E-005  0.4169430E+04  0.7818608E-02  0.7971213E-01
          1   -1    0    0  501    0  0.00000000000E+00  0.00000000000E+00  0.56832602549E+04  0.56832602549E+04  0.00000000000E+00 0. -1.
         -1   -1    0    0    0  501 -0.00000000000E+00 -0.00000000000E+00 -0.76470826874E+03  0.76470826874E+03  0.00000000000E+00 0.  1.
         23    2    1    2    0    0 -0.13443405382E+04  0.15918869254E+04  0.24304802238E+04  0.32026863232E+04  0.92790627263E+02 0.  0.
         11    1    3    3    0    0 -0.88727637943E+03  0.11172600537E+04  0.16682936404E+04  0.21951612860E+04  0.00000000000E+00 0.  1.
        -11    1    3    3    0    0 -0.45706415878E+03  0.47462687170E+03  0.76218658338E+03  0.10075250371E+04  0.00000000000E+00 0. -1.
         22    1    1    2    0    0  0.13443405382E+04 -0.15918869254E+04  0.24880717624E+04  0.32452822005E+04  0.00000000000E+00 0.  1.
<mgrwt>
<rscale>  0 0.41694298E+04</rscale>
<asrwt>0</asrwt>
<pdfrwt beam="1">  1        1 0.87434770E+00 0.41694298E+04</pdfrwt>
<pdfrwt beam="2">  1       -1 0.11764743E+00 0.41694298E+04</pdfrwt>
<totfact> 0.32237168E-04</totfact>
</mgrwt>
</event>
<event>
 6    1  0.1072514E-005  0.3519571E+04  0.7818608E-02  0.8109167E-01
         -2   -1    0    0    0  501 -0.00000000000E+00  0.00000000000E+00  0.15443518117E+04  0.15443518117E+04  0.00000000000E+00 0.  1.
          2   -1    0    0  501    0  0.00000000000E+00 -0.00000000000E+00 -0.20052718600E+04  0.20052718600E+04  0.00000000000E+00 0. -1.
         23    2    1    2    0    0 -0.45656841167E+03  0.27894937846E+03  0.14590240751E+04  0.15565223428E+04  0.87994782124E+02 0.  0.
         13    1    3    3    0    0 -0.34838545479E+03  0.22193092251E+03  0.10115388860E+04  0.10926283345E+04  0.00000000000E+00 0.  1.
        -13    1    3    3    0    0 -0.10818295688E+03  0.57018455943E+02  0.44748518915E+03  0.46389400836E+03  0.00000000000E+00 0. -1.
         22    1    1    2    0    0  0.45656841167E+03 -0.27894937846E+03 -0.19199441234E+04  0.19931013289E+04  0.00000000000E+00 0. -1.
<mgrwt>
<rscale>  0 0.35195711E+04</rscale>
<asrwt>0</asrwt>
<pdfrwt beam="1">  1        2 0.30850336E+00 0.35195711E+04</pdfrwt>
<pdfrwt beam="2">  1       -2 0.23759259E+00 0.35195711E+04</pdfrwt>
<totfact> 0.41743055E-01</totfact>
</mgrwt>
</event>
<event>
 6    1  0.1329195E-005  0.3307967E+04  0.7818608E-02  0.8160871E-01
         -2   -1    0    0    0  501 -0.00000000000E+00  0.00000000000E+00  0.10019087449E+04  0.10019087449E+04  0.00000000000E+00 0.  1.
          2   -1    0    0  501    0  0.00000000000E+00 -0.00000000000E+00 -0.27304494156E+04  0.27304494156E+04  0.00000000000E+00 0. -1.
         23    2    1    2    0    0  0.12398316715E+04 -0.31419365353E+03  0.31595240050E+03  0.13207503683E+04  0.93034351486E+02 0.  0.
         13    1    3    3    0    0  0.72989471892E+03 -0.14862528502E+03  0.15336578996E+03  0.76049775909E+03  0.00000000000E+00 0.  1.
        -13    1    3    3    0    0  0.50993695254E+03 -0.16556836851E+03  0.16258661055E+03  0.56025260923E+03  0.00000000000E+00 0. -1.
         22    1    1    2    0    0 -0.12398316715E+04  0.31419365353E+03 -0.20444930711E+04  0.24116077922E+04  0.00000000000E+00 0. -1.
<mgrwt>
<rscale>  0 0.33079668E+04</rscale>
<asrwt>0</asrwt>
<pdfrwt beam="1">  1        2 0.42006913E+00 0.33079668E+04</pdfrwt>
<pdfrwt beam="2">  1       -2 0.15413981E+00 0.33079668E+04</pdfrwt>
<totfact> 0.59204158E-01</totfact>
</mgrwt>
</event>
<event>
 6    1  0.1072514E-005  0.2793624E+04  0.7818608E-02  0.8305250E-01
         -2   -1    0    0    0  501 -0.00000000000E+00  0.00000000000E+00  0.12201646428E+04  0.12201646428E+04  0.00000000000E+00 0.  1.
          2   -1    0    0  501    0  0.00000000000E+00 -0.00000000000E+00 -0.15990336740E+04  0.15990336740E+04  0.00000000000E+00 0. -1.
         23    2    1    2    0    0  0.43896791314E+03 -0.26080146138E+03 -0.15000691771E+04  0.15872080578E+04  0.91168259790E+02 0.  0.
         13    1    3    3    0    0  0.95421893776E+02 -0.42659183356E+02 -0.42581028769E+03  0.43845130270E+03  0.00000000000E+00 0. -1.
        -13    1    3    3    0    0  0.34354601936E+03 -0.21814227802E+03 -0.10742588894E+04  0.11487567551E+04  0.00000000000E+00 0.  1.
         22    1    1    2    0    0 -0.43896791314E+03  0.26080146138E+03  0.11212001459E+04  0.12319902590E+04  0.00000000000E+00 0.  1.
<mgrwt>
<rscale>  0 0.27936244E+04</rscale>
<asrwt>0</asrwt>
<pdfrwt beam="1">  1        2 0.24600518E+00 0.27936244E+04</pdfrwt>
<pdfrwt beam="2">  1       -2 0.18771764E+00 0.27936244E+04</pdfrwt>
<totfact> 0.15612945E+00</totfact>
</mgrwt>
</event>
<event>
 6    1  0.1072514E-005  0.1892556E+04  0.7818608E-02  0.8658570E-01
          2   -1    0    0  501    0  0.00000000000E+00  0.00000000000E+00  0.21501216682E+04  0.21501216682E+04  0.00000000000E+00 0. -1.
         -2   -1    0    0    0  501 -0.00000000000E+00 -0.00000000000E+00 -0.41646132013E+03  0.41646132013E+03  0.00000000000E+00 0.  1.
         23    2    1    2    0    0 -0.53619162803E+03 -0.25115780223E+02  0.19220574077E+04  0.19977018790E+04  0.91519695307E+02 0.  0.
         11    1    3    3    0    0 -0.68754460379E+02 -0.16833835195E+01  0.38041068584E+03  0.38657767590E+03  0.00000000000E+00 0. -1.
        -11    1    3    3    0    0 -0.46743716765E+03 -0.23432396703E+02  0.15416467219E+04  0.16111242031E+04  0.00000000000E+00 0.  1.
         22    1    1    2    0    0  0.53619162803E+03  0.25115780223E+02 -0.18839705966E+03  0.56888110926E+03  0.00000000000E+00 0.  1.
<mgrwt>
<rscale>  0 0.18925565E+04</rscale>
<asrwt>0</asrwt>
<pdfrwt beam="1">  1        2 0.33078794E+00 0.18925565E+04</pdfrwt>
<pdfrwt beam="2">  1       -2 0.64070974E-01 0.18925565E+04</pdfrwt>
<totfact> 0.11623841E+01</totfact>
</mgrwt>
</event>
<event>
 6    1  0.1072514E-005  0.1099284E+04  0.7818608E-02  0.9205890E-01
         -2   -1    0    0    0  501 -0.00000000000E+00  0.00000000000E+00  0.10847743946E+03  0.10847743946E+03  0.00000000000E+00 0.  1.
          2   -1    0    0  501    0  0.00000000000E+00 -0.00000000000E+00 -0.27849686502E+04  0.27849686502E+04  0.00000000000E+00 0. -1.
         23    2    1    2    0    0 -0.43106492830E+02 -0.48309813273E+03 -0.68749042750E+03  0.84616347818E+03  0.90042036423E+02 0.  0.
         11    1    3    3    0    0 -0.61826479639E+02 -0.45708456257E+03 -0.64404696199E+03  0.79217756859E+03  0.00000000000E+00 0. -1.
        -11    1    3    3    0    0  0.18719986809E+02 -0.26013570159E+02 -0.43443465507E+02  0.53985909586E+02  0.00000000000E+00 0.  1.
         22    1    1    2    0    0  0.43106492830E+02  0.48309813273E+03 -0.19890007833E+04  0.20472826115E+04  0.00000000000E+00 0. -1.
<mgrwt>
<rscale>  0 0.10992839E+04</rscale>
<asrwt>0</asrwt>
<pdfrwt beam="1">  1        2 0.42845671E+00 0.10992839E+04</pdfrwt>
<pdfrwt beam="2">  1       -2 0.16688837E-01 0.10992839E+04</pdfrwt>
<totfact> 0.69609466E+01</totfact>
</mgrwt>
</event>
<event>
 6    1  0.1072514E-005  0.3615587E+04  0.7818608E-02  0.8086931E-01
         -2   -1    0    0    0  501 -0.00000000000E+00  0.00000000000E+00  0.15742848269E+04  0.15742848269E+04  0.00000000000E+00 0.  1.
          2   -1    0    0  501    0  0.00000000000E+00 -0.00000000000E+00 -0.20759372809E+04  0.20759372809E+04  0.00000000000E+00 0. -1.
         23    2    1    2    0    0 -0.14310414476E+04 -0.95273088803E+03 -0.81159153915E+03  0.19033282912E+04  0.91662356596E+02 0.  0.
         11    1    3    3    0    0 -0.11886027367E+04 -0.83059297339E+03 -0.69099495637E+03  0.16062799204E+04  0.00000000000E+00 0. -1.
        -11    1    3    3    0    0 -0.24243871095E+03 -0.12213791464E+03 -0.12059658278E+03  0.29704837071E+03  0.00000000000E+00 0.  1.
         22    1    1    2    0    0  0.14310414476E+04  0.95273088803E+03  0.30993908515E+03  0.17468938166E+04  0.00000000000E+00 0.  1.
<mgrwt>
<rscale>  0 0.36155866E+04</rscale>
<asrwt>0</asrwt>
<pdfrwt beam="1">  1        2 0.31937497E+00 0.36155866E+04</pdfrwt>
<pdfrwt beam="2">  1       -2 0.24219767E+00 0.36155866E+04</pdfrwt>
<totfact> 0.35419472E-01</totfact>
</mgrwt>
</event>
<event>
 6    1  0.1072514E-005  0.3420145E+04  0.7818608E-02  0.8132980E-01
         -1   -1    0    0    0  501 -0.00000000000E+00  0.00000000000E+00  0.23247067619E+04  0.23247067619E+04  0.00000000000E+00 0.  1.
          1   -1    0    0  501    0  0.00000000000E+00 -0.00000000000E+00 -0.12579426662E+04  0.12579426662E+04  0.00000000000E+00 0. -1.
         23    2    1    2    0    0 -0.87164995083E+02  0.10081811070E+04 -0.90864202086E+03  0.13631323170E+04  0.92046241786E+02 0.  0.
         13    1    3    3    0    0  0.14133341939E+02  0.19133839644E+03 -0.14689110415E+03  0.24163428934E+03  0.00000000000E+00 0.  1.
        -13    1    3    3    0    0 -0.10129833702E+03  0.81684271057E+03 -0.76175091670E+03  0.11214980276E+04  0.00000000000E+00 0. -1.
         22    1    1    2    0    0  0.87164995083E+02 -0.10081811070E+04  0.19754061166E+04  0.22195171111E+04  0.00000000000E+00 0.  1.
<mgrwt>
<rscale>  0 0.34201449E+04</rscale>
<asrwt>0</asrwt>
<pdfrwt beam="1">  1        1 0.19352964E+00 0.34201449E+04</pdfrwt>
<pdfrwt beam="2">  1       -1 0.35764719E+00 0.34201449E+04</pdfrwt>
<totfact> 0.11003082E-01</totfact>
</mgrwt>
</event>
<event>
 6    1  0.1072514E-005  0.1441489E+04  0.7818608E-02  0.8924323E-01
          1   -1    0    0  501    0  0.00000000000E+00  0.00000000000E+00  0.30517446799E+04  0.30517446799E+04  0.00000000000E+00 0. -1.
         -1   -1    0    0    0  501 -0.00000000000E+00 -0.00000000000E+00 -0.17022141757E+03  0.17022141757E+03  0.00000000000E+00 0.  1.
         23    2    1    2    0    0  0.67959172207E+03  0.13546105387E+02  0.19623461398E+04  0.20787622712E+04  0.91770378469E+02 0.  0.
         13    1    3    3    0    0  0.48103247556E+02 -0.22416424274E+02  0.13588052646E+03  0.14587644078E+03  0.00000000000E+00 0.  1.
        -13    1    3    3    0    0  0.63148847451E+03  0.35962529661E+02  0.18264656133E+04  0.19328858305E+04  0.00000000000E+00 0. -1.
         22    1    1    2    0    0 -0.67959172207E+03 -0.13546105387E+02  0.91917712251E+03  0.11432038262E+04  0.00000000000E+00 0. -1.
<mgrwt>
<rscale>  0 0.14414885E+04</rscale>
<asrwt>0</asrwt>
<pdfrwt beam="1">  1        1 0.46949914E+00 0.14414885E+04</pdfrwt>
<pdfrwt beam="2">  1       -1 0.26187913E-01 0.14414885E+04</pdfrwt>
<totfact> 0.69371216E+00</totfact>
</mgrwt>
</event>
<event>
 6    1  0.1072514E-005  0.3809175E+04  0.7818608E-02  0.8044189E-01
          2   -1    0    0  501    0  0.00000000000E+00  0.00000000000E+00  0.22726055566E+04  0.22726055566E+04  0.00000000000E+00 0. -1.
         -2   -1    0    0    0  501 -0.00000000000E+00 -0.00000000000E+00 -0.15961652207E+04  0.15961652207E+04  0.00000000000E+00 0.  1.
         23    2    1    2    0    0 -0.14930680284E+03 -0.18805324870E+04  0.59648001357E+03  0.19806265536E+04  0.91641596509E+02 0.  0.
         13    1    3    3    0    0 -0.73484822450E+02 -0.11483928977E+04  0.40673333714E+03  0.12205073839E+04  0.00000000000E+00 0. -1.
        -13    1    3    3    0    0 -0.75821980394E+02 -0.73213958927E+03  0.18974667643E+03  0.76011916967E+03  0.00000000000E+00 0.  1.
         22    1    1    2    0    0  0.14930680284E+03  0.18805324870E+04  0.79960322373E+02  0.18881442236E+04  0.00000000000E+00 0.  1.
<mgrwt>
<rscale>  0 0.38091752E+04</rscale>
<asrwt>0</asrwt>
<pdfrwt beam="1">  1        2 0.34963163E+00 0.38091752E+04</pdfrwt>
<pdfrwt beam="2">  1       -2 0.24556388E+00 0.38091752E+04</pdfrwt>
<totfact> 0.25765512E-01</totfact>
</mgrwt>
</event>
<event>
 6    1  0.1072514E-005  0.3487131E+04  0.7818608E-02  0.8116846E-01
          1   -1    0    0  501    0  0.00000000000E+00  0.00000000000E+00  0.17707230140E+04  0.17707230140E+04  0.00000000000E+00 0. -1.
         -1   -1    0    0    0  501 -0.00000000000E+00 -0.00000000000E+00 -0.17168248867E+04  0.17168248867E+04  0.00000000000E+00 0.  1.
         23    2    1    2    0    0 -0.11619901212E+04  0.69377690261E+03 -0.10706476116E+04  0.17279597241E+04  0.89504568033E+02 0.  0.
         13    1    3    3    0    0 -0.58236050656E+02  0.50286592557E+02 -0.82279793560E+02  0.11265053668E+03  0.00000000000E+00 0. -1.
        -13    1    3    3    0    0 -0.11037540705E+04  0.64349031005E+03 -0.98836781799E+03  0.16153091874E+04  0.00000000000E+00 0.  1.
         22    1    1    2    0    0  0.11619901212E+04 -0.69377690261E+03  0.11245457389E+04  0.17595881766E+04  0.00000000000E+00 0. -1.
<mgrwt>
<rscale>  0 0.34871314E+04</rscale>
<asrwt>0</asrwt>
<pdfrwt beam="1">  1        1 0.27241893E+00 0.34871314E+04</pdfrwt>
<pdfrwt beam="2">  1       -1 0.26412691E+00 0.34871314E+04</pdfrwt>
<totfact> 0.19650666E-01</totfact>
</mgrwt>
</event>
<event>
 6    1  0.1072514E-005  0.1856967E+04  0.7818608E-02  0.8676578E-01
          1   -1    0    0  501    0  0.00000000000E+00  0.00000000000E+00  0.12786418375E+04  0.12786418375E+04  0.00000000000E+00 0. -1.
         -1   -1    0    0    0  501 -0.00000000000E+00 -0.00000000000E+00 -0.67421700087E+03  0.67421700087E+03  0.00000000000E+00 0.  1.
         23    2    1    2    0    0  0.57504029861E+03 -0.61381647941E+03  0.71100351394E+03  0.11050374953E+04  0.90221137867E+02 0.  0.
         13    1    3    3    0    0  0.27034903952E+03 -0.30970407793E+03  0.40320637899E+03  0.57583035967E+03  0.00000000000E+00 0. -1.
        -13    1    3    3    0    0  0.30469125910E+03 -0.30411240148E+03  0.30779713495E+03  0.52920713562E+03  0.00000000000E+00 0.  1.
         22    1    1    2    0    0 -0.57504029861E+03  0.61381647941E+03 -0.10657867727E+03  0.84782134313E+03  0.00000000000E+00 0.  1.
<mgrwt>
<rscale>  0 0.18569675E+04</rscale>
<asrwt>0</asrwt>
<pdfrwt beam="1">  1        1 0.19671413E+00 0.18569675E+04</pdfrwt>
<pdfrwt beam="2">  1       -1 0.10372569E+00 0.18569675E+04</pdfrwt>
<totfact> 0.77078159E+00</totfact>
</mgrwt>
</event>
<event>
 6    1  0.2025117E-005  0.2990590E+04  0.7818608E-02  0.8246423E-01
          2   -1    0    0  501    0  0.00000000000E+00  0.00000000000E+00  0.16921108064E+04  0.16921108064E+04  0.00000000000E+00 0. -1.
         -2   -1    0    0    0  501 -0.00000000000E+00 -0.00000000000E+00 -0.13213720002E+04  0.13213720002E+04  0.00000000000E+00 0.  1.
         23    2    1    2    0    0  0.44643962828E+03  0.44864230401E+03 -0.11780384332E+04  0.13403721719E+04  0.90745525227E+02 0.  0.
         11    1    3    3    0    0  0.22671004703E+03  0.21673702245E+03 -0.49001736728E+03  0.58179842090E+03  0.00000000000E+00 0.  1.
        -11    1    3    3    0    0  0.21972958125E+03  0.23190528156E+03 -0.68802106597E+03  0.75857375100E+03  0.00000000000E+00 0. -1.
         22    1    1    2    0    0 -0.44643962828E+03 -0.44864230401E+03  0.15487772395E+04  0.16731106348E+04  0.00000000000E+00 0. -1.
<mgrwt>
<rscale>  0 0.29905905E+04</rscale>
<asrwt>0</asrwt>
<pdfrwt beam="1">  1        2 0.26032474E+00 0.29905905E+04</pdfrwt>
<pdfrwt beam="2">  1       -2 0.20328800E+00 0.29905905E+04</pdfrwt>
<totfact> 0.10742683E+00</totfact>
</mgrwt>
</event>
<event>
 6    1  0.1072514E-005  0.1913822E+04  0.7818608E-02  0.8648007E-01
          2   -1    0    0  501    0  0.00000000000E+00  0.00000000000E+00  0.12899327483E+04  0.12899327483E+04  0.00000000000E+00 0. -1.
         -2   -1    0    0    0  501 -0.00000000000E+00 -0.00000000000E+00 -0.70986552070E+03  0.70986552070E+03  0.00000000000E+00 0.  1.
         23    2    1    2    0    0  0.29601172861E+03  0.38086403402E+03  0.11510742615E+04  0.12523162367E+04  0.10316804347E+03 0.  0.
         11    1    3    3    0    0  0.25199951272E+03  0.32475136639E+03  0.86822514057E+03  0.96061547931E+03  0.00000000000E+00 0. -1.
        -11    1    3    3    0    0  0.44012215893E+02  0.56112667635E+02  0.28284912094E+03  0.29170075734E+03  0.00000000000E+00 0.  1.
         22    1    1    2    0    0 -0.29601172861E+03 -0.38086403402E+03 -0.57100703392E+03  0.74748203234E+03  0.00000000000E+00 0.  1.
<mgrwt>
<rscale>  0 0.19138221E+04</rscale>
<asrwt>0</asrwt>
<pdfrwt beam="1">  1        2 0.19845119E+00 0.19138221E+04</pdfrwt>
<pdfrwt beam="2">  1       -2 0.10921008E+00 0.19138221E+04</pdfrwt>
<totfact> 0.10483052E+01</totfact>
</mgrwt>
</event>
<event>
 6    1  0.1072514E-005  0.2318606E+04  0.7818608E-02  0.8470621E-01
          1   -1    0    0  501    0  0.00000000000E+00  0.00000000000E+00  0.21283082087E+04  0.21283082087E+04  0.00000000000E+00 0. -1.
         -1   -1    0    0    0  501 -0.00000000000E+00 -0.00000000000E+00 -0.63147950090E+03  0.63147950090E+03  0.00000000000E+00 0.  1.
         23    2    1    2    0    0  0.59265992362E+03  0.47771191047E+03 -0.28841478445E+03  0.81902786327E+03  0.90383065107E+02 0.  0.
         13    1    3    3    0    0  0.42783476843E+03  0.30910798210E+03 -0.23219875349E+03  0.57663384812E+03  0.00000000000E+00 0. -1.
        -13    1    3    3    0    0  0.16482515519E+03  0.16860392837E+03 -0.56216030964E+02  0.24239401515E+03  0.00000000000E+00 0.  1.
         22    1    1    2    0    0 -0.59265992362E+03 -0.47771191047E+03  0.17852434922E+04  0.19407598463E+04  0.00000000000E+00 0. -1.
<mgrwt>
<rscale>  0 0.23186056E+04</rscale>
<asrwt>0</asrwt>
<pdfrwt beam="1">  1        1 0.32743203E+00 0.23186056E+04</pdfrwt>
<pdfrwt beam="2">  1       -1 0.97150693E-01 0.23186056E+04</pdfrwt>
<totfact> 0.22391579E+00</totfact>
</mgrwt>
</event>
<event>
 6    1  0.1072514E-005  0.3043733E+04  0.7818608E-02  0.8231352E-01
         -2   -1    0    0    0  501 -0.00000000000E+00  0.00000000000E+00  0.16622570090E+04  0.16622570090E+04  0.00000000000E+00 0.  1.
          2   -1    0    0  501    0  0.00000000000E+00 -0.00000000000E+00 -0.13933330481E+04  0.13933330481E+04  0.00000000000E+00 0. -1.
         23    2    1    2    0    0  0.11719827604E+04  0.94123337019E+03  0.36469830407E+03  0.15493906769E+04  0.90237292459E+02 0.  0.
         13    1    3    3    0    0  0.13501210522E+03  0.74992585237E+02  0.45820131630E+02  0.16109512984E+03  0.00000000000E+00 0. -1.
        -13    1    3    3    0    0  0.10369706552E+04  0.86624078495E+03  0.31887817244E+03  0.13882955471E+04  0.00000000000E+00 0.  1.
         22    1    1    2    0    0 -0.11719827604E+04 -0.94123337019E+03 -0.95774343147E+02  0.15061993801E+04  0.00000000000E+00 0. -1.
<mgrwt>
<rscale>  0 0.30437330E+04</rscale>
<asrwt>0</asrwt>
<pdfrwt beam="1">  1        2 0.21435893E+00 0.30437330E+04</pdfrwt>
<pdfrwt beam="2">  1       -2 0.25573185E+00 0.30437330E+04</pdfrwt>
<totfact> 0.73785081E-01</totfact>
</mgrwt>
</event>
<event>
 6    1  0.1072514E-005  0.1182795E+04  0.7818608E-02  0.9128051E-01
          1   -1    0    0  501    0  0.00000000000E+00  0.00000000000E+00  0.90316571858E+03  0.90316571858E+03  0.00000000000E+00 0.  1.
         -1   -1    0    0    0  501 -0.00000000000E+00 -0.00000000000E+00 -0.38725013250E+03  0.38725013250E+03  0.00000000000E+00 0. -1.
         23    2    1    2    0    0  0.18449667530E+03  0.25129202002E+03 -0.28431977292E+03  0.43160077650E+03  0.90855899553E+02 0.  0.
         13    1    3    3    0    0  0.76500347800E+02  0.17580193474E+03 -0.18673419137E+03  0.26763460483E+03  0.00000000000E+00 0.  1.
        -13    1    3    3    0    0  0.10799632750E+03  0.75490085274E+02 -0.97585581547E+02  0.16396617168E+03  0.00000000000E+00 0. -1.
         22    1    1    2    0    0 -0.18449667530E+03 -0.25129202002E+03  0.80023535900E+03  0.85881507457E+03  0.00000000000E+00 0.  1.
<mgrwt>
<rscale>  0 0.11827951E+04</rscale>
<asrwt>0</asrwt>
<pdfrwt beam="1">  1        1 0.13894857E+00 0.11827951E+04</pdfrwt>
<pdfrwt beam="2">  1       -1 0.59576944E-01 0.11827951E+04</pdfrwt>
<totfact> 0.51196917E+01</totfact>
</mgrwt>
</event>
<event>
 6    1  0.1072514E-005  0.2427054E+04  0.7818608E-02  0.8429444E-01
         -1   -1    0    0    0  501 -0.00000000000E+00  0.00000000000E+00  0.67351400765E+03  0.67351400765E+03  0.00000000000E+00 0.  1.
          1   -1    0    0  501    0  0.00000000000E+00 -0.00000000000E+00 -0.21865137185E+04  0.21865137185E+04  0.00000000000E+00 0. -1.
         23    2    1    2    0    0 -0.43333774131E+02  0.60512006409E+03 -0.19937428829E+04  0.20859721045E+04  0.90668791294E+02 0.  0.
         11    1    3    3    0    0  0.16069247173E+02  0.17482590930E+03 -0.67907781549E+03  0.70140501763E+03  0.00000000000E+00 0. -1.
        -11    1    3    3    0    0 -0.59403021304E+02  0.43029415479E+03 -0.13146650674E+04  0.13845670869E+04  0.00000000000E+00 0.  1.
         22    1    1    2    0    0  0.43333774131E+02 -0.60512006409E+03  0.48074317204E+03  0.77405562165E+03  0.00000000000E+00 0.  1.
<mgrwt>
<rscale>  0 0.24270539E+04</rscale>
<asrwt>0</asrwt>
<pdfrwt beam="1">  1        1 0.33638672E+00 0.24270539E+04</pdfrwt>
<pdfrwt beam="2">  1       -1 0.10361754E+00 0.24270539E+04</pdfrwt>
<totfact> 0.17463000E+00</totfact>
</mgrwt>
</event>
<event>
 6    1  0.1072514E-005  0.2252718E+04  0.7818608E-02  0.8496801E-01
          2   -1    0    0  501    0  0.00000000000E+00  0.00000000000E+00  0.20344250218E+04  0.20344250218E+04  0.00000000000E+00 0. -1.
         -2   -1    0    0    0  501 -0.00000000000E+00 -0.00000000000E+00 -0.62360820943E+03  0.62360820943E+03  0.00000000000E+00 0.  1.
         23    2    1    2    0    0 -0.84328882966E+03 -0.21207027212E+03 -0.13468552869E+03  0.88470660121E+03  0.91955032710E+02 0.  0.
         11    1    3    3    0    0 -0.41073643229E+03 -0.14624352930E+03 -0.86917376023E+02  0.44457419733E+03  0.00000000000E+00 0.  1.
        -11    1    3    3    0    0 -0.43255239737E+03 -0.65826742817E+02 -0.47768152668E+02  0.44013240388E+03  0.00000000000E+00 0. -1.
         22    1    1    2    0    0  0.84328882966E+03  0.21207027212E+03  0.15455023410E+04  0.17733266300E+04  0.00000000000E+00 0. -1.
<mgrwt>
<rscale>  0 0.22527176E+04</rscale>
<asrwt>0</asrwt>
<pdfrwt beam="1">  1        2 0.31298846E+00 0.22527176E+04</pdfrwt>
<pdfrwt beam="2">  1       -2 0.95939726E-01 0.22527176E+04</pdfrwt>
<totfact> 0.52984129E+00</totfact>
</mgrwt>
</event>
<event>
 6    1  0.1072514E-005  0.4030816E+04  0.7818608E-02  0.7998359E-01
          2   -1    0    0  501    0  0.00000000000E+00  0.00000000000E+00  0.28208714258E+04  0.28208714258E+04  0.00000000000E+00 0. -1.
         -2   -1    0    0    0  501 -0.00000000000E+00 -0.00000000000E+00 -0.14399343786E+04  0.14399343786E+04  0.00000000000E+00 0.  1.
         23    2    1    2    0    0  0.18417332069E+04 -0.97215675135E+02  0.15471140281E+04  0.24090372222E+04  0.92013199983E+02 0.  0.
         11    1    3    3    0    0  0.82664329088E+03 -0.27874936534E+02  0.74996630421E+03  0.11164970219E+04  0.00000000000E+00 0.  1.
        -11    1    3    3    0    0  0.10150899160E+04 -0.69340738601E+02  0.79714772393E+03  0.12925402003E+04  0.00000000000E+00 0. -1.
         22    1    1    2    0    0 -0.18417332069E+04  0.97215675135E+02 -0.16617698086E+03  0.18517685822E+04  0.00000000000E+00 0.  1.
<mgrwt>
<rscale>  0 0.40308162E+04</rscale>
<asrwt>0</asrwt>
<pdfrwt beam="1">  1        2 0.43398022E+00 0.40308162E+04</pdfrwt>
<pdfrwt beam="2">  1       -2 0.22152837E+00 0.40308162E+04</pdfrwt>
<totfact> 0.17078057E-01</totfact>
</mgrwt>
</event>
<event>
 6    1  0.1072514E-005  0.1862115E+04  0.7818608E-02  0.8673947E-01
         -1   -1    0    0    0  501 -0.00000000000E+00  0.00000000000E+00  0.46924188584E+03  0.46924188584E+03  0.00000000000E+00 0.  1.
          1   -1    0    0  501    0  0.00000000000E+00 -0.00000000000E+00 -0.18473807166E+04  0.18473807166E+04  0.00000000000E+00 0. -1.
         23    2    1    2    0    0 -0.23121133807E+03  0.26273373210E+03 -0.17613343696E+04  0.17976558233E+04  0.82340759181E+02 0.  0.
         11    1    3    3    0    0 -0.13542118229E+03  0.11189974352E+03 -0.10255168371E+04  0.10404543394E+04  0.00000000000E+00 0. -1.
        -11    1    3    3    0    0 -0.95790155785E+02  0.15083398859E+03 -0.73581753255E+03  0.75720148393E+03  0.00000000000E+00 0.  1.
         22    1    1    2    0    0  0.23121133807E+03 -0.26273373210E+03  0.38319553887E+03  0.51896677914E+03  0.00000000000E+00 0.  1.
<mgrwt>
<rscale>  0 0.18621154E+04</rscale>
<asrwt>0</asrwt>
<pdfrwt beam="1">  1        1 0.28421242E+00 0.18621154E+04</pdfrwt>
<pdfrwt beam="2">  1       -1 0.72191059E-01 0.18621154E+04</pdfrwt>
<totfact> 0.68736860E+00</totfact>
</mgrwt>
</event>
<event>
 6    1  0.1072514E-005  0.1972295E+04  0.7818608E-02  0.8619684E-01
          1   -1    0    0  501    0  0.00000000000E+00  0.00000000000E+00  0.77773012939E+03  0.77773012939E+03  0.00000000000E+00 0. -1.
         -1   -1    0    0    0  501 -0.00000000000E+00 -0.00000000000E+00 -0.12504166044E+04  0.12504166044E+04  0.00000000000E+00 0.  1.
         23    2    1    2    0    0 -0.69142123731E+03 -0.47895755448E+03 -0.76182665475E+03  0.11387279854E+04  0.94116451983E+02 0.  0.
         13    1    3    3    0    0 -0.56004729038E+03 -0.38327033487E+03 -0.66167972073E+03  0.94782338538E+03  0.00000000000E+00 0. -1.
        -13    1    3    3    0    0 -0.13137394693E+03 -0.95687219608E+02 -0.10014693402E+03  0.19090460005E+03  0.00000000000E+00 0.  1.
         22    1    1    2    0    0  0.69142123731E+03  0.47895755448E+03  0.28914017973E+03  0.88941874836E+03  0.00000000000E+00 0. -1.
<mgrwt>
<rscale>  0 0.19722948E+04</rscale>
<asrwt>0</asrwt>
<pdfrwt beam="1">  1        1 0.11965079E+00 0.19722948E+04</pdfrwt>
<pdfrwt beam="2">  1       -1 0.19237178E+00 0.19722948E+04</pdfrwt>
<totfact> 0.36572834E+00</totfact>
</mgrwt>
</event>
<event>
 6    1  0.1072514E-005  0.9976485E+03  0.7818608E-02  0.9311128E-01
         -1   -1    0    0    0  501 -0.00000000000E+00  0.00000000000E+00  0.29200271227E+03  0.29200271227E+03  0.00000000000E+00 0.  1.
          1   -1    0    0  501    0  0.00000000000E+00 -0.00000000000E+00 -0.85213472468E+03  0.85213472468E+03  0.00000000000E+00 0. -1.
         23    2    1    2    0    0 -0.35517720887E+03 -0.33781415656E+03 -0.35720538251E+03  0.61362026363E+03  0.93085383207E+02 0.  0.
         13    1    3    3    0    0 -0.69196195137E+02 -0.52082399909E+02 -0.10909605481E+03  0.13929335582E+03  0.00000000000E+00 0. -1.
        -13    1    3    3    0    0 -0.28598101374E+03 -0.28573175665E+03 -0.24810932770E+03  0.47432690780E+03  0.00000000000E+00 0.  1.
         22    1    1    2    0    0  0.35517720887E+03  0.33781415656E+03 -0.20292662989E+03  0.53051717332E+03  0.00000000000E+00 0.  1.
<mgrwt>
<rscale>  0 0.99764854E+03</rscale>
<asrwt>0</asrwt>
<pdfrwt beam="1">  1        1 0.13109765E+00 0.99764854E+03</pdfrwt>
<pdfrwt beam="2">  1       -1 0.44923494E-01 0.99764854E+03</pdfrwt>
<totfact> 0.98194272E+01</totfact>
</mgrwt>
</event>
<event>
 6    1  0.1072514E-005  0.9154879E+03  0.7818608E-02  0.9406425E-01
         -1   -1    0    0    0  501 -0.00000000000E+00  0.00000000000E+00  0.29067755528E+03  0.29067755528E+03  0.00000000000E+00 0.  1.
          1   -1    0    0  501    0  0.00000000000E+00 -0.00000000000E+00 -0.72083144368E+03  0.72083144368E+03  0.00000000000E+00 0. -1.
         23    2    1    2    0    0  0.26688994069E+03  0.13549275053E+03 -0.59325545004E+03  0.67064150961E+03  0.90661345205E+02 0.  0.
         11    1    3    3    0    0  0.87936768518E+02  0.66862775874E+00 -0.14699375721E+03  0.17129065059E+03  0.00000000000E+00 0. -1.
        -11    1    3    3    0    0  0.17895317217E+03  0.13482412278E+03 -0.44626169283E+03  0.49935085902E+03  0.00000000000E+00 0.  1.
         22    1    1    2    0    0 -0.26688994069E+03 -0.13549275053E+03  0.16310156164E+03  0.34086748935E+03  0.00000000000E+00 0.  1.
<mgrwt>
<rscale>  0 0.91548790E+03</rscale>
<asrwt>0</asrwt>
<pdfrwt beam="1">  1        1 0.11089714E+00 0.91548790E+03</pdfrwt>
<pdfrwt beam="2">  1       -1 0.44719624E-01 0.91548790E+03</pdfrwt>
<totfact> 0.12989173E+02</totfact>
</mgrwt>
</event>
<event>
 6    1  0.1072514E-005  0.2700968E+04  0.7818608E-02  0.8334691E-01
         -2   -1    0    0    0  501 -0.00000000000E+00  0.00000000000E+00  0.14607298170E+04  0.14607298170E+04  0.00000000000E+00 0.  1.
          2   -1    0    0  501    0  0.00000000000E+00 -0.00000000000E+00 -0.12485591337E+04  0.12485591337E+04  0.00000000000E+00 0. -1.
         23    2    1    2    0    0  0.42069401263E+03  0.75677386335E+03  0.11435727286E+04  0.14375972024E+04  0.96109304453E+02 0.  0.
         11    1    3    3    0    0  0.27750320118E+03  0.58074962756E+03  0.82150330937E+03  0.10436215041E+04  0.00000000000E+00 0.  1.
        -11    1    3    3    0    0  0.14319081146E+03  0.17602423579E+03  0.32206941921E+03  0.39397569831E+03  0.00000000000E+00 0. -1.
         22    1    1    2    0    0 -0.42069401263E+03 -0.75677386335E+03 -0.93140204526E+03  0.12716917482E+04  0.00000000000E+00 0. -1.
<mgrwt>
<rscale>  0 0.27009684E+04</rscale>
<asrwt>0</asrwt>
<pdfrwt beam="1">  1        2 0.19208602E+00 0.27009684E+04</pdfrwt>
<pdfrwt beam="2">  1       -2 0.22472766E+00 0.27009684E+04</pdfrwt>
<totfact> 0.14344393E+00</totfact>
</mgrwt>
</event>
<event>
 6    1  0.1072514E-005  0.2008226E+04  0.7818608E-02  0.8602784E-01
          1   -1    0    0  501    0  0.00000000000E+00  0.00000000000E+00  0.14910616524E+04  0.14910616524E+04  0.00000000000E+00 0. -1.
         -1   -1    0    0    0  501 -0.00000000000E+00 -0.00000000000E+00 -0.67619132969E+03  0.67619132969E+03  0.00000000000E+00 0.  1.
         23    2    1    2    0    0 -0.81631473845E+03  0.40189965229E+03 -0.44687369255E+02  0.91556112365E+03  0.91444668779E+02 0.  0.
         11    1    3    3    0    0 -0.90392878490E+02  0.28237884396E+02 -0.28712564662E+02  0.98957879759E+02  0.00000000000E+00 0. -1.
        -11    1    3    3    0    0 -0.72592185996E+03  0.37366176789E+03 -0.15974804593E+02  0.81660324389E+03  0.00000000000E+00 0.  1.
         22    1    1    2    0    0  0.81631473845E+03 -0.40189965229E+03  0.85955769200E+03  0.12516918585E+04  0.00000000000E+00 0. -1.
<mgrwt>
<rscale>  0 0.20082260E+04</rscale>
<asrwt>0</asrwt>
<pdfrwt beam="1">  1        1 0.22939410E+00 0.20082260E+04</pdfrwt>
<pdfrwt beam="2">  1       -1 0.10402944E+00 0.20082260E+04</pdfrwt>
<totfact> 0.53513869E+00</totfact>
</mgrwt>
</event>
<event>
 6    1  0.1072514E-005  0.2246254E+04  0.7818608E-02  0.8499419E-01
         -1   -1    0    0    0  501 -0.00000000000E+00  0.00000000000E+00  0.18176409928E+04  0.18176409928E+04  0.00000000000E+00 0.  1.
          1   -1    0    0  501    0  0.00000000000E+00 -0.00000000000E+00 -0.69398422114E+03  0.69398422114E+03  0.00000000000E+00 0. -1.
         23    2    1    2    0    0  0.52577004729E+03  0.46744910880E+03 -0.41356247288E+03  0.82106737177E+03  0.90415142826E+02 0.  0.
         13    1    3    3    0    0  0.37484194310E+03  0.38465947981E+03 -0.30818740189E+03  0.61923248655E+03  0.00000000000E+00 0.  1.
        -13    1    3    3    0    0  0.15092810419E+03  0.82789628991E+02 -0.10537507099E+03  0.20183488521E+03  0.00000000000E+00 0. -1.
         22    1    1    2    0    0 -0.52577004729E+03 -0.46744910880E+03  0.15372192445E+04  0.16905578421E+04  0.00000000000E+00 0.  1.
<mgrwt>
<rscale>  0 0.22462539E+04</rscale>
<asrwt>0</asrwt>
<pdfrwt beam="1">  1        1 0.10676680E+00 0.22462539E+04</pdfrwt>
<pdfrwt beam="2">  1       -1 0.27963707E+00 0.22462539E+04</pdfrwt>
<totfact> 0.11218339E+00</totfact>
</mgrwt>
</event>
<event>
 6    1  0.1072514E-005  0.3500416E+04  0.7818608E-02  0.8113691E-01
         -2   -1    0    0    0  501 -0.00000000000E+00  0.00000000000E+00  0.77354814686E+03  0.77354814686E+03  0.00000000000E+00 0.  1.
          2   -1    0    0  501    0  0.00000000000E+00 -0.00000000000E+00 -0.39599713988E+04  0.39599713988E+04  0.00000000000E+00 0. -1.
         23    2    1    2    0    0  0.45975397460E+03 -0.84379605691E+03  0.38194653068E+03  0.10380319718E+04  0.90894000948E+02 0.  0.
         11    1    3    3    0    0  0.25723330268E+03 -0.39980007305E+03  0.22017488091E+03  0.52391416148E+03  0.00000000000E+00 0.  1.
        -11    1    3    3    0    0  0.20252067192E+03 -0.44399598386E+03  0.16177164978E+03  0.51411781035E+03  0.00000000000E+00 0. -1.
         22    1    1    2    0    0 -0.45975397460E+03  0.84379605691E+03 -0.35683697827E+04  0.36954875739E+04  0.00000000000E+00 0. -1.
<mgrwt>
<rscale>  0 0.35004163E+04</rscale>
<asrwt>0</asrwt>
<pdfrwt beam="1">  1        2 0.60922636E+00 0.35004163E+04</pdfrwt>
<pdfrwt beam="2">  1       -2 0.11900741E+00 0.35004163E+04</pdfrwt>
<totfact> 0.16370242E-01</totfact>
</mgrwt>
</event>
<event>
 6    1  0.1072514E-005  0.3905675E+04  0.7818608E-02  0.8023850E-01
         -1   -1    0    0    0  501 -0.00000000000E+00  0.00000000000E+00  0.15588997853E+04  0.15588997853E+04  0.00000000000E+00 0.  1.
          1   -1    0    0  501    0  0.00000000000E+00 -0.00000000000E+00 -0.24463241405E+04  0.24463241405E+04  0.00000000000E+00 0. -1.
         23    2    1    2    0    0 -0.12318601860E+04 -0.52510369671E+02  0.11074636605E+04  0.16600554772E+04  0.95244797178E+02 0.  0.
         11    1    3    3    0    0 -0.30458555840E+03  0.20104667587E+02  0.24151926794E+03  0.38924043576E+03  0.00000000000E+00 0. -1.
        -11    1    3    3    0    0 -0.92727462757E+03 -0.72615037258E+02  0.86594439260E+03  0.12708150415E+04  0.00000000000E+00 0.  1.
         22    1    1    2    0    0  0.12318601860E+04  0.52510369671E+02 -0.19948880157E+04  0.23451684485E+04  0.00000000000E+00 0.  1.
<mgrwt>
<rscale>  0 0.39056749E+04</rscale>
<asrwt>0</asrwt>
<pdfrwt beam="1">  1        1 0.37635756E+00 0.39056749E+04</pdfrwt>
<pdfrwt beam="2">  1       -1 0.23983074E+00 0.39056749E+04</pdfrwt>
<totfact> 0.94616628E-02</totfact>
</mgrwt>
</event>
<event>
 6    1  0.1072514E-005  0.1154537E+04  0.7818608E-02  0.9153609E-01
          2   -1    0    0  501    0  0.00000000000E+00  0.00000000000E+00  0.19154601467E+04  0.19154601467E+04  0.00000000000E+00 0. -1.
         -2   -1    0    0    0  501 -0.00000000000E+00 -0.00000000000E+00 -0.17397316404E+03  0.17397316404E+03  0.00000000000E+00 0.  1.
         23    2    1    2    0    0 -0.49348053044E+02 -0.49942742432E+03  0.13789726313E+04  0.14703374883E+04  0.91999070496E+02 0.  0.
         11    1    3    3    0    0 -0.23512646381E+01 -0.31253979053E+02  0.17314948312E+03  0.17596330060E+03  0.00000000000E+00 0.  1.
        -11    1    3    3    0    0 -0.46996788406E+02 -0.46817344527E+03  0.12058231482E+04  0.12943741877E+04  0.00000000000E+00 0. -1.
         22    1    1    2    0    0  0.49348053044E+02  0.49942742432E+03  0.36251435138E+03  0.61909582252E+03  0.00000000000E+00 0.  1.
<mgrwt>
<rscale>  0 0.11545366E+04</rscale>
<asrwt>0</asrwt>
<pdfrwt beam="1">  1        2 0.29468616E+00 0.11545366E+04</pdfrwt>
<pdfrwt beam="2">  1       -2 0.26765103E-01 0.11545366E+04</pdfrwt>
<totfact> 0.93417168E+01</totfact>
</mgrwt>
</event>
<event>
 6    1  0.1072514E-005  0.3786291E+04  0.7818608E-02  0.8049103E-01
         -1   -1    0    0    0  501 -0.00000000000E+00  0.00000000000E+00  0.98581367963E+03  0.98581367963E+03  0.00000000000E+00 0.  1.
          1   -1    0    0  501    0  0.00000000000E+00 -0.00000000000E+00 -0.36355754579E+04  0.36355754579E+04  0.00000000000E+00 0. -1.
         23    2    1    2    0    0  0.16767065727E+04 -0.85263568316E+03 -0.15741428476E+04  0.24545276692E+04  0.91912104076E+02 0.  0.
         13    1    3    3    0    0  0.13355837892E+04 -0.67822397266E+03 -0.13006791759E+04  0.19838190778E+04  0.00000000000E+00 0. -1.
        -13    1    3    3    0    0  0.34112278350E+03 -0.17441171050E+03 -0.27346367172E+03  0.47070859131E+03  0.00000000000E+00 0.  1.
         22    1    1    2    0    0 -0.16767065727E+04  0.85263568316E+03 -0.10756189307E+04  0.21668614684E+04  0.00000000000E+00 0.  1.
<mgrwt>
<rscale>  0 0.37862911E+04</rscale>
<asrwt>0</asrwt>
<pdfrwt beam="1">  1        1 0.55931930E+00 0.37862911E+04</pdfrwt>
<pdfrwt beam="2">  1       -1 0.15166364E+00 0.37862911E+04</pdfrwt>
<totfact> 0.52422257E-02</totfact>
</mgrwt>
</event>
<event>
 6    1  0.1072514E-005  0.3582146E+04  0.7818608E-02  0.8094594E-01
          2   -1    0    0  501    0  0.00000000000E+00  0.00000000000E+00  0.13055132716E+04  0.13055132716E+04  0.00000000000E+00 0. -1.
         -2   -1    0    0    0  501 -0.00000000000E+00 -0.00000000000E+00 -0.24572269299E+04  0.24572269299E+04  0.00000000000E+00 0.  1.
         23    2    1    2    0    0  0.11456895033E+04 -0.25724266397E+03 -0.19952743124E+04  0.23169280410E+04  0.90872105711E+02 0.  0.
         13    1    3    3    0    0  0.32873934965E+03 -0.95471315860E+02 -0.51325205045E+03  0.61693759770E+03  0.00000000000E+00 0. -1.
        -13    1    3    3    0    0  0.81695015363E+03 -0.16177134811E+03 -0.14820222619E+04  0.16999904433E+04  0.00000000000E+00 0.  1.
         22    1    1    2    0    0 -0.11456895033E+04  0.25724266397E+03  0.84356065408E+03  0.14458121604E+04  0.00000000000E+00 0. -1.
<mgrwt>
<rscale>  0 0.35821459E+04</rscale>
<asrwt>0</asrwt>
<pdfrwt beam="1">  1        2 0.20084820E+00 0.35821459E+04</pdfrwt>
<pdfrwt beam="2">  1       -2 0.37803491E+00 0.35821459E+04</pdfrwt>
<totfact> 0.13798248E-01</totfact>
</mgrwt>
</event>
<event>
 6    1  0.1072514E-005  0.2291725E+04  0.7818608E-02  0.8481191E-01
         -1   -1    0    0    0  501 -0.00000000000E+00  0.00000000000E+00  0.12038115094E+04  0.12038115094E+04  0.00000000000E+00 0.  1.
          1   -1    0    0  501    0  0.00000000000E+00 -0.00000000000E+00 -0.10907027875E+04  0.10907027875E+04  0.00000000000E+00 0. -1.
         23    2    1    2    0    0 -0.86214770844E+03 -0.49176181287E+03  0.62634838821E+03  0.11771319510E+04  0.90548191285E+02 0.  0.
         13    1    3    3    0    0 -0.24973321580E+03 -0.18697577846E+03  0.21558407667E+03  0.37921381162E+03  0.00000000000E+00 0.  1.
        -13    1    3    3    0    0 -0.61241449264E+03 -0.30478603441E+03  0.41076431154E+03  0.79791813941E+03  0.00000000000E+00 0. -1.
         22    1    1    2    0    0  0.86214770844E+03  0.49176181287E+03 -0.51323966638E+03  0.11173823459E+04  0.00000000000E+00 0. -1.
<mgrwt>
<rscale>  0 0.22917247E+04</rscale>
<asrwt>0</asrwt>
<pdfrwt beam="1">  1        1 0.16780043E+00 0.22917247E+04</pdfrwt>
<pdfrwt beam="2">  1       -1 0.18520177E+00 0.22917247E+04</pdfrwt>
<totfact> 0.22266785E+00</totfact>
</mgrwt>
</event>
<event>
 6    1  0.1072514E-005  0.1735384E+04  0.7818608E-02  0.8741437E-01
         -1   -1    0    0    0  501 -0.00000000000E+00  0.00000000000E+00  0.30762341194E+03  0.30762341194E+03  0.00000000000E+00 0.  1.
          1   -1    0    0  501    0  0.00000000000E+00 -0.00000000000E+00 -0.24474388265E+04  0.24474388265E+04  0.00000000000E+00 0. -1.
         23    2    1    2    0    0  0.70690356160E+03 -0.35293409161E+03 -0.16329302516E+04  0.18163356079E+04  0.91316568038E+02 0.  0.
         11    1    3    3    0    0  0.41555934160E+03 -0.17373521149E+03 -0.10042215077E+04  0.11006063450E+04  0.00000000000E+00 0.  1.
        -11    1    3    3    0    0  0.29134422000E+03 -0.17919888012E+03 -0.62870874387E+03  0.71572926291E+03  0.00000000000E+00 0. -1.
         22    1    1    2    0    0 -0.70690356160E+03  0.35293409161E+03 -0.50688516297E+03  0.93872663053E+03  0.00000000000E+00 0.  1.
<mgrwt>
<rscale>  0 0.17353841E+04</rscale>
<asrwt>0</asrwt>
<pdfrwt beam="1">  1        1 0.37652907E+00 0.17353841E+04</pdfrwt>
<pdfrwt beam="2">  1       -1 0.47326677E-01 0.17353841E+04</pdfrwt>
<totfact> 0.62345786E+00</totfact>
</mgrwt>
</event>
<event>
 6    1  0.1072514E-005  0.4238494E+04  0.7818608E-02  0.7958090E-01
          2   -1    0    0  501    0  0.00000000000E+00  0.00000000000E+00  0.22646762328E+04  0.22646762328E+04  0.00000000000E+00 0. -1.
         -2   -1    0    0    0  501 -0.00000000000E+00 -0.00000000000E+00 -0.19831568111E+04  0.19831568111E+04  0.00000000000E+00 0.  1.
         23    2    1    2    0    0  0.18174648331E+04  0.71608997460E+03  0.96188752149E+03  0.21792915232E+04  0.90114748243E+02 0.  0.
         13    1    3    3    0    0  0.24300853479E+03  0.85338382797E+02  0.95233322415E+02  0.27460002414E+03  0.00000000000E+00 0.  1.
        -13    1    3    3    0    0  0.15744562983E+04  0.63075159181E+03  0.86665419907E+03  0.19046914991E+04  0.00000000000E+00 0. -1.
         22    1    1    2    0    0 -0.18174648331E+04 -0.71608997460E+03 -0.68036809978E+03  0.20685415206E+04  0.00000000000E+00 0.  1.
<mgrwt>
<rscale>  0 0.42384941E+04</rscale>
<asrwt>0</asrwt>
<pdfrwt beam="1">  1        2 0.34841173E+00 0.42384941E+04</pdfrwt>
<pdfrwt beam="2">  1       -2 0.30510105E+00 0.42384941E+04</pdfrwt>
<totfact> 0.10866082E-01</totfact>
</mgrwt>
</event>
<event>
 6    1  0.1072514E-005  0.2088038E+04  0.7818608E-02  0.8566531E-01
         -1   -1    0    0    0  501 -0.00000000000E+00  0.00000000000E+00  0.73375648480E+03  0.73375648480E+03  0.00000000000E+00 0.  1.
          1   -1    0    0  501    0  0.00000000000E+00 -0.00000000000E+00 -0.14854729019E+04  0.14854729019E+04  0.00000000000E+00 0. -1.
         23    2    1    2    0    0  0.74733475898E+03  0.48202641661E+03 -0.95384114544E+03  0.13072463200E+04  0.90671396157E+02 0.  0.
         13    1    3    3    0    0  0.49307495277E+03  0.27671560183E+03 -0.64274334074E+03  0.85604522976E+03  0.00000000000E+00 0. -1.
        -13    1    3    3    0    0  0.25425980621E+03  0.20531081478E+03 -0.31109780471E+03  0.45120109021E+03  0.00000000000E+00 0.  1.
         22    1    1    2    0    0 -0.74733475898E+03 -0.48202641661E+03  0.20212472830E+03  0.91198306677E+03  0.00000000000E+00 0.  1.
<mgrwt>
<rscale>  0 0.20880377E+04</rscale>
<asrwt>0</asrwt>
<pdfrwt beam="1">  1        1 0.22853429E+00 0.20880377E+04</pdfrwt>
<pdfrwt beam="2">  1       -1 0.11288561E+00 0.20880377E+04</pdfrwt>
<totfact> 0.44232577E+00</totfact>
</mgrwt>
</event>
<event>
 6    1  0.1072514E-005  0.4911241E+04  0.7818608E-02  0.7842347E-01
         -2   -1    0    0    0  501 -0.00000000000E+00  0.00000000000E+00  0.31847269394E+04  0.31847269394E+04  0.00000000000E+00 0.  1.
          2   -1    0    0  501    0  0.00000000000E+00 -0.00000000000E+00 -0.18934348791E+04  0.18934348791E+04  0.00000000000E+00 0. -1.
         23    2    1    2    0    0  0.17935881619E+04 -0.16393542331E+04  0.28541861263E+03  0.24482906831E+04  0.90679039819E+02 0.  0.
         11    1    3    3    0    0  0.88338841813E+03 -0.78727253368E+03  0.95876607016E+02  0.11871669905E+04  0.00000000000E+00 0. -1.
        -11    1    3    3    0    0  0.91019974376E+03 -0.85208169945E+03  0.18954200561E+03  0.12611236926E+04  0.00000000000E+00 0.  1.
         22    1    1    2    0    0 -0.17935881619E+04  0.16393542331E+04  0.10058734476E+04  0.26298711354E+04  0.00000000000E+00 0.  1.
<mgrwt>
<rscale>  0 0.49112414E+04</rscale>
<asrwt>0</asrwt>
<pdfrwt beam="1">  1        2 0.29129767E+00 0.49112414E+04</pdfrwt>
<pdfrwt beam="2">  1       -2 0.48995799E+00 0.49112414E+04</pdfrwt>
<totfact> 0.10764978E-02</totfact>
</mgrwt>
</event>
<event>
 6    1  0.1072514E-005  0.2161212E+04  0.7818608E-02  0.8534748E-01
         -2   -1    0    0    0  501 -0.00000000000E+00  0.00000000000E+00  0.78206597244E+03  0.78206597244E+03  0.00000000000E+00 0. -1.
          2   -1    0    0  501    0  0.00000000000E+00 -0.00000000000E+00 -0.14931080089E+04  0.14931080089E+04  0.00000000000E+00 0.  1.
         23    2    1    2    0    0 -0.10696528724E+04 -0.12746261253E+02 -0.50222152193E+03  0.11852539192E+04  0.90998138656E+02 0.  0.
         13    1    3    3    0    0 -0.94089477370E+03  0.89810432809E+01 -0.46444942774E+03  0.10493221170E+04  0.00000000000E+00 0.  1.
        -13    1    3    3    0    0 -0.12875809869E+03 -0.21727304534E+02 -0.37772094191E+02  0.13593180217E+03  0.00000000000E+00 0. -1.
         22    1    1    2    0    0  0.10696528724E+04  0.12746261253E+02 -0.20882051450E+03  0.10899200621E+04  0.00000000000E+00 0. -1.
<mgrwt>
<rscale>  0 0.21612117E+04</rscale>
<asrwt>0</asrwt>
<pdfrwt beam="1">  1        2 0.22970892E+00 0.21612117E+04</pdfrwt>
<pdfrwt beam="2">  1       -2 0.12031784E+00 0.21612117E+04</pdfrwt>
<totfact> 0.61964986E+00</totfact>
</mgrwt>
</event>
<event>
 6    1  0.1072514E-005  0.1535863E+04  0.7818608E-02  0.8860948E-01
          1   -1    0    0  501    0  0.00000000000E+00  0.00000000000E+00  0.29187106423E+03  0.29187106423E+03  0.00000000000E+00 0. -1.
         -1   -1    0    0    0  501 -0.00000000000E+00 -0.00000000000E+00 -0.20204776623E+04  0.20204776623E+04  0.00000000000E+00 0.  1.
         23    2    1    2    0    0  0.26380043213E+02 -0.72623878821E+03 -0.12281842240E+04  0.14299988885E+04  0.91332627444E+02 0.  0.
         11    1    3    3    0    0  0.11175478710E+01 -0.33151459371E+03 -0.47459324413E+03  0.57891443421E+03  0.00000000000E+00 0. -1.
        -11    1    3    3    0    0  0.25262495342E+02 -0.39472419450E+03 -0.75359097990E+03  0.85108445432E+03  0.00000000000E+00 0.  1.
         22    1    1    2    0    0 -0.26380043213E+02  0.72623878821E+03 -0.50042237404E+03  0.88234983801E+03  0.00000000000E+00 0. -1.
<mgrwt>
<rscale>  0 0.15358632E+04</rscale>
<asrwt>0</asrwt>
<pdfrwt beam="1">  1        1 0.44903242E-01 0.15358632E+04</pdfrwt>
<pdfrwt beam="2">  1       -1 0.31084271E+00 0.15358632E+04</pdfrwt>
<totfact> 0.24683624E+00</totfact>
</mgrwt>
</event>
<event>
 6    1  0.1072514E-005  0.2480780E+04  0.7818608E-02  0.8409865E-01
         -2   -1    0    0    0  501 -0.00000000000E+00  0.00000000000E+00  0.10932694415E+04  0.10932694415E+04  0.00000000000E+00 0.  1.
          2   -1    0    0  501    0  0.00000000000E+00 -0.00000000000E+00 -0.14073081047E+04  0.14073081047E+04  0.00000000000E+00 0. -1.
         23    2    1    2    0    0  0.63635576435E+03 -0.10519919488E+04 -0.30749091681E+03  0.12710741537E+04  0.97175722534E+02 0.  0.
         13    1    3    3    0    0  0.25702239835E+03 -0.35010699510E+03 -0.82069176050E+02  0.44200765936E+03  0.00000000000E+00 0.  1.
        -13    1    3    3    0    0  0.37933336601E+03 -0.70188495370E+03 -0.22542174076E+03  0.82906649432E+03  0.00000000000E+00 0. -1.
         22    1    1    2    0    0 -0.63635576435E+03  0.10519919488E+04 -0.65477463997E+01  0.12295033925E+04  0.00000000000E+00 0.  1.
<mgrwt>
<rscale>  0 0.24807797E+04</rscale>
<asrwt>0</asrwt>
<pdfrwt beam="1">  1        2 0.21650894E+00 0.24807797E+04</pdfrwt>
<pdfrwt beam="2">  1       -2 0.16819530E+00 0.24807797E+04</pdfrwt>
<totfact> 0.28112252E+00</totfact>
</mgrwt>
</event>
<event>
 6    1  0.1072514E-005  0.2008997E+04  0.7818608E-02  0.8602426E-01
          2   -1    0    0  501    0  0.00000000000E+00  0.00000000000E+00  0.47473466932E+03  0.47473466932E+03  0.00000000000E+00 0.  1.
         -2   -1    0    0    0  501 -0.00000000000E+00 -0.00000000000E+00 -0.21254349285E+04  0.21254349285E+04  0.00000000000E+00 0. -1.
         23    2    1    2    0    0 -0.69130304408E+03  0.17568329976E+03 -0.17386636287E+04  0.18814888098E+04  0.91018718544E+02 0.  0.
         11    1    3    3    0    0 -0.26834326670E+03  0.32136708124E+02 -0.72710965920E+03  0.77571214590E+03  0.00000000000E+00 0.  1.
        -11    1    3    3    0    0 -0.42295977738E+03  0.14354659163E+03 -0.10115539695E+04  0.11057766639E+04  0.00000000000E+00 0. -1.
         22    1    1    2    0    0  0.69130304408E+03 -0.17568329976E+03  0.87963369585E+02  0.71868078794E+03  0.00000000000E+00 0.  1.
<mgrwt>
<rscale>  0 0.20089974E+04</rscale>
<asrwt>0</asrwt>
<pdfrwt beam="1">  1        2 0.73036104E-01 0.20089974E+04</pdfrwt>
<pdfrwt beam="2">  1       -2 0.32698998E+00 0.20089974E+04</pdfrwt>
<totfact> 0.13181074E+00</totfact>
</mgrwt>
</event>
<event>
 6    1  0.1072514E-005  0.9891078E+03  0.7818608E-02  0.9320573E-01
         -1   -1    0    0    0  501 -0.00000000000E+00  0.00000000000E+00  0.20570115133E+03  0.20570115133E+03  0.00000000000E+00 0.  1.
          1   -1    0    0  501    0  0.00000000000E+00 -0.00000000000E+00 -0.11890237062E+04  0.11890237062E+04  0.00000000000E+00 0. -1.
         23    2    1    2    0    0  0.41478393455E+03 -0.26118488547E+03 -0.51952982908E+03  0.71991603332E+03  0.90025523971E+02 0.  0.
         13    1    3    3    0    0  0.31726706095E+03 -0.22413225045E+03 -0.45039298285E+03  0.59476675483E+03  0.00000000000E+00 0. -1.
        -13    1    3    3    0    0  0.97516873602E+02 -0.37052635018E+02 -0.69136846236E+02  0.12514927849E+03  0.00000000000E+00 0.  1.
         22    1    1    2    0    0 -0.41478393455E+03  0.26118488547E+03 -0.46379272582E+03  0.67480882425E+03  0.00000000000E+00 0.  1.
<mgrwt>
<rscale>  0 0.98910777E+03</rscale>
<asrwt>0</asrwt>
<pdfrwt beam="1">  1        1 0.18292672E+00 0.98910777E+03</pdfrwt>
<pdfrwt beam="2">  1       -1 0.31646332E-01 0.98910777E+03</pdfrwt>
<totfact> 0.10129815E+02</totfact>
</mgrwt>
</event>
<event>
 6    1  0.1072514E-005  0.4621831E+04  0.7818608E-02  0.7889648E-01
          2   -1    0    0  501    0  0.00000000000E+00  0.00000000000E+00  0.24017692436E+04  0.24017692436E+04  0.00000000000E+00 0. -1.
         -2   -1    0    0    0  501 -0.00000000000E+00 -0.00000000000E+00 -0.22234983365E+04  0.22234983365E+04  0.00000000000E+00 0.  1.
         23    2    1    2    0    0  0.57093958637E+02 -0.96807332658E+03 -0.20090528895E+04  0.22326098368E+04  0.88473074446E+02 0.  0.
         11    1    3    3    0    0  0.39375213621E+02 -0.83771266148E+03 -0.17970522390E+04  0.19831060638E+04  0.00000000000E+00 0.  1.
        -11    1    3    3    0    0  0.17718745015E+02 -0.13036066510E+03 -0.21200065052E+03  0.24950377302E+03  0.00000000000E+00 0. -1.
         22    1    1    2    0    0 -0.57093958637E+02  0.96807332658E+03  0.21873237966E+04  0.23926577433E+04  0.00000000000E+00 0. -1.
<mgrwt>
<rscale>  0 0.46218308E+04</rscale>
<asrwt>0</asrwt>
<pdfrwt beam="1">  1        2 0.36950296E+00 0.46218308E+04</pdfrwt>
<pdfrwt beam="2">  1       -2 0.34207667E+00 0.46218308E+04</pdfrwt>
<totfact> 0.51929304E-02</totfact>
</mgrwt>
</event>
<event>
 6    1  0.1072514E-005  0.2624958E+04  0.7818608E-02  0.8359773E-01
         -2   -1    0    0    0  501 -0.00000000000E+00  0.00000000000E+00  0.17075695223E+04  0.17075695223E+04  0.00000000000E+00 0.  1.
          2   -1    0    0  501    0  0.00000000000E+00 -0.00000000000E+00 -0.10088029235E+04  0.10088029235E+04  0.00000000000E+00 0. -1.
         23    2    1    2    0    0 -0.63988199859E+03  0.11428898536E+04  0.40528486043E+03  0.13740693055E+04  0.90357338317E+02 0.  0.
         11    1    3    3    0    0 -0.31790093612E+03  0.57608419351E+03  0.25067372579E+03  0.70411030386E+03  0.00000000000E+00 0. -1.
        -11    1    3    3    0    0 -0.32198106248E+03  0.56680566009E+03  0.15461113464E+03  0.66995900163E+03  0.00000000000E+00 0.  1.
         22    1    1    2    0    0  0.63988199859E+03 -0.11428898536E+04  0.29348173842E+03  0.13423031403E+04  0.00000000000E+00 0.  1.
<mgrwt>
<rscale>  0 0.26249580E+04</rscale>
<asrwt>0</asrwt>
<pdfrwt beam="1">  1        2 0.15520045E+00 0.26249580E+04</pdfrwt>
<pdfrwt beam="2">  1       -2 0.26270300E+00 0.26249580E+04</pdfrwt>
<totfact> 0.11786816E+00</totfact>
</mgrwt>
</event>
<event>
 6    1  0.1072514E-005  0.1835715E+04  0.7818608E-02  0.8687534E-01
          1   -1    0    0  501    0  0.00000000000E+00  0.00000000000E+00  0.12419882827E+04  0.12419882827E+04  0.00000000000E+00 0. -1.
         -1   -1    0    0    0  501 -0.00000000000E+00 -0.00000000000E+00 -0.67831785556E+03  0.67831785556E+03  0.00000000000E+00 0.  1.
         23    2    1    2    0    0 -0.30086233495E+03 -0.36224457539E+03 -0.53850513826E+03  0.72175273771E+03  0.95916387932E+02 0.  0.
         13    1    3    3    0    0 -0.14993848816E+03 -0.12070801806E+03 -0.17669180782E+03  0.26128905604E+03  0.00000000000E+00 0.  1.
        -13    1    3    3    0    0 -0.15092384679E+03 -0.24153655733E+03 -0.36181333044E+03  0.46046368167E+03  0.00000000000E+00 0. -1.
         22    1    1    2    0    0  0.30086233495E+03  0.36224457539E+03  0.11021755654E+04  0.11985534006E+04  0.00000000000E+00 0. -1.
<mgrwt>
<rscale>  0 0.18357155E+04</rscale>
<asrwt>0</asrwt>
<pdfrwt beam="1">  1        1 0.19107512E+00 0.18357155E+04</pdfrwt>
<pdfrwt beam="2">  1       -1 0.10435659E+00 0.18357155E+04</pdfrwt>
<totfact> 0.80919591E+00</totfact>
</mgrwt>
</event>
<event>
 6    1  0.1072514E-005  0.2574149E+04  0.7818608E-02  0.8377036E-01
          2   -1    0    0  501    0  0.00000000000E+00  0.00000000000E+00  0.12274545573E+04  0.12274545573E+04  0.00000000000E+00 0. -1.
         -2   -1    0    0    0  501 -0.00000000000E+00 -0.00000000000E+00 -0.13495899341E+04  0.13495899341E+04  0.00000000000E+00 0.  1.
         23    2    1    2    0    0 -0.35165272804E+03  0.11541729617E+04  0.38272778001E+03  0.12691218355E+04  0.91732290789E+02 0.  0.
         13    1    3    3    0    0 -0.16063887869E+03  0.44706287726E+03  0.11063335377E+03  0.48775998661E+03  0.00000000000E+00 0.  1.
        -13    1    3    3    0    0 -0.19101384935E+03  0.70711008444E+03  0.27209442624E+03  0.78136184892E+03  0.00000000000E+00 0. -1.
         22    1    1    2    0    0  0.35165272804E+03 -0.11541729617E+04 -0.50486315678E+03  0.13079226559E+04  0.00000000000E+00 0.  1.
<mgrwt>
<rscale>  0 0.25741486E+04</rscale>
<asrwt>0</asrwt>
<pdfrwt beam="1">  1        2 0.18883916E+00 0.25741486E+04</pdfrwt>
<pdfrwt beam="2">  1       -2 0.20762922E+00 0.25741486E+04</pdfrwt>
<totfact> 0.19178190E+00</totfact>
</mgrwt>
</event>
<event>
 6    1  0.1072514E-005  0.5837838E+03  0.7818608E-02  0.9939633E-01
          2   -1    0    0  501    0  0.00000000000E+00  0.00000000000E+00  0.94215107174E+03  0.94215107174E+03  0.00000000000E+00 0. -1.
         -2   -1    0    0    0  501 -0.00000000000E+00 -0.00000000000E+00 -0.90432285234E+02  0.90432285234E+02  0.00000000000E+00 0.  1.
         23    2    1    2    0    0 -0.84038254430E+02 -0.16443443994E+03  0.82014220853E+03  0.84523823821E+03  0.87711594837E+02 0.  0.
         13    1    3    3    0    0 -0.22461745250E+02 -0.81428212452E+02  0.20909729947E+03  0.22551444394E+03  0.00000000000E+00 0.  1.
        -13    1    3    3    0    0 -0.61576509180E+02 -0.83006227492E+02  0.61104490906E+03  0.61972379426E+03  0.00000000000E+00 0. -1.
         22    1    1    2    0    0  0.84038254430E+02  0.16443443994E+03  0.31576577972E+02  0.18734511876E+03  0.00000000000E+00 0. -1.
<mgrwt>
<rscale>  0 0.58378378E+03</rscale>
<asrwt>0</asrwt>
<pdfrwt beam="1">  1        2 0.14494631E+00 0.58378378E+03</pdfrwt>
<pdfrwt beam="2">  1       -2 0.13912660E-01 0.58378378E+03</pdfrwt>
<totfact> 0.11005659E+03</totfact>
</mgrwt>
</event>
<event>
 6    1  0.1072514E-005  0.4505315E+03  0.7818608E-02  0.1027564E+00
          1   -1    0    0  501    0  0.00000000000E+00  0.00000000000E+00  0.36514443756E+03  0.36514443756E+03  0.00000000000E+00 0. -1.
         -1   -1    0    0    0  501 -0.00000000000E+00 -0.00000000000E+00 -0.13897146110E+03  0.13897146110E+03  0.00000000000E+00 0.  1.
         23    2    1    2    0    0  0.28805135285E+02  0.16048841282E+03 -0.45585849423E+02  0.18719457418E+03  0.79859078793E+02 0.  0.
         13    1    3    3    0    0 -0.21726124299E+02  0.24867183846E+02 -0.24097335361E+02  0.40878880623E+02  0.00000000000E+00 0.  1.
        -13    1    3    3    0    0  0.50531259584E+02  0.13562122897E+03 -0.21488514061E+02  0.14631569355E+03  0.00000000000E+00 0. -1.
         22    1    1    2    0    0 -0.28805135285E+02 -0.16048841282E+03  0.27175882588E+03  0.31692132448E+03  0.00000000000E+00 0. -1.
<mgrwt>
<rscale>  0 0.45053149E+03</rscale>
<asrwt>0</asrwt>
<pdfrwt beam="1">  1        1 0.56176067E-01 0.45053149E+03</pdfrwt>
<pdfrwt beam="2">  1       -1 0.21380225E-01 0.45053149E+03</pdfrwt>
<totfact> 0.12364169E+03</totfact>
</mgrwt>
</event>
<event>
 6    1  0.1072514E-005  0.3665843E+04  0.7818608E-02  0.8075574E-01
         -1   -1    0    0    0  501 -0.00000000000E+00  0.00000000000E+00  0.12121643806E+04  0.12121643806E+04  0.00000000000E+00 0.  1.
          1   -1    0    0  501    0  0.00000000000E+00 -0.00000000000E+00 -0.27715730368E+04  0.27715730368E+04  0.00000000000E+00 0. -1.
         23    2    1    2    0    0  0.79270414727E+03  0.12983088026E+03  0.10088548135E+04  0.12927871815E+04  0.90965593876E+02 0.  0.
         11    1    3    3    0    0  0.58073691693E+03  0.54492337257E+02  0.73929956716E+03  0.94169455319E+03  0.00000000000E+00 0.  1.
        -11    1    3    3    0    0  0.21196723034E+03  0.75338543001E+02  0.26955524638E+03  0.35109262831E+03  0.00000000000E+00 0. -1.
         22    1    1    2    0    0 -0.79270414727E+03 -0.12983088026E+03 -0.25682634697E+04  0.26909502360E+04  0.00000000000E+00 0. -1.
<mgrwt>
<rscale>  0 0.36658435E+04</rscale>
<asrwt>0</asrwt>
<pdfrwt beam="1">  1        1 0.42639585E+00 0.36658435E+04</pdfrwt>
<pdfrwt beam="2">  1       -1 0.18648683E+00 0.36658435E+04</pdfrwt>
<totfact> 0.13138514E-01</totfact>
</mgrwt>
</event>
<event>
 6    1  0.1072514E-005  0.1689232E+04  0.7818608E-02  0.8767530E-01
         -1   -1    0    0    0  501 -0.00000000000E+00  0.00000000000E+00  0.93995577157E+03  0.93995577157E+03  0.00000000000E+00 0.  1.
          1   -1    0    0  501    0  0.00000000000E+00 -0.00000000000E+00 -0.75894652039E+03  0.75894652039E+03  0.00000000000E+00 0. -1.
         23    2    1    2    0    0  0.36976567235E+03  0.44766547099E+03 -0.52266086490E+03  0.78660702252E+03  0.91897779221E+02 0.  0.
         11    1    3    3    0    0  0.91918534794E+02  0.68011017834E+02 -0.72008306835E+02  0.13512850121E+03  0.00000000000E+00 0.  1.
        -11    1    3    3    0    0  0.27784713755E+03  0.37965445315E+03 -0.45065255807E+03  0.65147852132E+03  0.00000000000E+00 0. -1.
         22    1    1    2    0    0 -0.36976567235E+03 -0.44766547099E+03  0.70367011609E+03  0.91229526943E+03  0.00000000000E+00 0.  1.
<mgrwt>
<rscale>  0 0.16892320E+04</rscale>
<asrwt>0</asrwt>
<pdfrwt beam="1">  1        1 0.11676100E+00 0.16892320E+04</pdfrwt>
<pdfrwt beam="2">  1       -1 0.14460858E+00 0.16892320E+04</pdfrwt>
<totfact> 0.88132827E+00</totfact>
</mgrwt>
</event>
<event>
 6    1  0.1072514E-005  0.2489643E+04  0.7818608E-02  0.8406685E-01
         -2   -1    0    0    0  501 -0.00000000000E+00  0.00000000000E+00  0.80278747863E+03  0.80278747863E+03  0.00000000000E+00 0.  1.
          2   -1    0    0  501    0  0.00000000000E+00 -0.00000000000E+00 -0.19302502913E+04  0.19302502913E+04  0.00000000000E+00 0. -1.
         23    2    1    2    0    0  0.47304441330E+03 -0.97529675659E+03 -0.12326569698E+04  0.16439828626E+04  0.90893713110E+02 0.  0.
         13    1    3    3    0    0  0.27057200643E+03 -0.60127420444E+03 -0.80920864213E+03  0.10438191922E+04  0.00000000000E+00 0.  1.
        -13    1    3    3    0    0  0.20247240687E+03 -0.37402255215E+03 -0.42344832767E+03  0.60016367040E+03  0.00000000000E+00 0. -1.
         22    1    1    2    0    0 -0.47304441330E+03  0.97529675659E+03  0.10519415714E+03  0.10890549073E+04  0.00000000000E+00 0.  1.
<mgrwt>
<rscale>  0 0.24896432E+04</rscale>
<asrwt>0</asrwt>
<pdfrwt beam="1">  1        2 0.29696158E+00 0.24896432E+04</pdfrwt>
<pdfrwt beam="2">  1       -2 0.12350577E+00 0.24896432E+04</pdfrwt>
<totfact> 0.32225968E+00</totfact>
</mgrwt>
</event>
<event>
 6    1  0.1072514E-005  0.2751974E+03  0.7818608E-02  0.1098341E+00
         -1   -1    0    0    0  501 -0.00000000000E+00  0.00000000000E+00  0.26031562233E+03  0.26031562233E+03  0.00000000000E+00 0.  1.
          1   -1    0    0  501    0  0.00000000000E+00 -0.00000000000E+00 -0.72732504827E+02  0.72732504827E+02  0.00000000000E+00 0. -1.
         23    2    1    2    0    0  0.83303169141E+02  0.40534672234E+02  0.20016681702E+03  0.23955573636E+03  0.93475764484E+02 0.  0.
         13    1    3    3    0    0  0.38561374142E+02  0.10128911097E+02  0.89868637765E+01  0.40869770445E+02  0.00000000000E+00 0. -1.
        -13    1    3    3    0    0  0.44741794999E+02  0.30405761138E+02  0.19117995324E+03  0.19868596592E+03  0.00000000000E+00 0.  1.
         22    1    1    2    0    0 -0.83303169141E+02 -0.40534672234E+02 -0.12583699520E+02  0.93492390791E+02  0.00000000000E+00 0.  1.
<mgrwt>
<rscale>  0 0.27519744E+03</rscale>
<asrwt>0</asrwt>
<pdfrwt beam="1">  1        1 0.11189616E-01 0.27519744E+03</pdfrwt>
<pdfrwt beam="2">  1       -1 0.40048557E-01 0.27519744E+03</pdfrwt>
<totfact> 0.33804115E+03</totfact>
</mgrwt>
</event>
<event>
 6    1  0.1072514E-005  0.6106073E+03  0.7818608E-02  0.9883640E-01
          2   -1    0    0  501    0  0.00000000000E+00  0.00000000000E+00  0.53721958943E+03  0.53721958943E+03  0.00000000000E+00 0. -1.
         -2   -1    0    0    0  501 -0.00000000000E+00 -0.00000000000E+00 -0.17350505275E+03  0.17350505275E+03  0.00000000000E+00 0.  1.
         23    2    1    2    0    0 -0.94685157029E+02 -0.91440926923E+02 -0.12609888310E+03  0.20353246137E+03  0.90541771758E+02 0.  0.
         13    1    3    3    0    0 -0.73914492084E+02 -0.10806989709E+03 -0.90819147219E+02  0.15934419443E+03  0.00000000000E+00 0. -1.
        -13    1    3    3    0    0 -0.20770664945E+02  0.16628970166E+02 -0.35279735885E+02  0.44188266940E+02  0.00000000000E+00 0.  1.
         22    1    1    2    0    0  0.94685157029E+02  0.91440926923E+02  0.48981341978E+03  0.50719218081E+03  0.00000000000E+00 0. -1.
<mgrwt>
<rscale>  0 0.61060728E+03</rscale>
<asrwt>0</asrwt>
<pdfrwt beam="1">  1        2 0.82649167E-01 0.61060728E+03</pdfrwt>
<pdfrwt beam="2">  1       -2 0.26693085E-01 0.61060728E+03</pdfrwt>
<totfact> 0.72389434E+02</totfact>
</mgrwt>
</event>
<event>
 6    1  0.1072514E-005  0.2835634E+04  0.7818608E-02  0.8292290E-01
         -2   -1    0    0    0  501 -0.00000000000E+00  0.00000000000E+00  0.15003870046E+04  0.15003870046E+04  0.00000000000E+00 0.  1.
          2   -1    0    0  501    0  0.00000000000E+00 -0.00000000000E+00 -0.13397906039E+04  0.13397906039E+04  0.00000000000E+00 0. -1.
         23    2    1    2    0    0  0.48381138277E+03  0.11609849410E+04  0.73249994957E+03  0.14584999483E+04  0.93308282455E+02 0.  0.
         13    1    3    3    0    0  0.33434702559E+03  0.89310152823E+03  0.53136765553E+03  0.10916821234E+04  0.00000000000E+00 0. -1.
        -13    1    3    3    0    0  0.14946435718E+03  0.26788341282E+03  0.20113229404E+03  0.36681782486E+03  0.00000000000E+00 0.  1.
         22    1    1    2    0    0 -0.48381138277E+03 -0.11609849410E+04 -0.57190354885E+03  0.13816776602E+04  0.00000000000E+00 0. -1.
<mgrwt>
<rscale>  0 0.28356336E+04</rscale>
<asrwt>0</asrwt>
<pdfrwt beam="1">  1        2 0.20612163E+00 0.28356336E+04</pdfrwt>
<pdfrwt beam="2">  1       -2 0.23082877E+00 0.28356336E+04</pdfrwt>
<totfact> 0.11489079E+00</totfact>
</mgrwt>
</event>
<event>
 6    1  0.1072514E-005  0.2881598E+04  0.7818608E-02  0.8278374E-01
          4   -1    0    0  501    0  0.00000000000E+00  0.00000000000E+00  0.11632770524E+04  0.11632770524E+04  0.00000000000E+00 0. -1.
         -4   -1    0    0    0  501 -0.00000000000E+00 -0.00000000000E+00 -0.17845296420E+04  0.17845296420E+04  0.00000000000E+00 0.  1.
         23    2    1    2    0    0  0.51380988434E+03 -0.93777148035E+03  0.67464155544E+03  0.12677002746E+04  0.92232377203E+02 0.  0.
         11    1    3    3    0    0  0.14721800769E+03 -0.19752922069E+03  0.17684747121E+03  0.30325890406E+03  0.00000000000E+00 0.  1.
        -11    1    3    3    0    0  0.36659187665E+03 -0.74024225966E+03  0.49779408423E+03  0.96444137059E+03  0.00000000000E+00 0. -1.
         22    1    1    2    0    0 -0.51380988434E+03  0.93777148035E+03 -0.12958941450E+04  0.16801064198E+04  0.00000000000E+00 0.  1.
<mgrwt>
<rscale>  0 0.28815984E+04</rscale>
<asrwt>0</asrwt>
<pdfrwt beam="1">  1        4 0.17896570E+00 0.28815984E+04</pdfrwt>
<pdfrwt beam="2">  1       -4 0.27454302E+00 0.28815984E+04</pdfrwt>
<totfact> 0.13961810E-02</totfact>
</mgrwt>
</event>
<event>
 6    1  0.1072514E-005  0.3045390E+04  0.7818608E-02  0.8230887E-01
          2   -1    0    0  501    0  0.00000000000E+00  0.00000000000E+00  0.34433002604E+04  0.34433002604E+04  0.00000000000E+00 0. -1.
         -2   -1    0    0    0  501 -0.00000000000E+00 -0.00000000000E+00 -0.67336551193E+03  0.67336551193E+03  0.00000000000E+00 0.  1.
         23    2    1    2    0    0 -0.13197083978E+04  0.71120253273E+03  0.17360400198E+04  0.22955733508E+04  0.91557417160E+02 0.  0.
         13    1    3    3    0    0 -0.85404075899E+03  0.45135287600E+03  0.11835714373E+04  0.15277258864E+04  0.00000000000E+00 0. -1.
        -13    1    3    3    0    0 -0.46566763882E+03  0.25984965672E+03  0.55246858249E+03  0.76784746440E+03  0.00000000000E+00 0.  1.
         22    1    1    2    0    0  0.13197083978E+04 -0.71120253273E+03  0.10338947286E+04  0.18210924215E+04  0.00000000000E+00 0.  1.
<mgrwt>
<rscale>  0 0.30453897E+04</rscale>
<asrwt>0</asrwt>
<pdfrwt beam="1">  1        2 0.52973849E+00 0.30453897E+04</pdfrwt>
<pdfrwt beam="2">  1       -2 0.10359470E+00 0.30453897E+04</pdfrwt>
<totfact> 0.57593418E-01</totfact>
</mgrwt>
</event>
<event>
 6    1  0.1072514E-005  0.3778036E+04  0.7818608E-02  0.8050885E-01
          1   -1    0    0  501    0  0.00000000000E+00  0.00000000000E+00  0.12179190715E+04  0.12179190715E+04  0.00000000000E+00 0. -1.
         -1   -1    0    0    0  501 -0.00000000000E+00 -0.00000000000E+00 -0.29299072160E+04  0.29299072160E+04  0.00000000000E+00 0.  1.
         23    2    1    2    0    0 -0.17238343827E+04  0.71175045388E+03 -0.11786292506E+04  0.22080671795E+04  0.90554246998E+02 0.  0.
         13    1    3    3    0    0 -0.58606202825E+03  0.24577432350E+03 -0.45265414245E+03  0.78023681772E+03  0.00000000000E+00 0. -1.
        -13    1    3    3    0    0 -0.11377723544E+04  0.46597613038E+03 -0.72597510812E+03  0.14278303618E+04  0.00000000000E+00 0.  1.
         22    1    1    2    0    0  0.17238343827E+04 -0.71175045388E+03 -0.53335889392E+03  0.19397591080E+04  0.00000000000E+00 0.  1.
<mgrwt>
<rscale>  0 0.37780365E+04</rscale>
<asrwt>0</asrwt>
<pdfrwt beam="1">  1        1 0.18737217E+00 0.37780365E+04</pdfrwt>
<pdfrwt beam="2">  1       -1 0.45075495E+00 0.37780365E+04</pdfrwt>
<totfact> 0.26413019E-02</totfact>
</mgrwt>
</event>
<event>
 6    1  0.1229721E-005  0.3991464E+04  0.7818608E-02  0.8006271E-01
          2   -1    0    0  501    0  0.00000000000E+00  0.00000000000E+00  0.19085607501E+04  0.19085607501E+04  0.00000000000E+00 0. -1.
         -2   -1    0    0    0  501 -0.00000000000E+00 -0.00000000000E+00 -0.20868845221E+04  0.20868845221E+04  0.00000000000E+00 0.  1.
         23    2    1    2    0    0  0.77496749253E+03  0.79454901364E+03 -0.17482483305E+04  0.20728049342E+04  0.90913808594E+02 0.  0.
         13    1    3    3    0    0  0.32629013289E+03  0.37958062668E+03 -0.72694915712E+03  0.88261077492E+03  0.00000000000E+00 0.  1.
        -13    1    3    3    0    0  0.44867735964E+03  0.41496838696E+03 -0.10212991734E+04  0.11901941593E+04  0.00000000000E+00 0. -1.
         22    1    1    2    0    0 -0.77496749253E+03 -0.79454901364E+03  0.15699245586E+04  0.19226403380E+04  0.00000000000E+00 0. -1.
<mgrwt>
<rscale>  0 0.39914638E+04</rscale>
<asrwt>0</asrwt>
<pdfrwt beam="1">  1        2 0.29362473E+00 0.39914638E+04</pdfrwt>
<pdfrwt beam="2">  1       -2 0.32105916E+00 0.39914638E+04</pdfrwt>
<totfact> 0.13983537E-01</totfact>
</mgrwt>
</event>
<event>
 6    1  0.1072514E-005  0.2313531E+04  0.7818608E-02  0.8472605E-01
          2   -1    0    0  501    0  0.00000000000E+00  0.00000000000E+00  0.21462878780E+04  0.21462878780E+04  0.00000000000E+00 0. -1.
         -2   -1    0    0    0  501 -0.00000000000E+00 -0.00000000000E+00 -0.62345149533E+03  0.62345149533E+03  0.00000000000E+00 0.  1.
         23    2    1    2    0    0  0.10607693500E+03  0.10268061549E+04  0.14256510952E+03  0.10461582226E+04  0.92406819988E+02 0.  0.
         11    1    3    3    0    0  0.44105311180E+02  0.18940597181E+03  0.53870503365E+02  0.20179675856E+03  0.00000000000E+00 0. -1.
        -11    1    3    3    0    0  0.61971623815E+02  0.83740018306E+03  0.88694606157E+02  0.84436146401E+03  0.00000000000E+00 0.  1.
         22    1    1    2    0    0 -0.10607693500E+03 -0.10268061549E+04  0.13802712732E+04  0.17235811508E+04  0.00000000000E+00 0. -1.
<mgrwt>
<rscale>  0 0.23135310E+04</rscale>
<asrwt>0</asrwt>
<pdfrwt beam="1">  1        2 0.33019813E+00 0.23135310E+04</pdfrwt>
<pdfrwt beam="2">  1       -2 0.95915616E-01 0.23135310E+04</pdfrwt>
<totfact> 0.45677903E+00</totfact>
</mgrwt>
</event>
<event>
 6    1  0.1072514E-005  0.1605124E+04  0.7818608E-02  0.8817406E-01
         -1   -1    0    0    0  501 -0.00000000000E+00  0.00000000000E+00  0.68583807292E+03  0.68583807292E+03  0.00000000000E+00 0.  1.
          1   -1    0    0  501    0  0.00000000000E+00 -0.00000000000E+00 -0.93915188982E+03  0.93915188982E+03  0.00000000000E+00 0. -1.
         23    2    1    2    0    0 -0.52116745452E+03  0.43213892103E+03 -0.55905627072E+03  0.88213196097E+03  0.85166425381E+02 0.  0.
         13    1    3    3    0    0 -0.45302130196E+03  0.39008091822E+03 -0.45745530722E+03  0.75276608644E+03  0.00000000000E+00 0. -1.
        -13    1    3    3    0    0 -0.68146152563E+02  0.42058002810E+02 -0.10160096350E+03  0.12936587453E+03  0.00000000000E+00 0.  1.
         22    1    1    2    0    0  0.52116745452E+03 -0.43213892103E+03  0.30574245382E+03  0.74285800177E+03  0.00000000000E+00 0.  1.
<mgrwt>
<rscale>  0 0.16051244E+04</rscale>
<asrwt>0</asrwt>
<pdfrwt beam="1">  1        1 0.14448491E+00 0.16051244E+04</pdfrwt>
<pdfrwt beam="2">  1       -1 0.10551355E+00 0.16051244E+04</pdfrwt>
<totfact> 0.13655708E+01</totfact>
</mgrwt>
</event>
<event>
 6    1  0.1072514E-005  0.1226422E+04  0.7818608E-02  0.9090039E-01
          2   -1    0    0  501    0  0.00000000000E+00  0.00000000000E+00  0.13012824586E+04  0.13012824586E+04  0.00000000000E+00 0.  1.
         -2   -1    0    0    0  501 -0.00000000000E+00 -0.00000000000E+00 -0.28896684569E+03  0.28896684569E+03  0.00000000000E+00 0. -1.
         23    2    1    2    0    0  0.53444849610E+03 -0.15748998434E+03  0.83113746961E+03  0.10043621055E+04  0.86691725868E+02 0.  0.
         13    1    3    3    0    0  0.19602487836E+03 -0.83549447226E+02  0.37877301404E+03  0.43459781319E+03  0.00000000000E+00 0.  1.
        -13    1    3    3    0    0  0.33842361775E+03 -0.73940537109E+02  0.45236445557E+03  0.56976429227E+03  0.00000000000E+00 0. -1.
         22    1    1    2    0    0 -0.53444849610E+03  0.15748998434E+03  0.18117814331E+03  0.58588719884E+03  0.00000000000E+00 0. -1.
<mgrwt>
<rscale>  0 0.12264216E+04</rscale>
<asrwt>0</asrwt>
<pdfrwt beam="1">  1        2 0.20019730E+00 0.12264216E+04</pdfrwt>
<pdfrwt beam="2">  1       -2 0.44456438E-01 0.12264216E+04</pdfrwt>
<totfact> 0.77967186E+01</totfact>
</mgrwt>
</event>
<event>
 6    1  0.1072514E-005  0.1043783E+04  0.7818608E-02  0.9261786E-01
         -1   -1    0    0    0  501 -0.00000000000E+00  0.00000000000E+00  0.51602903634E+03  0.51602903634E+03  0.00000000000E+00 0.  1.
          1   -1    0    0  501    0  0.00000000000E+00 -0.00000000000E+00 -0.52782065194E+03  0.52782065194E+03  0.00000000000E+00 0. -1.
         23    2    1    2    0    0  0.11686795399E+03 -0.36480144867E+03 -0.35409884994E+03  0.53012558110E+03  0.94387078513E+02 0.  0.
         13    1    3    3    0    0  0.12676358501E+03 -0.29216907300E+03 -0.31072360310E+03  0.44495048177E+03  0.00000000000E+00 0. -1.
        -13    1    3    3    0    0 -0.98956310143E+01 -0.72632375665E+02 -0.43375246834E+02  0.85175099330E+02  0.00000000000E+00 0.  1.
         22    1    1    2    0    0 -0.11686795399E+03  0.36480144867E+03  0.34230723434E+03  0.51372410718E+03  0.00000000000E+00 0.  1.
<mgrwt>
<rscale>  0 0.10437831E+04</rscale>
<asrwt>0</asrwt>
<pdfrwt beam="1">  1        1 0.81203177E-01 0.10437831E+04</pdfrwt>
<pdfrwt beam="2">  1       -1 0.79389083E-01 0.10437831E+04</pdfrwt>
<totfact> 0.65213851E+01</totfact>
</mgrwt>
</event>
<event>
 6    1  0.1072514E-005  0.6680818E+03  0.7818608E-02  0.9773429E-01
         -2   -1    0    0    0  501 -0.00000000000E+00  0.00000000000E+00  0.89414852205E+02  0.89414852205E+02  0.00000000000E+00 0. -1.
          2   -1    0    0  501    0  0.00000000000E+00 -0.00000000000E+00 -0.12479282243E+04  0.12479282243E+04  0.00000000000E+00 0.  1.
         23    2    1    2    0    0 -0.17331271555E+02  0.31275843545E+03 -0.78435701130E+03  0.84937669013E+03  0.90036818223E+02 0.  0.
         13    1    3    3    0    0 -0.51894231985E+02  0.15669336716E+03 -0.43187196403E+03  0.46234101693E+03  0.00000000000E+00 0. -1.
        -13    1    3    3    0    0  0.34562960430E+02  0.15606506829E+03 -0.35248504728E+03  0.38703567320E+03  0.00000000000E+00 0.  1.
         22    1    1    2    0    0  0.17331271555E+02 -0.31275843545E+03 -0.37415636081E+03  0.48796638639E+03  0.00000000000E+00 0. -1.
<mgrwt>
<rscale>  0 0.66808178E+03</rscale>
<asrwt>0</asrwt>
<pdfrwt beam="1">  1        2 0.19198896E+00 0.66808178E+03</pdfrwt>
<pdfrwt beam="2">  1       -2 0.13756131E-01 0.66808178E+03</pdfrwt>
<totfact> 0.72712421E+02</totfact>
</mgrwt>
</event>
<event>
 6    1  0.1072514E-005  0.1275620E+04  0.7818608E-02  0.9049125E-01
          1   -1    0    0  501    0  0.00000000000E+00  0.00000000000E+00  0.11006109460E+04  0.11006109460E+04  0.00000000000E+00 0. -1.
         -1   -1    0    0    0  501 -0.00000000000E+00 -0.00000000000E+00 -0.36961459601E+03  0.36961459601E+03  0.00000000000E+00 0.  1.
         23    2    1    2    0    0 -0.34993067326E+03 -0.14628555554E+03 -0.21881959122E+03  0.44748351099E+03  0.92241743592E+02 0.  0.
         13    1    3    3    0    0 -0.16857335271E+03 -0.92052746604E+02 -0.15786078015E+03  0.24861759654E+03  0.00000000000E+00 0. -1.
        -13    1    3    3    0    0 -0.18135732055E+03 -0.54232808934E+02 -0.60958811064E+02  0.19886591445E+03  0.00000000000E+00 0.  1.
         22    1    1    2    0    0  0.34993067326E+03  0.14628555554E+03  0.94981594124E+03  0.10227420311E+04  0.00000000000E+00 0. -1.
<mgrwt>
<rscale>  0 0.12756204E+04</rscale>
<asrwt>0</asrwt>
<pdfrwt beam="1">  1        1 0.16932476E+00 0.12756204E+04</pdfrwt>
<pdfrwt beam="2">  1       -1 0.56863785E-01 0.12756204E+04</pdfrwt>
<totfact> 0.39026812E+01</totfact>
</mgrwt>
</event>
<event>
 6    1  0.1072514E-005  0.2689783E+04  0.7818608E-02  0.8338328E-01
         -2   -1    0    0    0  501 -0.00000000000E+00  0.00000000000E+00  0.91861645709E+03  0.91861645709E+03  0.00000000000E+00 0.  1.
          2   -1    0    0  501    0  0.00000000000E+00 -0.00000000000E+00 -0.19689755866E+04  0.19689755866E+04  0.00000000000E+00 0. -1.
         23    2    1    2    0    0  0.73342749071E+03 -0.93142582711E+03 -0.12051108426E+04  0.16920093204E+04  0.71648041219E+02 0.  0.
         13    1    3    3    0    0  0.64576877400E+03 -0.83234070425E+03 -0.10388020607E+04  0.14794992662E+04  0.00000000000E+00 0. -1.
        -13    1    3    3    0    0  0.87658716709E+02 -0.99085122858E+02 -0.16630878194E+03  0.21251005420E+03  0.00000000000E+00 0.  1.
         22    1    1    2    0    0 -0.73342749071E+03  0.93142582711E+03  0.15475171308E+03  0.11955827233E+04  0.00000000000E+00 0.  1.
<mgrwt>
<rscale>  0 0.26897832E+04</rscale>
<asrwt>0</asrwt>
<pdfrwt beam="1">  1        2 0.30291932E+00 0.26897832E+04</pdfrwt>
<pdfrwt beam="2">  1       -2 0.14132561E+00 0.26897832E+04</pdfrwt>
<totfact> 0.21393583E+00</totfact>
</mgrwt>
</event>
<event>
 6    1  0.1072514E-005  0.1536217E+04  0.7818608E-02  0.8860720E-01
          1   -1    0    0  501    0  0.00000000000E+00  0.00000000000E+00  0.18943487803E+04  0.18943487803E+04  0.00000000000E+00 0. -1.
         -1   -1    0    0    0  501 -0.00000000000E+00 -0.00000000000E+00 -0.31144779309E+03  0.31144779309E+03  0.00000000000E+00 0.  1.
         23    2    1    2    0    0  0.64160102806E+03  0.16375562293E+03  0.13453851227E+04  0.15023183796E+04  0.91823755304E+02 0.  0.
         11    1    3    3    0    0  0.20854985602E+03  0.10693275024E+02  0.39742380489E+03  0.44894662185E+03  0.00000000000E+00 0.  1.
        -11    1    3    3    0    0  0.43305117204E+03  0.15306234791E+03  0.94796131784E+03  0.10533717578E+04  0.00000000000E+00 0. -1.
         22    1    1    2    0    0 -0.64160102806E+03 -0.16375562293E+03  0.23751586451E+03  0.70347819379E+03  0.00000000000E+00 0.  1.
<mgrwt>
<rscale>  0 0.15362171E+04</rscale>
<asrwt>0</asrwt>
<pdfrwt beam="1">  1        1 0.29143827E+00 0.15362171E+04</pdfrwt>
<pdfrwt beam="2">  1       -1 0.47915046E-01 0.15362171E+04</pdfrwt>
<totfact> 0.14759516E+01</totfact>
</mgrwt>
</event>
<event>
 6    1  0.1072514E-005  0.5223585E+04  0.7818608E-02  0.7794913E-01
         -1   -1    0    0    0  501 -0.00000000000E+00  0.00000000000E+00  0.38159692042E+04  0.38159692042E+04  0.00000000000E+00 0.  1.
          1   -1    0    0  501    0  0.00000000000E+00 -0.00000000000E+00 -0.17876091025E+04  0.17876091025E+04  0.00000000000E+00 0. -1.
         23    2    1    2    0    0  0.56582084484E+03  0.49755154916E+03  0.36962881340E+04  0.37733611903E+04  0.89431151274E+02 0.  0.
         11    1    3    3    0    0  0.14765259914E+03  0.81416542390E+02  0.85814484067E+03  0.87455274911E+03  0.00000000000E+00 0. -1.
        -11    1    3    3    0    0  0.41816824570E+03  0.41613500677E+03  0.28381432933E+04  0.28988084412E+04  0.00000000000E+00 0.  1.
         22    1    1    2    0    0 -0.56582084484E+03 -0.49755154916E+03 -0.16679280322E+04  0.18302171164E+04  0.00000000000E+00 0. -1.
<mgrwt>
<rscale>  0 0.52235855E+04</rscale>
<asrwt>0</asrwt>
<pdfrwt beam="1">  1        1 0.27501679E+00 0.52235855E+04</pdfrwt>
<pdfrwt beam="2">  1       -1 0.58707218E+00 0.52235855E+04</pdfrwt>
<totfact> 0.14881249E-03</totfact>
</mgrwt>
</event>
<event>
 6    1  0.1072514E-005  0.7267798E+03  0.7818608E-02  0.9672500E-01
          1   -1    0    0  501    0  0.00000000000E+00  0.00000000000E+00  0.10574297365E+03  0.10574297365E+03  0.00000000000E+00 0. -1.
         -1   -1    0    0    0  501 -0.00000000000E+00 -0.00000000000E+00 -0.12488035873E+04  0.12488035873E+04  0.00000000000E+00 0.  1.
         23    2    1    2    0    0 -0.31184764945E+03  0.14519938887E+03 -0.76185649553E+03  0.84107952338E+03  0.93046364169E+02 0.  0.
         11    1    3    3    0    0 -0.17332687991E+03  0.56547706659E+02 -0.30278215343E+03  0.35343582567E+03  0.00000000000E+00 0.  1.
        -11    1    3    3    0    0 -0.13852076953E+03  0.88651682211E+02 -0.45907434210E+03  0.48764369772E+03  0.00000000000E+00 0. -1.
         22    1    1    2    0    0  0.31184764945E+03 -0.14519938887E+03 -0.38120411810E+03  0.51346703755E+03  0.00000000000E+00 0. -1.
<mgrwt>
<rscale>  0 0.72677976E+03</rscale>
<asrwt>0</asrwt>
<pdfrwt beam="1">  1        1 0.16268150E-01 0.72677976E+03</pdfrwt>
<pdfrwt beam="2">  1       -1 0.19212363E+00 0.72677976E+03</pdfrwt>
<totfact> 0.60403354E+01</totfact>
</mgrwt>
</event>
<event>
 6    1  0.1072514E-005  0.3470065E+04  0.7818608E-02  0.8120921E-01
          2   -1    0    0  501    0  0.00000000000E+00  0.00000000000E+00  0.12741161494E+04  0.12741161494E+04  0.00000000000E+00 0. -1.
         -2   -1    0    0    0  501 -0.00000000000E+00 -0.00000000000E+00 -0.23626867695E+04  0.23626867695E+04  0.00000000000E+00 0.  1.
         23    2    1    2    0    0 -0.10623798906E+03 -0.15393097719E+04  0.28418967155E+03  0.15715591312E+04  0.90957404856E+02 0.  0.
         11    1    3    3    0    0 -0.11943929341E+03 -0.12415736265E+04  0.24188571659E+03  0.12705430000E+04  0.00000000000E+00 0.  1.
        -11    1    3    3    0    0  0.13201304352E+02 -0.29773614536E+03  0.42303954959E+02  0.30101613129E+03  0.00000000000E+00 0. -1.
         22    1    1    2    0    0  0.10623798906E+03  0.15393097719E+04 -0.13727602917E+04  0.20652437877E+04  0.00000000000E+00 0.  1.
<mgrwt>
<rscale>  0 0.34700648E+04</rscale>
<asrwt>0</asrwt>
<pdfrwt beam="1">  1        2 0.19601787E+00 0.34700648E+04</pdfrwt>
<pdfrwt beam="2">  1       -2 0.36349027E+00 0.34700648E+04</pdfrwt>
<totfact> 0.18006665E-01</totfact>
</mgrwt>
</event>
<event>
 6    1  0.1072514E-005  0.3413558E+04  0.7818608E-02  0.8134587E-01
         -1   -1    0    0    0  501 -0.00000000000E+00  0.00000000000E+00  0.15825875405E+04  0.15825875405E+04  0.00000000000E+00 0. -1.
          1   -1    0    0  501    0  0.00000000000E+00 -0.00000000000E+00 -0.18407165727E+04  0.18407165727E+04  0.00000000000E+00 0.  1.
         23    2    1    2    0    0  0.16837329887E+04  0.22363424716E+03 -0.28511933881E+03  0.17245700167E+04  0.88767401787E+02 0.  0.
         11    1    3    3    0    0  0.69139610467E+03  0.10920202678E+03 -0.15824826098E+03  0.71763233505E+03  0.00000000000E+00 0. -1.
        -11    1    3    3    0    0  0.99233688401E+03  0.11443222038E+03 -0.12687107783E+03  0.10069376817E+04  0.00000000000E+00 0.  1.
         22    1    1    2    0    0 -0.16837329887E+04 -0.22363424716E+03  0.26990306555E+02  0.16987340964E+04  0.00000000000E+00 0. -1.
<mgrwt>
<rscale>  0 0.34135583E+04</rscale>
<asrwt>0</asrwt>
<pdfrwt beam="1">  1        1 0.28318717E+00 0.34135583E+04</pdfrwt>
<pdfrwt beam="2">  1       -1 0.24347501E+00 0.34135583E+04</pdfrwt>
<totfact> 0.24164922E-01</totfact>
</mgrwt>
</event>
<event>
 6    1  0.1072514E-005  0.2260921E+04  0.7818608E-02  0.8493491E-01
          1   -1    0    0  501    0  0.00000000000E+00  0.00000000000E+00  0.16175896543E+04  0.16175896543E+04  0.00000000000E+00 0. -1.
         -1   -1    0    0    0  501 -0.00000000000E+00 -0.00000000000E+00 -0.79002776996E+03  0.79002776996E+03  0.00000000000E+00 0.  1.
         23    2    1    2    0    0  0.10565087000E+04 -0.38054987588E+03  0.29374149933E+03  0.11642377378E+04  0.90203106586E+02 0.  0.
         13    1    3    3    0    0  0.51658735183E+03 -0.21843832321E+03  0.11211606939E+03  0.57196836114E+03  0.00000000000E+00 0. -1.
        -13    1    3    3    0    0  0.53992134818E+03 -0.16211155267E+03  0.18162542994E+03  0.59226937666E+03  0.00000000000E+00 0.  1.
         22    1    1    2    0    0 -0.10565087000E+04  0.38054987588E+03  0.53382038498E+03  0.12433796864E+04  0.00000000000E+00 0. -1.
<mgrwt>
<rscale>  0 0.22609208E+04</rscale>
<asrwt>0</asrwt>
<pdfrwt beam="1">  1        1 0.24885995E+00 0.22609208E+04</pdfrwt>
<pdfrwt beam="2">  1       -1 0.12154273E+00 0.22609208E+04</pdfrwt>
<totfact> 0.29527045E+00</totfact>
</mgrwt>
</event>
<event>
 6    1  0.1072514E-005  0.2022434E+04  0.7818608E-02  0.8596203E-01
         -2   -1    0    0    0  501 -0.00000000000E+00  0.00000000000E+00  0.15840519513E+04  0.15840519513E+04  0.00000000000E+00 0.  1.
          2   -1    0    0  501    0  0.00000000000E+00 -0.00000000000E+00 -0.64553455059E+03  0.64553455059E+03  0.00000000000E+00 0. -1.
         23    2    1    2    0    0  0.61198535882E+03 -0.75426110671E+03  0.16813260523E+03  0.98985724530E+03  0.90071619447E+02 0.  0.
         11    1    3    3    0    0  0.31457002160E+03 -0.32204238380E+03  0.59934400209E+02  0.45415606105E+03  0.00000000000E+00 0. -1.
        -11    1    3    3    0    0  0.29741533722E+03 -0.43221872291E+03  0.10819820502E+03  0.53570118426E+03  0.00000000000E+00 0.  1.
         22    1    1    2    0    0 -0.61198535882E+03  0.75426110671E+03  0.77038479542E+03  0.12397292565E+04  0.00000000000E+00 0.  1.
<mgrwt>
<rscale>  0 0.20224344E+04</rscale>
<asrwt>0</asrwt>
<pdfrwt beam="1">  1        2 0.99313008E-01 0.20224344E+04</pdfrwt>
<pdfrwt beam="2">  1       -2 0.24370030E+00 0.20224344E+04</pdfrwt>
<totfact> 0.29544370E+00</totfact>
</mgrwt>
</event>
<event>
 6    1  0.1072514E-005  0.1193660E+04  0.7818608E-02  0.9118424E-01
          2   -1    0    0  501    0  0.00000000000E+00  0.00000000000E+00  0.59410674557E+03  0.59410674557E+03  0.00000000000E+00 0. -1.
         -2   -1    0    0    0  501 -0.00000000000E+00 -0.00000000000E+00 -0.59956548703E+03  0.59956548703E+03  0.00000000000E+00 0.  1.
         23    2    1    2    0    0 -0.20487207783E+03  0.15431099076E+03 -0.53749724241E+03  0.60303747521E+03  0.94691397501E+02 0.  0.
         13    1    3    3    0    0 -0.12114179470E+03  0.10067499330E+03 -0.42307550761E+03  0.45144620259E+03  0.00000000000E+00 0.  1.
        -13    1    3    3    0    0 -0.83730283134E+02  0.53635997459E+02 -0.11442173480E+03  0.15159127261E+03  0.00000000000E+00 0. -1.
         22    1    1    2    0    0  0.20487207783E+03 -0.15431099076E+03  0.53203850095E+03  0.59063475739E+03  0.00000000000E+00 0. -1.
<mgrwt>
<rscale>  0 0.11936598E+04</rscale>
<asrwt>0</asrwt>
<pdfrwt beam="1">  1        2 0.91401038E-01 0.11936598E+04</pdfrwt>
<pdfrwt beam="2">  1       -2 0.92240844E-01 0.11936598E+04</pdfrwt>
<totfact> 0.49482531E+01</totfact>
</mgrwt>
</event>
<event>
 6    1  0.1072514E-005  0.1789108E+04  0.7818608E-02  0.8712113E-01
          1   -1    0    0  501    0  0.00000000000E+00  0.00000000000E+00  0.16874782941E+04  0.16874782941E+04  0.00000000000E+00 0. -1.
         -1   -1    0    0    0  501 -0.00000000000E+00 -0.00000000000E+00 -0.47421458700E+03  0.47421458700E+03  0.00000000000E+00 0.  1.
         23    2    1    2    0    0  0.24765902425E+03 -0.50798410192E+03  0.14424051611E+04  0.15518661466E+04  0.91504361624E+02 0.  0.
         13    1    3    3    0    0  0.47788086918E+00 -0.46960363949E+02  0.16357579371E+03  0.17018385481E+03  0.00000000000E+00 0. -1.
        -13    1    3    3    0    0  0.24718114338E+03 -0.46102373797E+03  0.12788293674E+04  0.13816822918E+04  0.00000000000E+00 0.  1.
         22    1    1    2    0    0 -0.24765902425E+03  0.50798410192E+03 -0.22914145402E+03  0.60982673444E+03  0.00000000000E+00 0.  1.
<mgrwt>
<rscale>  0 0.17891080E+04</rscale>
<asrwt>0</asrwt>
<pdfrwt beam="1">  1        1 0.25961204E+00 0.17891080E+04</pdfrwt>
<pdfrwt beam="2">  1       -1 0.72956091E-01 0.17891080E+04</pdfrwt>
<totfact> 0.86948916E+00</totfact>
</mgrwt>
</event>
<event>
 6    1  0.1072514E-005  0.1649994E+04  0.7818608E-02  0.8790410E-01
         -2   -1    0    0    0  501 -0.00000000000E+00  0.00000000000E+00  0.53028418243E+03  0.53028418243E+03  0.00000000000E+00 0.  1.
          2   -1    0    0  501    0  0.00000000000E+00 -0.00000000000E+00 -0.12835009610E+04  0.12835009610E+04  0.00000000000E+00 0. -1.
         23    2    1    2    0    0 -0.81340900834E+03 -0.12225881085E+03 -0.38555987050E+03  0.91281176220E+03  0.89372634493E+02 0.  0.
         11    1    3    3    0    0 -0.54848852920E+03 -0.10947498302E+03 -0.29644752076E+03  0.63301308923E+03  0.00000000000E+00 0. -1.
        -11    1    3    3    0    0 -0.26492047914E+03 -0.12783827838E+02 -0.89112349739E+02  0.27979867297E+03  0.00000000000E+00 0.  1.
         22    1    1    2    0    0  0.81340900834E+03  0.12225881085E+03 -0.36765690811E+03  0.90097338127E+03  0.00000000000E+00 0.  1.
<mgrwt>
<rscale>  0 0.16499943E+04</rscale>
<asrwt>0</asrwt>
<pdfrwt beam="1">  1        2 0.19746168E+00 0.16499943E+04</pdfrwt>
<pdfrwt beam="2">  1       -2 0.81582183E-01 0.16499943E+04</pdfrwt>
<totfact> 0.21356779E+01</totfact>
</mgrwt>
</event>
<event>
 6    1  0.1072514E-005  0.1427877E+04  0.7818608E-02  0.8933884E-01
          2   -1    0    0  501    0  0.00000000000E+00  0.00000000000E+00  0.16369903422E+04  0.16369903422E+04  0.00000000000E+00 0. -1.
         -2   -1    0    0    0  501 -0.00000000000E+00 -0.00000000000E+00 -0.31136887272E+03  0.31136887272E+03  0.00000000000E+00 0.  1.
         23    2    1    2    0    0  0.75110367887E+02  0.67722067942E+03  0.38234000980E+03  0.78472296241E+03  0.73053601166E+02 0.  0.
         11    1    3    3    0    0  0.26157310925E+02  0.38803189070E+03  0.18103028759E+03  0.42898125617E+03  0.00000000000E+00 0. -1.
        -11    1    3    3    0    0  0.48953056961E+02  0.28918878872E+03  0.20130972221E+03  0.35574170624E+03  0.00000000000E+00 0.  1.
         22    1    1    2    0    0 -0.75110367887E+02 -0.67722067942E+03  0.94328145972E+03  0.11636362526E+04  0.00000000000E+00 0. -1.
<mgrwt>
<rscale>  0 0.14278765E+04</rscale>
<asrwt>0</asrwt>
<pdfrwt beam="1">  1        2 0.25184466E+00 0.14278765E+04</pdfrwt>
<pdfrwt beam="2">  1       -2 0.47902904E-01 0.14278765E+04</pdfrwt>
<totfact> 0.42638920E+01</totfact>
</mgrwt>
</event>
<event>
 6    1  0.1072514E-005  0.2352514E+04  0.7818608E-02  0.8457499E-01
         -2   -1    0    0    0  501 -0.00000000000E+00  0.00000000000E+00  0.61535955149E+03  0.61535955149E+03  0.00000000000E+00 0.  1.
          2   -1    0    0  501    0  0.00000000000E+00 -0.00000000000E+00 -0.22484103478E+04  0.22484103478E+04  0.00000000000E+00 0. -1.
         23    2    1    2    0    0  0.94519299546E+03  0.32932187312E+03 -0.69663678664E+02  0.10074234945E+04  0.90589041592E+02 0.  0.
         11    1    3    3    0    0  0.34669248860E+03  0.82212749352E+02 -0.48281047454E+02  0.35956317575E+03  0.00000000000E+00 0. -1.
        -11    1    3    3    0    0  0.59850050686E+03  0.24710912377E+03 -0.21382631210E+02  0.64786031880E+03  0.00000000000E+00 0.  1.
         22    1    1    2    0    0 -0.94519299546E+03 -0.32932187312E+03 -0.15633871176E+04  0.18563464047E+04  0.00000000000E+00 0.  1.
<mgrwt>
<rscale>  0 0.23525142E+04</rscale>
<asrwt>0</asrwt>
<pdfrwt beam="1">  1        2 0.34590928E+00 0.23525142E+04</pdfrwt>
<pdfrwt beam="2">  1       -2 0.94670700E-01 0.23525142E+04</pdfrwt>
<totfact> 0.41125507E+00</totfact>
</mgrwt>
</event>
<event>
 6    1  0.1072514E-005  0.2752079E+04  0.7818608E-02  0.8318302E-01
         -2   -1    0    0    0  501 -0.00000000000E+00  0.00000000000E+00  0.11635081350E+04  0.11635081350E+04  0.00000000000E+00 0.  1.
          2   -1    0    0  501    0  0.00000000000E+00 -0.00000000000E+00 -0.16273931978E+04  0.16273931978E+04  0.00000000000E+00 0. -1.
         23    2    1    2    0    0 -0.41150550159E+03 -0.37621920706E+03  0.10418095501E+04  0.11852880741E+04  0.93075293254E+02 0.  0.
         11    1    3    3    0    0 -0.51474452822E+02 -0.74100489932E+02  0.11549050759E+03  0.14655565238E+03  0.00000000000E+00 0.  1.
        -11    1    3    3    0    0 -0.36003104877E+03 -0.30211871713E+03  0.92631904252E+03  0.10387324217E+04  0.00000000000E+00 0. -1.
         22    1    1    2    0    0  0.41150550159E+03  0.37621920706E+03 -0.15056946129E+04  0.16056132588E+04  0.00000000000E+00 0. -1.
<mgrwt>
<rscale>  0 0.27520794E+04</rscale>
<asrwt>0</asrwt>
<pdfrwt beam="1">  1        2 0.25036818E+00 0.27520794E+04</pdfrwt>
<pdfrwt beam="2">  1       -2 0.17900125E+00 0.27520794E+04</pdfrwt>
<totfact> 0.17328968E+00</totfact>
</mgrwt>
</event>
<event>
 6    1  0.1072514E-005  0.3402141E+04  0.7818608E-02  0.8137381E-01
         -1   -1    0    0    0  501 -0.00000000000E+00  0.00000000000E+00  0.26778936514E+04  0.26778936514E+04  0.00000000000E+00 0.  1.
          1   -1    0    0  501    0  0.00000000000E+00 -0.00000000000E+00 -0.10805657916E+04  0.10805657916E+04  0.00000000000E+00 0. -1.
         23    2    1    2    0    0 -0.11330601893E+04 -0.12637615947E+04  0.90069703858E+03  0.19237351417E+04  0.92644369148E+02 0.  0.
         11    1    3    3    0    0 -0.26440457923E+03 -0.34718257844E+03  0.25466970512E+03  0.50527436407E+03  0.00000000000E+00 0.  1.
        -11    1    3    3    0    0 -0.86865561012E+03 -0.91657901629E+03  0.64602733346E+03  0.14184607776E+04  0.00000000000E+00 0. -1.
         22    1    1    2    0    0  0.11330601893E+04  0.12637615947E+04  0.69663082123E+03  0.18347243014E+04  0.00000000000E+00 0.  1.
<mgrwt>
<rscale>  0 0.34021407E+04</rscale>
<asrwt>0</asrwt>
<pdfrwt beam="1">  1        1 0.16624089E+00 0.34021407E+04</pdfrwt>
<pdfrwt beam="2">  1       -1 0.41198364E+00 0.34021407E+04</pdfrwt>
<totfact> 0.63812398E-02</totfact>
</mgrwt>
</event>
<event>
 6    1  0.1072514E-005  0.2213008E+04  0.7818608E-02  0.8513034E-01
          2   -1    0    0  501    0  0.00000000000E+00  0.00000000000E+00  0.11540460984E+04  0.11540460984E+04  0.00000000000E+00 0. -1.
         -2   -1    0    0    0  501 -0.00000000000E+00 -0.00000000000E+00 -0.10609200600E+04  0.10609200600E+04  0.00000000000E+00 0.  1.
         23    2    1    2    0    0 -0.62300571070E+03  0.21456329602E+03  0.93453818189E+03  0.11462529513E+04  0.79753943335E+02 0.  0.
         11    1    3    3    0    0 -0.25742319100E+03  0.75156622597E+02  0.44515327795E+03  0.51968900128E+03  0.00000000000E+00 0. -1.
        -11    1    3    3    0    0 -0.36558251970E+03  0.13940667342E+03  0.48938490394E+03  0.62656395005E+03  0.00000000000E+00 0.  1.
         22    1    1    2    0    0  0.62300571070E+03 -0.21456329602E+03 -0.84141214356E+03  0.10687132070E+04  0.00000000000E+00 0.  1.
<mgrwt>
<rscale>  0 0.22130076E+04</rscale>
<asrwt>0</asrwt>
<pdfrwt beam="1">  1        2 0.17754555E+00 0.22130076E+04</pdfrwt>
<pdfrwt beam="2">  1       -2 0.16321847E+00 0.22130076E+04</pdfrwt>
<totfact> 0.43969394E+00</totfact>
</mgrwt>
</event>
<event>
 6    1  0.1072514E-005  0.1957359E+04  0.7818608E-02  0.8626820E-01
         -2   -1    0    0    0  501 -0.00000000000E+00  0.00000000000E+00  0.12063942334E+04  0.12063942334E+04  0.00000000000E+00 0.  1.
          2   -1    0    0  501    0  0.00000000000E+00 -0.00000000000E+00 -0.79394773355E+03  0.79394773355E+03  0.00000000000E+00 0. -1.
         23    2    1    2    0    0 -0.90938414838E+03 -0.18502301005E+02 -0.15679724912E+03  0.92732737701E+03  0.89603696119E+02 0.  0.
         11    1    3    3    0    0 -0.56271273000E+03 -0.28709415244E+02 -0.13744429563E+03  0.57996618990E+03  0.00000000000E+00 0. -1.
        -11    1    3    3    0    0 -0.34667141838E+03  0.10207114239E+02 -0.19352953493E+02  0.34736118711E+03  0.00000000000E+00 0.  1.
         22    1    1    2    0    0  0.90938414838E+03  0.18502301005E+02  0.56924374896E+03  0.10730145899E+04  0.00000000000E+00 0.  1.
<mgrwt>
<rscale>  0 0.19573594E+04</rscale>
<asrwt>0</asrwt>
<pdfrwt beam="1">  1        2 0.12214581E+00 0.19573594E+04</pdfrwt>
<pdfrwt beam="2">  1       -2 0.18559911E+00 0.19573594E+04</pdfrwt>
<totfact> 0.53815589E+00</totfact>
</mgrwt>
</event>
<event>
 6    1  0.1072514E-005  0.8952876E+03  0.7818608E-02  0.9431491E-01
         -2   -1    0    0    0  501 -0.00000000000E+00  0.00000000000E+00  0.34413695126E+03  0.34413695126E+03  0.00000000000E+00 0.  1.
          2   -1    0    0  501    0  0.00000000000E+00 -0.00000000000E+00 -0.58228258296E+03  0.58228258296E+03  0.00000000000E+00 0. -1.
         23    2    1    2    0    0  0.15998839571E+03 -0.13559980777E+03 -0.52422974829E+03  0.57169750729E+03  0.89652753566E+02 0.  0.
         13    1    3    3    0    0  0.27676493814E+02 -0.98677225527E+01 -0.17695404444E+03  0.17937696090E+03  0.00000000000E+00 0.  1.
        -13    1    3    3    0    0  0.13231190189E+03 -0.12573208522E+03 -0.34727570385E+03  0.39232054639E+03  0.00000000000E+00 0. -1.
         22    1    1    2    0    0 -0.15998839571E+03  0.13559980777E+03  0.28608411659E+03  0.35472202693E+03  0.00000000000E+00 0.  1.
<mgrwt>
<rscale>  0 0.89528756E+03</rscale>
<asrwt>0</asrwt>
<pdfrwt beam="1">  1        2 0.89581935E-01 0.89528756E+03</pdfrwt>
<pdfrwt beam="2">  1       -2 0.52944147E-01 0.89528756E+03</pdfrwt>
<totfact> 0.17366751E+02</totfact>
</mgrwt>
</event>
<event>
 6    1  0.1072514E-005  0.2580879E+04  0.7818608E-02  0.8374725E-01
          2   -1    0    0  501    0  0.00000000000E+00  0.00000000000E+00  0.31432161058E+04  0.31432161058E+04  0.00000000000E+00 0. -1.
         -2   -1    0    0    0  501 -0.00000000000E+00 -0.00000000000E+00 -0.52978679400E+03  0.52978679400E+03  0.00000000000E+00 0.  1.
         23    2    1    2    0    0  0.12222620215E+03  0.11575808077E+04  0.52088259091E+03  0.12784916031E+04  0.91046882209E+02 0.  0.
         11    1    3    3    0    0  0.98933784324E+02  0.76914327102E+03  0.30350603221E+03  0.83275757374E+03  0.00000000000E+00 0.  1.
        -11    1    3    3    0    0  0.23292417823E+02  0.38843753672E+03  0.21737655870E+03  0.44573402936E+03  0.00000000000E+00 0. -1.
         22    1    1    2    0    0 -0.12222620215E+03 -0.11575808077E+04  0.20925467209E+04  0.23945112967E+04  0.00000000000E+00 0. -1.
<mgrwt>
<rscale>  0 0.25808792E+04</rscale>
<asrwt>0</asrwt>
<pdfrwt beam="1">  1        2 0.48357170E+00 0.25808792E+04</pdfrwt>
<pdfrwt beam="2">  1       -2 0.81505662E-01 0.25808792E+04</pdfrwt>
<totfact> 0.16577909E+00</totfact>
</mgrwt>
</event>
<event>
 6    1  0.1072514E-005  0.1311087E+04  0.7818608E-02  0.9020819E-01
         -1   -1    0    0    0  501 -0.00000000000E+00  0.00000000000E+00  0.19998439662E+04  0.19998439662E+04  0.00000000000E+00 0.  1.
          1   -1    0    0  501    0  0.00000000000E+00 -0.00000000000E+00 -0.21488554301E+03  0.21488554301E+03  0.00000000000E+00 0. -1.
         23    2    1    2    0    0 -0.58203528445E+03 -0.20052536293E+03  0.53299471736E+03  0.81959918762E+03  0.93187800129E+02 0.  0.
         11    1    3    3    0    0 -0.36974594123E+03 -0.82751251203E+02  0.34686492597E+03  0.51368775292E+03  0.00000000000E+00 0. -1.
        -11    1    3    3    0    0 -0.21228934322E+03 -0.11777411173E+03  0.18612979139E+03  0.30591143470E+03  0.00000000000E+00 0.  1.
         22    1    1    2    0    0  0.58203528445E+03  0.20052536293E+03  0.12519637058E+04  0.13951303216E+04  0.00000000000E+00 0.  1.
<mgrwt>
<rscale>  0 0.13110874E+04</rscale>
<asrwt>0</asrwt>
<pdfrwt beam="1">  1        1 0.33059316E-01 0.13110874E+04</pdfrwt>
<pdfrwt beam="2">  1       -1 0.30766829E+00 0.13110874E+04</pdfrwt>
<totfact> 0.39363727E+00</totfact>
</mgrwt>
</event>
<event>
 6    1  0.1072514E-005  0.1950449E+04  0.7818608E-02  0.8630144E-01
         -1   -1    0    0    0  501 -0.00000000000E+00  0.00000000000E+00  0.10134725840E+04  0.10134725840E+04  0.00000000000E+00 0.  1.
          1   -1    0    0  501    0  0.00000000000E+00 -0.00000000000E+00 -0.93842000703E+03  0.93842000703E+03  0.00000000000E+00 0. -1.
         23    2    1    2    0    0 -0.64929387451E+03 -0.17941741596E+03 -0.66509750289E+03  0.95109526622E+03  0.91947661417E+02 0.  0.
         13    1    3    3    0    0 -0.16744200719E+03 -0.84889719964E+02 -0.16017381512E+03  0.24677670347E+03  0.00000000000E+00 0. -1.
        -13    1    3    3    0    0 -0.48185186732E+03 -0.94527695995E+02 -0.50492368777E+03  0.70431856275E+03  0.00000000000E+00 0.  1.
         22    1    1    2    0    0  0.64929387451E+03  0.17941741596E+03  0.74015007988E+03  0.10007973248E+04  0.00000000000E+00 0.  1.
<mgrwt>
<rscale>  0 0.19504491E+04</rscale>
<asrwt>0</asrwt>
<pdfrwt beam="1">  1        1 0.14437231E+00 0.19504491E+04</pdfrwt>
<pdfrwt beam="2">  1       -1 0.15591886E+00 0.19504491E+04</pdfrwt>
<totfact> 0.49533034E+00</totfact>
</mgrwt>
</event>
<event>
 6    1  0.1409188E-005  0.4832964E+04  0.7818608E-02  0.7854804E-01
         -1   -1    0    0    0  501 -0.00000000000E+00  0.00000000000E+00  0.17933830331E+04  0.17933830331E+04  0.00000000000E+00 0.  1.
          1   -1    0    0  501    0  0.00000000000E+00 -0.00000000000E+00 -0.32560723635E+04  0.32560723635E+04  0.00000000000E+00 0. -1.
         23    2    1    2    0    0 -0.97919320466E+03 -0.49077434314E+03 -0.29811291536E+04  0.31772005302E+04  0.88280180528E+02 0.  0.
         11    1    3    3    0    0 -0.48129983072E+03 -0.24801283209E+03 -0.13472810643E+04  0.14520076302E+04  0.00000000000E+00 0. -1.
        -11    1    3    3    0    0 -0.49789337395E+03 -0.24276151104E+03 -0.16338480894E+04  0.17251929000E+04  0.00000000000E+00 0.  1.
         22    1    1    2    0    0  0.97919320466E+03  0.49077434314E+03  0.15184398233E+04  0.18722548664E+04  0.00000000000E+00 0.  1.
<mgrwt>
<rscale>  0 0.48329639E+04</rscale>
<asrwt>0</asrwt>
<pdfrwt beam="1">  1        1 0.50093421E+00 0.48329639E+04</pdfrwt>
<pdfrwt beam="2">  1       -1 0.27590508E+00 0.48329639E+04</pdfrwt>
<totfact> 0.13339885E-02</totfact>
</mgrwt>
</event>
<event>
 6    1  0.1072514E-005  0.1639551E+04  0.7818608E-02  0.8796612E-01
         -2   -1    0    0    0  501 -0.00000000000E+00  0.00000000000E+00  0.40910208952E+03  0.40910208952E+03  0.00000000000E+00 0.  1.
          2   -1    0    0  501    0  0.00000000000E+00 -0.00000000000E+00 -0.16426996779E+04  0.16426996779E+04  0.00000000000E+00 0. -1.
         23    2    1    2    0    0  0.55914302539E+03  0.59623801845E+03 -0.64613823256E+03  0.10451989698E+04  0.82495899249E+02 0.  0.
         11    1    3    3    0    0  0.34704921481E+03  0.31692448707E+03 -0.34634519337E+03  0.58381442341E+03  0.00000000000E+00 0.  1.
        -11    1    3    3    0    0  0.21209381057E+03  0.27931353138E+03 -0.29979303919E+03  0.46138454638E+03  0.00000000000E+00 0. -1.
         22    1    1    2    0    0 -0.55914302539E+03 -0.59623801845E+03 -0.58745935585E+03  0.10066027977E+04  0.00000000000E+00 0.  1.
<mgrwt>
<rscale>  0 0.16395510E+04</rscale>
<asrwt>0</asrwt>
<pdfrwt beam="1">  1        2 0.25272303E+00 0.16395510E+04</pdfrwt>
<pdfrwt beam="2">  1       -2 0.62938783E-01 0.16395510E+04</pdfrwt>
<totfact> 0.23604821E+01</totfact>
</mgrwt>
</event>
<event>
 6    1  0.1072514E-005  0.1603851E+04  0.7818608E-02  0.8818186E-01
         -2   -1    0    0    0  501 -0.00000000000E+00  0.00000000000E+00  0.67636017088E+03  0.67636017088E+03  0.00000000000E+00 0.  1.
          2   -1    0    0  501    0  0.00000000000E+00 -0.00000000000E+00 -0.95080209866E+03  0.95080209866E+03  0.00000000000E+00 0. -1.
         23    2    1    2    0    0 -0.35570602551E+03 -0.70335422404E+03 -0.26941592520E+03  0.83896229380E+03  0.10019405479E+03 0.  0.
         11    1    3    3    0    0 -0.10234517642E+03 -0.27492502403E+03 -0.62571189858E+02  0.29995575970E+03  0.00000000000E+00 0.  1.
        -11    1    3    3    0    0 -0.25336084909E+03 -0.42842920000E+03 -0.20684473534E+03  0.53900653410E+03  0.00000000000E+00 0. -1.
         22    1    1    2    0    0  0.35570602551E+03  0.70335422404E+03 -0.50260025732E+01  0.78819997574E+03  0.00000000000E+00 0. -1.
<mgrwt>
<rscale>  0 0.16038512E+04</rscale>
<asrwt>0</asrwt>
<pdfrwt beam="1">  1        2 0.14627725E+00 0.16038512E+04</pdfrwt>
<pdfrwt beam="2">  1       -2 0.10405541E+00 0.16038512E+04</pdfrwt>
<totfact> 0.19531305E+01</totfact>
</mgrwt>
</event>
<event>
 6    1  0.1072514E-005  0.6181214E+03  0.7818608E-02  0.9868507E-01
         -1   -1    0    0    0  501 -0.00000000000E+00  0.00000000000E+00  0.35555408551E+03  0.35555408551E+03  0.00000000000E+00 0.  1.
          1   -1    0    0  501    0  0.00000000000E+00 -0.00000000000E+00 -0.26864691295E+03  0.26864691295E+03  0.00000000000E+00 0. -1.
         23    2    1    2    0    0  0.37403067863E+02  0.28901453344E+03  0.12566032122E+03  0.33021086843E+03  0.91215740298E+02 0.  0.
         13    1    3    3    0    0  0.38984620080E+02  0.11926921684E+03  0.12285227619E+02  0.12607883846E+03  0.00000000000E+00 0. -1.
        -13    1    3    3    0    0 -0.15815522170E+01  0.16974531660E+03  0.11337509360E+03  0.20413202998E+03  0.00000000000E+00 0.  1.
         22    1    1    2    0    0 -0.37403067863E+02 -0.28901453344E+03 -0.38753148656E+02  0.29399013003E+03  0.00000000000E+00 0. -1.
<mgrwt>
<rscale>  0 0.61812137E+03</rscale>
<asrwt>0</asrwt>
<pdfrwt beam="1">  1        1 0.41330294E-01 0.61812137E+03</pdfrwt>
<pdfrwt beam="2">  1       -1 0.54700629E-01 0.61812137E+03</pdfrwt>
<totfact> 0.34662009E+02</totfact>
</mgrwt>
</event>
<event>
 6    1  0.1072514E-005  0.1954884E+04  0.7818608E-02  0.8628009E-01
         -1   -1    0    0    0  501 -0.00000000000E+00  0.00000000000E+00  0.53502614308E+03  0.53502614308E+03  0.00000000000E+00 0.  1.
          1   -1    0    0  501    0  0.00000000000E+00 -0.00000000000E+00 -0.17856941490E+04  0.17856941490E+04  0.00000000000E+00 0. -1.
         23    2    1    2    0    0  0.53905160544E+03 -0.47605034864E+03 -0.14099570139E+04  0.15841243676E+04  0.65350312515E+02 0.  0.
         13    1    3    3    0    0  0.13619650229E+03 -0.15905737900E+03 -0.39639550001E+03  0.44830584368E+03  0.00000000000E+00 0. -1.
        -13    1    3    3    0    0  0.40285510315E+03 -0.31699296964E+03 -0.10135615139E+04  0.11358185240E+04  0.00000000000E+00 0.  1.
         22    1    1    2    0    0 -0.53905160544E+03  0.47605034864E+03  0.15928900803E+03  0.73659592440E+03  0.00000000000E+00 0.  1.
<mgrwt>
<rscale>  0 0.19548842E+04</rscale>
<asrwt>0</asrwt>
<pdfrwt beam="1">  1        1 0.27472217E+00 0.19548842E+04</pdfrwt>
<pdfrwt beam="2">  1       -1 0.82311716E-01 0.19548842E+04</pdfrwt>
<totfact> 0.56934174E+00</totfact>
</mgrwt>
</event>
<event>
 6    1  0.1072514E-005  0.3411317E+04  0.7818608E-02  0.8135134E-01
          2   -1    0    0  501    0  0.00000000000E+00  0.00000000000E+00  0.19606481848E+04  0.19606481848E+04  0.00000000000E+00 0. -1.
         -2   -1    0    0    0  501 -0.00000000000E+00 -0.00000000000E+00 -0.14838308394E+04  0.14838308394E+04  0.00000000000E+00 0.  1.
         23    2    1    2    0    0 -0.99068923048E+03  0.35830220292E+03  0.15915492699E+04  0.19107016989E+04  0.88917286046E+02 0.  0.
         13    1    3    3    0    0 -0.59572325753E+02  0.34991502740E+02  0.74804043461E+02  0.10182785561E+03  0.00000000000E+00 0. -1.
        -13    1    3    3    0    0 -0.93111690472E+03  0.32331070018E+03  0.15167452264E+04  0.18088738433E+04  0.00000000000E+00 0.  1.
         22    1    1    2    0    0  0.99068923048E+03 -0.35830220292E+03 -0.11147319246E+04  0.15337773253E+04  0.00000000000E+00 0.  1.
<mgrwt>
<rscale>  0 0.34113166E+04</rscale>
<asrwt>0</asrwt>
<pdfrwt beam="1">  1        2 0.30163818E+00 0.34113166E+04</pdfrwt>
<pdfrwt beam="2">  1       -2 0.22828167E+00 0.34113166E+04</pdfrwt>
<totfact> 0.50976005E-01</totfact>
</mgrwt>
</event>
<event>
 6    1  0.1072514E-005  0.2499647E+04  0.7818608E-02  0.8403111E-01
         -2   -1    0    0    0  501 -0.00000000000E+00  0.00000000000E+00  0.53351310864E+03  0.53351310864E+03  0.00000000000E+00 0.  1.
          2   -1    0    0  501    0  0.00000000000E+00 -0.00000000000E+00 -0.29278722666E+04  0.29278722666E+04  0.00000000000E+00 0. -1.
         23    2    1    2    0    0  0.34729024106E+03  0.10383159260E+04 -0.36911387924E+03  0.11591410545E+04  0.93018571384E+02 0.  0.
         13    1    3    3    0    0  0.33734825900E+03  0.91725077202E+03 -0.32975892113E+03  0.10314522639E+04  0.00000000000E+00 0. -1.
        -13    1    3    3    0    0  0.99419820569E+01  0.12106515395E+03 -0.39354958116E+02  0.12768879057E+03  0.00000000000E+00 0.  1.
         22    1    1    2    0    0 -0.34729024106E+03 -0.10383159260E+04 -0.20252452788E+04  0.23022443208E+04  0.00000000000E+00 0. -1.
<mgrwt>
<rscale>  0 0.24996466E+04</rscale>
<asrwt>0</asrwt>
<pdfrwt beam="1">  1        2 0.45044188E+00 0.24996466E+04</pdfrwt>
<pdfrwt beam="2">  1       -2 0.82078940E-01 0.24996466E+04</pdfrwt>
<totfact> 0.22468991E+00</totfact>
</mgrwt>
</event>
<event>
 6    1  0.1072514E-005  0.7755219E+03  0.7818608E-02  0.9596140E-01
         -2   -1    0    0    0  501 -0.00000000000E+00  0.00000000000E+00  0.65618693607E+03  0.65618693607E+03  0.00000000000E+00 0.  1.
          2   -1    0    0  501    0  0.00000000000E+00 -0.00000000000E+00 -0.22913982305E+03  0.22913982305E+03  0.00000000000E+00 0. -1.
         23    2    1    2    0    0 -0.25732597060E+03  0.93505018496E+02  0.52048321299E+03  0.59603426282E+03  0.96923804221E+02 0.  0.
         13    1    3    3    0    0 -0.23241253341E+03  0.46691036265E+02  0.43626828161E+03  0.49651349639E+03  0.00000000000E+00 0.  1.
        -13    1    3    3    0    0 -0.24913437190E+02  0.46813982231E+02  0.84214931379E+02  0.99520766437E+02  0.00000000000E+00 0. -1.
         22    1    1    2    0    0  0.25732597060E+03 -0.93505018496E+02 -0.93436099968E+02  0.28929249629E+03  0.00000000000E+00 0. -1.
<mgrwt>
<rscale>  0 0.77552191E+03</rscale>
<asrwt>0</asrwt>
<pdfrwt beam="1">  1        2 0.35252281E-01 0.77552191E+03</pdfrwt>
<pdfrwt beam="2">  1       -2 0.10095184E+00 0.77552191E+03</pdfrwt>
<totfact> 0.12079639E+02</totfact>
</mgrwt>
</event>
<event>
 6    1  0.1072514E-005  0.5219479E+04  0.7818608E-02  0.7795514E-01
         -2   -1    0    0    0  501 -0.00000000000E+00  0.00000000000E+00  0.23887514126E+04  0.23887514126E+04  0.00000000000E+00 0.  1.
          2   -1    0    0  501    0  0.00000000000E+00 -0.00000000000E+00 -0.28511720126E+04  0.28511720126E+04  0.00000000000E+00 0. -1.
         23    2    1    2    0    0 -0.17694866955E+04  0.17063146259E+04 -0.11087629365E+04  0.26982013349E+04  0.91336883507E+02 0.  0.
         13    1    3    3    0    0 -0.68686665043E+03  0.63837189928E+03 -0.46790074072E+03  0.10479673566E+04  0.00000000000E+00 0.  1.
        -13    1    3    3    0    0 -0.10826200451E+04  0.10679427266E+04 -0.64086219579E+03  0.16502339784E+04  0.00000000000E+00 0. -1.
         22    1    1    2    0    0  0.17694866955E+04 -0.17063146259E+04  0.64634233656E+03  0.25417220903E+04  0.00000000000E+00 0.  1.
<mgrwt>
<rscale>  0 0.52194794E+04</rscale>
<asrwt>0</asrwt>
<pdfrwt beam="1">  1        2 0.43864185E+00 0.52194794E+04</pdfrwt>
<pdfrwt beam="2">  1       -2 0.36750022E+00 0.52194794E+04</pdfrwt>
<totfact> 0.18551533E-02</totfact>
</mgrwt>
</event>
<event>
 6    1  0.1072514E-005  0.3331032E+04  0.7818608E-02  0.8155044E-01
          2   -1    0    0  501    0  0.00000000000E+00  0.00000000000E+00  0.33504418314E+04  0.33504418314E+04  0.00000000000E+00 0. -1.
         -2   -1    0    0    0  501 -0.00000000000E+00 -0.00000000000E+00 -0.82793369158E+03  0.82793369158E+03  0.00000000000E+00 0.  1.
         23    2    1    2    0    0 -0.27090592752E+03 -0.10818993485E+04 -0.28753175167E+03  0.11550957785E+04  0.87610086595E+02 0.  0.
         13    1    3    3    0    0 -0.10036637804E+03 -0.27810086969E+03 -0.10163500725E+03  0.31263905428E+03  0.00000000000E+00 0.  1.
        -13    1    3    3    0    0 -0.17053954949E+03 -0.80379847884E+03 -0.18589674442E+03  0.84245672418E+03  0.00000000000E+00 0. -1.
         22    1    1    2    0    0  0.27090592752E+03  0.10818993485E+04  0.28100398915E+04  0.30232797446E+04  0.00000000000E+00 0. -1.
<mgrwt>
<rscale>  0 0.33310321E+04</rscale>
<asrwt>0</asrwt>
<pdfrwt beam="1">  1        2 0.51545258E+00 0.33310321E+04</pdfrwt>
<pdfrwt beam="2">  1       -2 0.12737442E+00 0.33310321E+04</pdfrwt>
<totfact> 0.39202307E-01</totfact>
</mgrwt>
</event>
<event>
 6    1  0.1072514E-005  0.1435917E+04  0.7818608E-02  0.8928222E-01
         -1   -1    0    0    0  501 -0.00000000000E+00  0.00000000000E+00  0.12145104281E+04  0.12145104281E+04  0.00000000000E+00 0.  1.
          1   -1    0    0  501    0  0.00000000000E+00 -0.00000000000E+00 -0.42442179699E+03  0.42442179699E+03  0.00000000000E+00 0. -1.
         23    2    1    2    0    0  0.26391755448E+03  0.49822381951E+03  0.89878120243E+03  0.10647427747E+04  0.89387227537E+02 0.  0.
         13    1    3    3    0    0  0.13414281515E+03  0.33704398377E+03  0.60446618826E+03  0.70496263348E+03  0.00000000000E+00 0. -1.
        -13    1    3    3    0    0  0.12977473934E+03  0.16117983574E+03  0.29431501417E+03  0.35978014118E+03  0.00000000000E+00 0.  1.
         22    1    1    2    0    0 -0.26391755448E+03 -0.49822381951E+03 -0.10869257135E+03  0.57418945041E+03  0.00000000000E+00 0. -1.
<mgrwt>
<rscale>  0 0.14359174E+04</rscale>
<asrwt>0</asrwt>
<pdfrwt beam="1">  1        1 0.65295662E-01 0.14359174E+04</pdfrwt>
<pdfrwt beam="2">  1       -1 0.18684776E+00 0.14359174E+04</pdfrwt>
<totfact> 0.10019418E+01</totfact>
</mgrwt>
</event>
<event>
 6    1  0.1072514E-005  0.1581456E+04  0.7818608E-02  0.8832022E-01
         -2   -1    0    0    0  501 -0.00000000000E+00  0.00000000000E+00  0.18732669165E+04  0.18732669165E+04  0.00000000000E+00 0.  1.
          2   -1    0    0  501    0  0.00000000000E+00 -0.00000000000E+00 -0.33377568404E+03  0.33377568404E+03  0.00000000000E+00 0. -1.
         23    2    1    2    0    0  0.45267237206E+03  0.64517165743E+03  0.77770269064E+03  0.11109219291E+04  0.90373190083E+02 0.  0.
         11    1    3    3    0    0  0.16675073183E+03  0.31188463185E+03  0.32715909337E+03  0.48177889381E+03  0.00000000000E+00 0.  1.
        -11    1    3    3    0    0  0.28592164023E+03  0.33328702558E+03  0.45054359727E+03  0.62914303526E+03  0.00000000000E+00 0. -1.
         22    1    1    2    0    0 -0.45267237206E+03 -0.64517165743E+03  0.76178854185E+03  0.10961206715E+04  0.00000000000E+00 0.  1.
<mgrwt>
<rscale>  0 0.15814562E+04</rscale>
<asrwt>0</asrwt>
<pdfrwt beam="1">  1        2 0.51350106E-01 0.15814562E+04</pdfrwt>
<pdfrwt beam="2">  1       -2 0.28819491E+00 0.15814562E+04</pdfrwt>
<totfact> 0.35204528E+00</totfact>
</mgrwt>
</event>
<event>
 6    1  0.1072514E-005  0.1231464E+04  0.7818608E-02  0.9085753E-01
          1   -1    0    0  501    0  0.00000000000E+00  0.00000000000E+00  0.13759609834E+04  0.13759609834E+04  0.00000000000E+00 0. -1.
         -1   -1    0    0    0  501 -0.00000000000E+00 -0.00000000000E+00 -0.27553542172E+03  0.27553542172E+03  0.00000000000E+00 0.  1.
         23    2    1    2    0    0 -0.74446318408E+02  0.53436613849E+02  0.13651273823E+04  0.13713807507E+04  0.93352383984E+02 0.  0.
         11    1    3    3    0    0 -0.74833092077E+01 -0.15621769489E+02  0.59732803253E+03  0.59757913120E+03  0.00000000000E+00 0.  1.
        -11    1    3    3    0    0 -0.66963009200E+02  0.69058383338E+02  0.76779934975E+03  0.77380161953E+03  0.00000000000E+00 0. -1.
         22    1    1    2    0    0  0.74446318408E+02 -0.53436613849E+02 -0.26470182059E+03  0.28011565441E+03  0.00000000000E+00 0.  1.
<mgrwt>
<rscale>  0 0.12314642E+04</rscale>
<asrwt>0</asrwt>
<pdfrwt beam="1">  1        1 0.21168630E+00 0.12314642E+04</pdfrwt>
<pdfrwt beam="2">  1       -1 0.42390066E-01 0.12314642E+04</pdfrwt>
<totfact> 0.43161711E+01</totfact>
</mgrwt>
</event>
<event>
 6    1  0.1072514E-005  0.2908170E+04  0.7818608E-02  0.8270451E-01
         -1   -1    0    0    0  501 -0.00000000000E+00  0.00000000000E+00  0.66258678841E+03  0.66258678841E+03  0.00000000000E+00 0.  1.
          1   -1    0    0  501    0  0.00000000000E+00 -0.00000000000E+00 -0.31910727925E+04  0.31910727925E+04  0.00000000000E+00 0. -1.
         23    2    1    2    0    0  0.12283300206E+04  0.63117796458E+03 -0.18627728016E+04  0.23205730438E+04  0.89199095723E+02 0.  0.
         11    1    3    3    0    0  0.48162836900E+03  0.23311622435E+03 -0.79205684005E+03  0.95585725805E+03  0.00000000000E+00 0. -1.
        -11    1    3    3    0    0  0.74670165157E+03  0.39806174023E+03 -0.10707159615E+04  0.13647157857E+04  0.00000000000E+00 0.  1.
         22    1    1    2    0    0 -0.12283300206E+04 -0.63117796458E+03 -0.66571320253E+03  0.15330865372E+04  0.00000000000E+00 0.  1.
<mgrwt>
<rscale>  0 0.29081696E+04</rscale>
<asrwt>0</asrwt>
<pdfrwt beam="1">  1        1 0.49093429E+00 0.29081696E+04</pdfrwt>
<pdfrwt beam="2">  1       -1 0.10193643E+00 0.29081696E+04</pdfrwt>
<totfact> 0.33743487E-01</totfact>
</mgrwt>
</event>
<event>
 6    1  0.1072514E-005  0.2922795E+04  0.7818608E-02  0.8266127E-01
         -1   -1    0    0    0  501 -0.00000000000E+00  0.00000000000E+00  0.15617994465E+04  0.15617994465E+04  0.00000000000E+00 0.  1.
          1   -1    0    0  501    0  0.00000000000E+00 -0.00000000000E+00 -0.13674503377E+04  0.13674503377E+04  0.00000000000E+00 0. -1.
         23    2    1    2    0    0 -0.14178762229E+04 -0.30885201060E+03 -0.61806032063E+02  0.14556901470E+04  0.97217645911E+02 0.  0.
         11    1    3    3    0    0 -0.87166299314E+03 -0.16142321657E+03  0.73343784335E+00  0.88648427306E+03  0.00000000000E+00 0. -1.
        -11    1    3    3    0    0 -0.54621322974E+03 -0.14742879404E+03 -0.62539469906E+02  0.56920587396E+03  0.00000000000E+00 0.  1.
         22    1    1    2    0    0  0.14178762229E+04  0.30885201060E+03  0.25615514086E+03  0.14735596371E+04  0.00000000000E+00 0. -1.
<mgrwt>
<rscale>  0 0.29227954E+04</rscale>
<asrwt>0</asrwt>
<pdfrwt beam="1">  1        1 0.21037698E+00 0.29227954E+04</pdfrwt>
<pdfrwt beam="2">  1       -1 0.24027684E+00 0.29227954E+04</pdfrwt>
<totfact> 0.56021422E-01</totfact>
</mgrwt>
</event>
<event>
 6    1  0.1777684E-005  0.2611188E+04  0.7818608E-02  0.8364411E-01
          2   -1    0    0  501    0  0.00000000000E+00  0.00000000000E+00  0.15599519013E+04  0.15599519013E+04  0.00000000000E+00 0.  1.
         -2   -1    0    0    0  501 -0.00000000000E+00 -0.00000000000E+00 -0.10927100144E+04  0.10927100144E+04  0.00000000000E+00 0. -1.
         23    2    1    2    0    0  0.23374360511E+03 -0.31914055896E+03 -0.10283012999E+04  0.11056854476E+04  0.93005249023E+02 0.  0.
         13    1    3    3    0    0  0.77550750074E+02 -0.15899956169E+03 -0.54797532610E+03  0.57582283514E+03  0.00000000000E+00 0.  1.
        -13    1    3    3    0    0  0.15619285503E+03 -0.16014099727E+03 -0.48032597377E+03  0.52986261243E+03  0.00000000000E+00 0. -1.
         22    1    1    2    0    0 -0.23374360511E+03  0.31914055896E+03  0.14955431868E+04  0.15469764681E+04  0.00000000000E+00 0.  1.
<mgrwt>
<rscale>  0 0.26111875E+04</rscale>
<asrwt>0</asrwt>
<pdfrwt beam="1">  1        2 0.23999260E+00 0.26111875E+04</pdfrwt>
<pdfrwt beam="2">  1       -2 0.16810923E+00 0.26111875E+04</pdfrwt>
<totfact> 0.22822824E+00</totfact>
</mgrwt>
</event>
<event>
 6    1  0.1072514E-005  0.1014218E+04  0.7818608E-02  0.9293086E-01
         -2   -1    0    0    0  501 -0.00000000000E+00  0.00000000000E+00  0.11880896923E+03  0.11880896923E+03  0.00000000000E+00 0.  1.
          2   -1    0    0  501    0  0.00000000000E+00 -0.00000000000E+00 -0.21644806984E+04  0.21644806984E+04  0.00000000000E+00 0. -1.
         23    2    1    2    0    0 -0.19673007686E+02 -0.22807310097E+03 -0.20395006553E+04  0.20542865044E+04  0.90142957883E+02 0.  0.
         11    1    3    3    0    0  0.22973163070E+01 -0.16047320985E+03 -0.10453506275E+04  0.10575986304E+04  0.00000000000E+00 0. -1.
        -11    1    3    3    0    0 -0.21970323993E+02 -0.67599891123E+02 -0.99415002781E+03  0.99668787402E+03  0.00000000000E+00 0.  1.
         22    1    1    2    0    0  0.19673007686E+02  0.22807310097E+03 -0.61710739499E+01  0.22900316324E+03  0.00000000000E+00 0.  1.
<mgrwt>
<rscale>  0 0.10142184E+04</rscale>
<asrwt>0</asrwt>
<pdfrwt beam="1">  1        2 0.33299704E+00 0.10142184E+04</pdfrwt>
<pdfrwt beam="2">  1       -2 0.18278303E-01 0.10142184E+04</pdfrwt>
<totfact> 0.13572382E+02</totfact>
</mgrwt>
</event>
<event>
 6    1  0.1072514E-005  0.3136319E+04  0.7818608E-02  0.8205841E-01
          2   -1    0    0  501    0  0.00000000000E+00  0.00000000000E+00  0.24821221280E+04  0.24821221280E+04  0.00000000000E+00 0. -1.
         -2   -1    0    0    0  501 -0.00000000000E+00 -0.00000000000E+00 -0.99073445725E+03  0.99073445725E+03  0.00000000000E+00 0.  1.
         23    2    1    2    0    0  0.86358958290E+03 -0.10957526210E+04  0.15359200910E+04  0.20769898614E+04  0.91518219155E+02 0.  0.
         13    1    3    3    0    0  0.25011798623E+03 -0.25302690137E+03  0.39240324978E+03  0.52968097029E+03  0.00000000000E+00 0. -1.
        -13    1    3    3    0    0  0.61347159667E+03 -0.84272571964E+03  0.11435168412E+04  0.15473088911E+04  0.00000000000E+00 0.  1.
         22    1    1    2    0    0 -0.86358958290E+03  0.10957526210E+04 -0.44532420266E+02  0.13958667238E+04  0.00000000000E+00 0.  1.
<mgrwt>
<rscale>  0 0.31363188E+04</rscale>
<asrwt>0</asrwt>
<pdfrwt beam="1">  1        2 0.38186494E+00 0.31363188E+04</pdfrwt>
<pdfrwt beam="2">  1       -2 0.15242069E+00 0.31363188E+04</pdfrwt>
<totfact> 0.86634123E-01</totfact>
</mgrwt>
</event>
<event>
 6    1  0.1072514E-005  0.7395828E+03  0.7818608E-02  0.9651836E-01
          2   -1    0    0  501    0  0.00000000000E+00  0.00000000000E+00  0.29330001038E+03  0.29330001038E+03  0.00000000000E+00 0. -1.
         -2   -1    0    0    0  501 -0.00000000000E+00 -0.00000000000E+00 -0.46623147933E+03  0.46623147933E+03  0.00000000000E+00 0.  1.
         23    2    1    2    0    0  0.30687253733E+02 -0.34718418333E+03  0.18143082820E+02  0.36205438466E+03  0.96310130844E+02 0.  0.
         13    1    3    3    0    0 -0.15297360025E+02 -0.18237640372E+03 -0.27245512756E+02  0.18503372618E+03  0.00000000000E+00 0. -1.
        -13    1    3    3    0    0  0.45984613758E+02 -0.16480777961E+03  0.45388595575E+02  0.17702065849E+03  0.00000000000E+00 0.  1.
         22    1    1    2    0    0 -0.30687253733E+02  0.34718418333E+03 -0.19107455177E+03  0.39747710504E+03  0.00000000000E+00 0. -1.
<mgrwt>
<rscale>  0 0.73958285E+03</rscale>
<asrwt>0</asrwt>
<pdfrwt beam="1">  1        2 0.45123079E-01 0.73958285E+03</pdfrwt>
<pdfrwt beam="2">  1       -2 0.71727919E-01 0.73958285E+03</pdfrwt>
<totfact> 0.20023758E+02</totfact>
</mgrwt>
</event>
<event>
 6    1  0.1072514E-005  0.2250969E+04  0.7818608E-02  0.8497508E-01
         -1   -1    0    0    0  501 -0.00000000000E+00  0.00000000000E+00  0.62716141155E+03  0.62716141155E+03  0.00000000000E+00 0.  1.
          1   -1    0    0  501    0  0.00000000000E+00 -0.00000000000E+00 -0.20197601409E+04  0.20197601409E+04  0.00000000000E+00 0. -1.
         23    2    1    2    0    0 -0.74348196348E+03 -0.83954853929E+03 -0.78446901449E+03  0.13712143251E+04  0.85028881948E+02 0.  0.
         13    1    3    3    0    0 -0.48548553612E+03 -0.49608029742E+03 -0.51201428109E+03  0.86252564676E+03  0.00000000000E+00 0. -1.
        -13    1    3    3    0    0 -0.25799642735E+03 -0.34346824187E+03 -0.27245473341E+03  0.50868867833E+03  0.00000000000E+00 0.  1.
         22    1    1    2    0    0  0.74348196348E+03  0.83954853929E+03 -0.60812971482E+03  0.12757072273E+04  0.00000000000E+00 0. -1.
<mgrwt>
<rscale>  0 0.22509692E+04</rscale>
<asrwt>0</asrwt>
<pdfrwt beam="1">  1        1 0.31073233E+00 0.22509692E+04</pdfrwt>
<pdfrwt beam="2">  1       -1 0.96486371E-01 0.22509692E+04</pdfrwt>
<totfact> 0.27111488E+00</totfact>
</mgrwt>
</event>
<event>
 6    1  0.1072514E-005  0.1682351E+04  0.7818608E-02  0.8771495E-01
         -1   -1    0    0    0  501 -0.00000000000E+00  0.00000000000E+00  0.18721939099E+04  0.18721939099E+04  0.00000000000E+00 0.  1.
          1   -1    0    0  501    0  0.00000000000E+00 -0.00000000000E+00 -0.37793952942E+03  0.37793952942E+03  0.00000000000E+00 0. -1.
         23    2    1    2    0    0 -0.61817269898E+03 -0.24877470424E+03  0.68202129051E+02  0.67607773413E+03  0.91669149335E+02 0.  0.
         13    1    3    3    0    0 -0.27340597957E+03 -0.67575832352E+02  0.62827715872E+01  0.28170338301E+03  0.00000000000E+00 0. -1.
        -13    1    3    3    0    0 -0.34476671941E+03 -0.18119887189E+03  0.61919357463E+02  0.39437435112E+03  0.00000000000E+00 0.  1.
         22    1    1    2    0    0  0.61817269898E+03  0.24877470424E+03  0.14260522514E+04  0.15740557052E+04  0.00000000000E+00 0. -1.
<mgrwt>
<rscale>  0 0.16823508E+04</rscale>
<asrwt>0</asrwt>
<pdfrwt beam="1">  1        1 0.58144544E-01 0.16823508E+04</pdfrwt>
<pdfrwt beam="2">  1       -1 0.28802983E+00 0.16823508E+04</pdfrwt>
<totfact> 0.24376177E+00</totfact>
</mgrwt>
</event>
<event>
 6    1  0.1072514E-005  0.9518619E+03  0.7818608E-02  0.9362977E-01
         -1   -1    0    0    0  501 -0.00000000000E+00  0.00000000000E+00  0.81877215445E+03  0.81877215445E+03  0.00000000000E+00 0.  1.
          1   -1    0    0  501    0  0.00000000000E+00 -0.00000000000E+00 -0.27664629380E+03  0.27664629380E+03  0.00000000000E+00 0. -1.
         23    2    1    2    0    0 -0.31123325719E+03 -0.28397111445E+03  0.51733831759E+03  0.67337561095E+03  0.91049680668E+02 0.  0.
         11    1    3    3    0    0 -0.42917484409E+02 -0.38388689906E+01  0.54853121818E+02  0.69753224702E+02  0.00000000000E+00 0.  1.
        -11    1    3    3    0    0 -0.26831577278E+03 -0.28013224546E+03  0.46248519578E+03  0.60362238625E+03  0.00000000000E+00 0. -1.
         22    1    1    2    0    0  0.31123325719E+03  0.28397111445E+03  0.24787543055E+02  0.42204283730E+03  0.00000000000E+00 0. -1.
<mgrwt>
<rscale>  0 0.95186193E+03</rscale>
<asrwt>0</asrwt>
<pdfrwt beam="1">  1        1 0.42560969E-01 0.95186193E+03</pdfrwt>
<pdfrwt beam="2">  1       -1 0.12596495E+00 0.95186193E+03</pdfrwt>
<totfact> 0.53809054E+01</totfact>
</mgrwt>
</event>
<event>
 6    1  0.1072514E-005  0.4008513E+04  0.7818608E-02  0.8002831E-01
         -2   -1    0    0    0  501 -0.00000000000E+00  0.00000000000E+00  0.16000315333E+04  0.16000315333E+04  0.00000000000E+00 0.  1.
          2   -1    0    0  501    0  0.00000000000E+00 -0.00000000000E+00 -0.25106033158E+04  0.25106033158E+04  0.00000000000E+00 0. -1.
         23    2    1    2    0    0  0.98625216262E+03 -0.15727941317E+04 -0.12273974735E+04  0.22273522821E+04  0.90658267111E+02 0.  0.
         13    1    3    3    0    0  0.54020132740E+03 -0.90853188619E+03 -0.74312746491E+03  0.12920859458E+04  0.00000000000E+00 0. -1.
        -13    1    3    3    0    0  0.44605083521E+03 -0.66426224550E+03 -0.48427000861E+03  0.93526633620E+03  0.00000000000E+00 0.  1.
         22    1    1    2    0    0 -0.98625216262E+03  0.15727941317E+04  0.31682569096E+03  0.18832825671E+04  0.00000000000E+00 0. -1.
<mgrwt>
<rscale>  0 0.40085132E+04</rscale>
<asrwt>0</asrwt>
<pdfrwt beam="1">  1        2 0.38624666E+00 0.40085132E+04</pdfrwt>
<pdfrwt beam="2">  1       -2 0.24615870E+00 0.40085132E+04</pdfrwt>
<totfact> 0.18361085E-01</totfact>
</mgrwt>
</event>
<event>
 6    1  0.1072514E-005  0.5619845E+03  0.7818608E-02  0.9987574E-01
          1   -1    0    0  501    0  0.00000000000E+00  0.00000000000E+00  0.92036592261E+02  0.92036592261E+02  0.00000000000E+00 0. -1.
         -1   -1    0    0    0  501 -0.00000000000E+00 -0.00000000000E+00 -0.85788310241E+03  0.85788310241E+03  0.00000000000E+00 0.  1.
         23    2    1    2    0    0  0.21052586270E+03  0.11764854375E+03 -0.61107851109E+03  0.66336175595E+03  0.92030178892E+02 0.  0.
         13    1    3    3    0    0  0.10456995395E+03  0.69178818532E+02 -0.43107265642E+03  0.44893676539E+03  0.00000000000E+00 0.  1.
        -13    1    3    3    0    0  0.10595590875E+03  0.48469725218E+02 -0.18000585467E+03  0.21442499056E+03  0.00000000000E+00 0. -1.
         22    1    1    2    0    0 -0.21052586270E+03 -0.11764854375E+03 -0.15476799906E+03  0.28655793872E+03  0.00000000000E+00 0. -1.
<mgrwt>
<rscale>  0 0.56198447E+03</rscale>
<asrwt>0</asrwt>
<pdfrwt beam="1">  1        1 0.14159475E-01 0.56198447E+03</pdfrwt>
<pdfrwt beam="2">  1       -1 0.13198202E+00 0.56198447E+03</pdfrwt>
<totfact> 0.20799358E+02</totfact>
</mgrwt>
</event>
<event>
 6    1  0.1072514E-005  0.9736787E+03  0.7818608E-02  0.9337894E-01
         -2   -1    0    0    0  501 -0.00000000000E+00  0.00000000000E+00  0.20230131831E+03  0.20230131831E+03  0.00000000000E+00 0.  1.
          2   -1    0    0  501    0  0.00000000000E+00 -0.00000000000E+00 -0.11715817828E+04  0.11715817828E+04  0.00000000000E+00 0. -1.
         23    2    1    2    0    0 -0.26897600542E+03 -0.21476634061E+03 -0.11531115922E+02  0.35616187837E+03  0.90805530761E+02 0.  0.
         13    1    3    3    0    0 -0.25769342567E+03 -0.20841957961E+03  0.93882619994E+01  0.33156109883E+03  0.00000000000E+00 0. -1.
        -13    1    3    3    0    0 -0.11282579755E+02 -0.63467610038E+01 -0.20919377922E+02  0.24600779537E+02  0.00000000000E+00 0.  1.
         22    1    1    2    0    0  0.26897600542E+03  0.21476634061E+03 -0.95774934855E+03  0.10177212227E+04  0.00000000000E+00 0. -1.
<mgrwt>
<rscale>  0 0.97367867E+03</rscale>
<asrwt>0</asrwt>
<pdfrwt beam="1">  1        2 0.18024335E+00 0.97367867E+03</pdfrwt>
<pdfrwt beam="2">  1       -2 0.31123280E-01 0.97367867E+03</pdfrwt>
<totfact> 0.18822512E+02</totfact>
</mgrwt>
</event>
<event>
 6    1  0.1072514E-005  0.4392328E+04  0.7818608E-02  0.7929763E-01
          1   -1    0    0  501    0  0.00000000000E+00  0.00000000000E+00  0.17855203880E+04  0.17855203880E+04  0.00000000000E+00 0. -1.
         -1   -1    0    0    0  501 -0.00000000000E+00 -0.00000000000E+00 -0.27012496991E+04  0.27012496991E+04  0.00000000000E+00 0.  1.
         23    2    1    2    0    0 -0.16967140968E+04 -0.94497190109E+02 -0.18776598938E+04  0.25340594349E+04  0.89900487035E+02 0.  0.
         13    1    3    3    0    0 -0.10366066905E+04 -0.16501362498E+02 -0.11215172392E+04  0.15272938957E+04  0.00000000000E+00 0.  1.
        -13    1    3    3    0    0 -0.66010740624E+03 -0.77995827610E+02 -0.75614265456E+03  0.10067655392E+04  0.00000000000E+00 0. -1.
         22    1    1    2    0    0  0.16967140968E+04  0.94497190109E+02  0.96193058273E+03  0.19527106522E+04  0.00000000000E+00 0. -1.
<mgrwt>
<rscale>  0 0.43923280E+04</rscale>
<asrwt>0</asrwt>
<pdfrwt beam="1">  1        1 0.27469545E+00 0.43923280E+04</pdfrwt>
<pdfrwt beam="2">  1       -1 0.41557688E+00 0.43923280E+04</pdfrwt>
<totfact> 0.17665754E-02</totfact>
</mgrwt>
</event>
<event>
 6    1  0.1072514E-005  0.1518992E+04  0.7818608E-02  0.8871921E-01
         -2   -1    0    0    0  501 -0.00000000000E+00  0.00000000000E+00  0.35807668103E+03  0.35807668103E+03  0.00000000000E+00 0.  1.
          2   -1    0    0  501    0  0.00000000000E+00 -0.00000000000E+00 -0.16109227555E+04  0.16109227555E+04  0.00000000000E+00 0. -1.
         23    2    1    2    0    0 -0.75145441602E+03 -0.26241117804E+02 -0.51746568168E+03  0.91725961236E+03  0.90675956818E+02 0.  0.
         11    1    3    3    0    0 -0.48992419758E+03 -0.23559473919E+02 -0.38815101692E+03  0.62549338935E+03  0.00000000000E+00 0. -1.
        -11    1    3    3    0    0 -0.26153021844E+03 -0.26816438852E+01 -0.12931466476E+03  0.29176622301E+03  0.00000000000E+00 0.  1.
         22    1    1    2    0    0  0.75145441602E+03  0.26241117804E+02 -0.73538039275E+03  0.10517398241E+04  0.00000000000E+00 0. -1.
<mgrwt>
<rscale>  0 0.15189916E+04</rscale>
<asrwt>0</asrwt>
<pdfrwt beam="1">  1        2 0.24783427E+00 0.15189916E+04</pdfrwt>
<pdfrwt beam="2">  1       -2 0.55088720E-01 0.15189916E+04</pdfrwt>
<totfact> 0.32867921E+01</totfact>
</mgrwt>
</event>
<event>
 6    1  0.1072514E-005  0.8397241E+03  0.7818608E-02  0.9504234E-01
          2   -1    0    0  501    0  0.00000000000E+00  0.00000000000E+00  0.14632210034E+04  0.14632210034E+04  0.00000000000E+00 0. -1.
         -2   -1    0    0    0  501 -0.00000000000E+00 -0.00000000000E+00 -0.12047676342E+03  0.12047676342E+03  0.00000000000E+00 0.  1.
         23    2    1    2    0    0  0.16810296425E+03  0.33005462432E+03  0.10322932590E+04  0.11004023362E+04  0.89784561102E+02 0.  0.
         11    1    3    3    0    0  0.11814181937E+03  0.17180404468E+03  0.67461355326E+03  0.70610025173E+03  0.00000000000E+00 0.  1.
        -11    1    3    3    0    0  0.49961144885E+02  0.15825057964E+03  0.35767970572E+03  0.39430208450E+03  0.00000000000E+00 0. -1.
         22    1    1    2    0    0 -0.16810296425E+03 -0.33005462432E+03  0.31045098100E+03  0.48329543059E+03  0.00000000000E+00 0. -1.
<mgrwt>
<rscale>  0 0.83972408E+03</rscale>
<asrwt>0</asrwt>
<pdfrwt beam="1">  1        2 0.22511091E+00 0.83972408E+03</pdfrwt>
<pdfrwt beam="2">  1       -2 0.18534888E-01 0.83972408E+03</pdfrwt>
<totfact> 0.32688430E+02</totfact>
</mgrwt>
</event>
<event>
 6    1  0.1072514E-005  0.2141538E+04  0.7818608E-02  0.8543163E-01
          2   -1    0    0  501    0  0.00000000000E+00  0.00000000000E+00  0.96093421854E+03  0.96093421854E+03  0.00000000000E+00 0. -1.
         -2   -1    0    0    0  501 -0.00000000000E+00 -0.00000000000E+00 -0.11931583146E+04  0.11931583146E+04  0.00000000000E+00 0.  1.
         23    2    1    2    0    0 -0.91800780050E+03 -0.35970335331E+03 -0.53169851099E+03  0.11236510018E+04  0.88110403179E+02 0.  0.
         11    1    3    3    0    0 -0.66443931033E+03 -0.26322035098E+03 -0.33984488002E+03  0.79136533457E+03  0.00000000000E+00 0.  1.
        -11    1    3    3    0    0 -0.25356849017E+03 -0.96483002325E+02 -0.19185363098E+03  0.33228566726E+03  0.00000000000E+00 0. -1.
         22    1    1    2    0    0  0.91800780050E+03  0.35970335331E+03  0.29947441497E+03  0.10304415313E+04  0.00000000000E+00 0. -1.
<mgrwt>
<rscale>  0 0.21415384E+04</rscale>
<asrwt>0</asrwt>
<pdfrwt beam="1">  1        2 0.14783603E+00 0.21415384E+04</pdfrwt>
<pdfrwt beam="2">  1       -2 0.18356282E+00 0.21415384E+04</pdfrwt>
<totfact> 0.42021122E+00</totfact>
</mgrwt>
</event>
<event>
 6    1  0.1072514E-005  0.3433967E+04  0.7818608E-02  0.8129620E-01
         -2   -1    0    0    0  501 -0.00000000000E+00  0.00000000000E+00  0.21338928240E+04  0.21338928240E+04  0.00000000000E+00 0.  1.
          2   -1    0    0  501    0  0.00000000000E+00 -0.00000000000E+00 -0.13815279163E+04  0.13815279163E+04  0.00000000000E+00 0. -1.
         23    2    1    2    0    0  0.14598585556E+04 -0.85792820960E+03  0.65946193290E+03  0.18195850236E+04  0.93657899154E+02 0.  0.
         13    1    3    3    0    0  0.78313980822E+03 -0.47794496167E+03  0.30986433871E+03  0.96837764018E+03  0.00000000000E+00 0. -1.
        -13    1    3    3    0    0  0.67671874739E+03 -0.37998324792E+03  0.34959759418E+03  0.85120738345E+03  0.00000000000E+00 0.  1.
         22    1    1    2    0    0 -0.14598585556E+04  0.85792820960E+03  0.92902974893E+02  0.16958357167E+04  0.00000000000E+00 0. -1.
<mgrwt>
<rscale>  0 0.34339671E+04</rscale>
<asrwt>0</asrwt>
<pdfrwt beam="1">  1        2 0.21254275E+00 0.34339671E+04</pdfrwt>
<pdfrwt beam="2">  1       -2 0.32829121E+00 0.34339671E+04</pdfrwt>
<totfact> 0.26052500E-01</totfact>
</mgrwt>
</event>
<event>
 6    1  0.1072514E-005  0.2274208E+04  0.7818608E-02  0.8488160E-01
          2   -1    0    0  501    0  0.00000000000E+00  0.00000000000E+00  0.15342105214E+04  0.15342105214E+04  0.00000000000E+00 0. -1.
         -2   -1    0    0    0  501 -0.00000000000E+00 -0.00000000000E+00 -0.84278240869E+03  0.84278240869E+03  0.00000000000E+00 0.  1.
         23    2    1    2    0    0  0.10425492049E+04 -0.80381099549E+02 -0.11381429139E+03  0.10572257934E+04  0.10678351722E+03 0.  0.
         13    1    3    3    0    0  0.40091050645E+03 -0.76249837148E+02 -0.18333878817E+02  0.40850875506E+03  0.00000000000E+00 0. -1.
        -13    1    3    3    0    0  0.64163869841E+03 -0.41312624016E+01 -0.95480412574E+02  0.64871703833E+03  0.00000000000E+00 0.  1.
         22    1    1    2    0    0 -0.10425492049E+04  0.80381099549E+02  0.80524240408E+03  0.13197671367E+04  0.00000000000E+00 0.  1.
<mgrwt>
<rscale>  0 0.22742081E+04</rscale>
<asrwt>0</asrwt>
<pdfrwt beam="1">  1        2 0.23603239E+00 0.22742081E+04</pdfrwt>
<pdfrwt beam="2">  1       -2 0.12965883E+00 0.22742081E+04</pdfrwt>
<totfact> 0.48237338E+00</totfact>
</mgrwt>
</event>
<event>
 6    1  0.1072514E-005  0.2109615E+04  0.7818608E-02  0.8557020E-01
          2   -1    0    0  501    0  0.00000000000E+00  0.00000000000E+00  0.66709172675E+03  0.66709172675E+03  0.00000000000E+00 0. -1.
         -2   -1    0    0    0  501 -0.00000000000E+00 -0.00000000000E+00 -0.16678653496E+04  0.16678653496E+04  0.00000000000E+00 0.  1.
         23    2    1    2    0    0  0.29625472311E+03  0.14775702533E+03  0.60496507623E+03  0.69544624405E+03  0.89798304017E+02 0.  0.
         13    1    3    3    0    0  0.13293285478E+03  0.20752382191E+02  0.20633797961E+03  0.24632735755E+03  0.00000000000E+00 0. -1.
        -13    1    3    3    0    0  0.16332186833E+03  0.12700464314E+03  0.39862709662E+03  0.44911888650E+03  0.00000000000E+00 0.  1.
         22    1    1    2    0    0 -0.29625472311E+03 -0.14775702533E+03 -0.16057386991E+04  0.16395108323E+04  0.00000000000E+00 0.  1.
<mgrwt>
<rscale>  0 0.21096153E+04</rscale>
<asrwt>0</asrwt>
<pdfrwt beam="1">  1        2 0.10262950E+00 0.21096153E+04</pdfrwt>
<pdfrwt beam="2">  1       -2 0.25659467E+00 0.21096153E+04</pdfrwt>
<totfact> 0.23463538E+00</totfact>
</mgrwt>
</event>
<event>
 6    1  0.1072514E-005  0.4195465E+04  0.7818608E-02  0.7966235E-01
          2   -1    0    0  501    0  0.00000000000E+00  0.00000000000E+00  0.27436352000E+04  0.27436352000E+04  0.00000000000E+00 0.  1.
         -2   -1    0    0    0  501 -0.00000000000E+00 -0.00000000000E+00 -0.16038874234E+04  0.16038874234E+04  0.00000000000E+00 0. -1.
         23    2    1    2    0    0 -0.11852255845E+04 -0.97098262326E+01  0.23623796648E+04  0.26446771515E+04  0.92874044230E+02 0.  0.
         13    1    3    3    0    0 -0.55400132529E+03 -0.49374612684E+02  0.11314959558E+04  0.12608086368E+04  0.00000000000E+00 0.  1.
        -13    1    3    3    0    0 -0.63122425923E+03  0.39664786451E+02  0.12308837090E+04  0.13838685147E+04  0.00000000000E+00 0. -1.
         22    1    1    2    0    0  0.11852255845E+04  0.97098262326E+01 -0.12226318882E+04  0.17028454719E+04  0.00000000000E+00 0. -1.
<mgrwt>
<rscale>  0 0.41954652E+04</rscale>
<asrwt>0</asrwt>
<pdfrwt beam="1">  1        2 0.42209772E+00 0.41954652E+04</pdfrwt>
<pdfrwt beam="2">  1       -2 0.24675191E+00 0.41954652E+04</pdfrwt>
<totfact> 0.13064830E-01</totfact>
</mgrwt>
</event>
<event>
 6    1  0.1072514E-005  0.9942394E+03  0.7818608E-02  0.9314886E-01
         -1   -1    0    0    0  501 -0.00000000000E+00  0.00000000000E+00  0.97247548881E+02  0.97247548881E+02  0.00000000000E+00 0.  1.
          1   -1    0    0  501    0  0.00000000000E+00 -0.00000000000E+00 -0.25412262165E+04  0.25412262165E+04  0.00000000000E+00 0. -1.
         23    2    1    2    0    0 -0.28388180882E+03 -0.36348725468E+03 -0.16943840115E+04  0.17583578559E+04  0.90406333799E+02 0.  0.
         11    1    3    3    0    0 -0.26131237781E+03 -0.28447572349E+03 -0.13394579389E+04  0.13940438178E+04  0.00000000000E+00 0.  1.
        -11    1    3    3    0    0 -0.22569431016E+02 -0.79011531185E+02 -0.35492607265E+03  0.36431403806E+03  0.00000000000E+00 0. -1.
         22    1    1    2    0    0  0.28388180882E+03  0.36348725468E+03 -0.74959465614E+03  0.88011590953E+03  0.00000000000E+00 0.  1.
<mgrwt>
<rscale>  0 0.99423945E+03</rscale>
<asrwt>0</asrwt>
<pdfrwt beam="1">  1        1 0.39095784E+00 0.99423945E+03</pdfrwt>
<pdfrwt beam="2">  1       -1 0.14961163E-01 0.99423945E+03</pdfrwt>
<totfact> 0.42608356E+01</totfact>
</mgrwt>
</event>
<event>
 6    1  0.1336227E-005  0.2001932E+04  0.7818608E-02  0.8605718E-01
         -1   -1    0    0    0  501 -0.00000000000E+00  0.00000000000E+00  0.68909930085E+03  0.68909930085E+03  0.00000000000E+00 0.  1.
          1   -1    0    0  501    0  0.00000000000E+00 -0.00000000000E+00 -0.14539744414E+04  0.14539744414E+04  0.00000000000E+00 0. -1.
         23    2    1    2    0    0 -0.41051882652E+02 -0.98203653457E+03 -0.19261069025E+03  0.10057226032E+04  0.91093711939E+02 0.  0.
         13    1    3    3    0    0 -0.28021398681E+02 -0.34692227856E+03 -0.26183865379E+02  0.34903561559E+03  0.00000000000E+00 0. -1.
        -13    1    3    3    0    0 -0.13030483971E+02 -0.63511425601E+03 -0.16642682488E+03  0.65668698764E+03  0.00000000000E+00 0.  1.
         22    1    1    2    0    0  0.41051882652E+02  0.98203653457E+03 -0.57226445026E+03  0.11373511390E+04  0.00000000000E+00 0.  1.
<mgrwt>
<rscale>  0 0.20019318E+04</rscale>
<asrwt>0</asrwt>
<pdfrwt beam="1">  1        1 0.22368837E+00 0.20019318E+04</pdfrwt>
<pdfrwt beam="2">  1       -1 0.10601528E+00 0.20019318E+04</pdfrwt>
<totfact> 0.54371466E+00</totfact>
</mgrwt>
</event>
<event>
 6    1  0.1072514E-005  0.4187064E+04  0.7818608E-02  0.7967837E-01
         -1   -1    0    0    0  501 -0.00000000000E+00  0.00000000000E+00  0.21773465924E+04  0.21773465924E+04  0.00000000000E+00 0.  1.
          1   -1    0    0  501    0  0.00000000000E+00 -0.00000000000E+00 -0.20129441964E+04  0.20129441964E+04  0.00000000000E+00 0. -1.
         23    2    1    2    0    0 -0.50288985046E+03 -0.60204796238E+03  0.20236002959E+04  0.21723768209E+04  0.94355412593E+02 0.  0.
         13    1    3    3    0    0 -0.32230801658E+03 -0.37313214934E+03  0.11446429479E+04  0.12463216024E+04  0.00000000000E+00 0. -1.
        -13    1    3    3    0    0 -0.18058183388E+03 -0.22891581304E+03  0.87895734797E+03  0.92605521852E+03  0.00000000000E+00 0.  1.
         22    1    1    2    0    0  0.50288985046E+03  0.60204796238E+03 -0.18591978999E+04  0.20179139678E+04  0.00000000000E+00 0. -1.
<mgrwt>
<rscale>  0 0.41870645E+04</rscale>
<asrwt>0</asrwt>
<pdfrwt beam="1">  1        1 0.30968372E+00 0.41870645E+04</pdfrwt>
<pdfrwt beam="2">  1       -1 0.33497640E+00 0.41870645E+04</pdfrwt>
<totfact> 0.43944608E-02</totfact>
</mgrwt>
</event>
<event>
 6    1  0.1072514E-005  0.7392778E+03  0.7818608E-02  0.9652324E-01
         -2   -1    0    0    0  501 -0.00000000000E+00  0.00000000000E+00  0.96986909228E+03  0.96986909228E+03  0.00000000000E+00 0.  1.
          2   -1    0    0  501    0  0.00000000000E+00 -0.00000000000E+00 -0.14087768710E+03  0.14087768710E+03  0.00000000000E+00 0. -1.
         23    2    1    2    0    0 -0.28720309205E+03  0.17594401579E+03  0.21401969662E+03  0.40958195204E+03  0.92255255262E+02 0.  0.
         13    1    3    3    0    0 -0.17366649523E+03  0.10983611211E+03  0.76158157905E+02  0.21914398943E+03  0.00000000000E+00 0.  1.
        -13    1    3    3    0    0 -0.11353659682E+03  0.66107903672E+02  0.13786153872E+03  0.19043796261E+03  0.00000000000E+00 0. -1.
         22    1    1    2    0    0  0.28720309205E+03 -0.17594401579E+03  0.61497170856E+03  0.70116482734E+03  0.00000000000E+00 0.  1.
<mgrwt>
<rscale>  0 0.73927779E+03</rscale>
<asrwt>0</asrwt>
<pdfrwt beam="1">  1        2 0.21673491E-01 0.73927779E+03</pdfrwt>
<pdfrwt beam="2">  1       -2 0.14921063E+00 0.73927779E+03</pdfrwt>
<totfact> 0.79462861E+01</totfact>
</mgrwt>
</event>
<event>
 6    1  0.1072514E-005  0.1280220E+04  0.7818608E-02  0.9045400E-01
          2   -1    0    0  501    0  0.00000000000E+00  0.00000000000E+00  0.14246372198E+04  0.14246372198E+04  0.00000000000E+00 0. -1.
         -2   -1    0    0    0  501 -0.00000000000E+00 -0.00000000000E+00 -0.28761047289E+03  0.28761047289E+03  0.00000000000E+00 0.  1.
         23    2    1    2    0    0 -0.15545358503E+03  0.56973361754E+03  0.89058850736E+03  0.10723304965E+04  0.89345353751E+02 0.  0.
         13    1    3    3    0    0 -0.51295762611E+02  0.15720448470E+03  0.18275449802E+03  0.24646239433E+03  0.00000000000E+00 0.  1.
        -13    1    3    3    0    0 -0.10415782242E+03  0.41252913284E+03  0.70783400934E+03  0.82586810218E+03  0.00000000000E+00 0. -1.
         22    1    1    2    0    0  0.15545358503E+03 -0.56973361754E+03  0.24643823955E+03  0.63991719618E+03  0.00000000000E+00 0.  1.
<mgrwt>
<rscale>  0 0.12802196E+04</rscale>
<asrwt>0</asrwt>
<pdfrwt beam="1">  1        2 0.21917495E+00 0.12802196E+04</pdfrwt>
<pdfrwt beam="2">  1       -2 0.44247766E-01 0.12802196E+04</pdfrwt>
<totfact> 0.66571488E+01</totfact>
</mgrwt>
</event>
<event>
 6    1  0.1072514E-005  0.2469697E+04  0.7818608E-02  0.8413861E-01
         -2   -1    0    0    0  501 -0.00000000000E+00  0.00000000000E+00  0.19019381917E+04  0.19019381917E+04  0.00000000000E+00 0. -1.
          2   -1    0    0  501    0  0.00000000000E+00 -0.00000000000E+00 -0.80173552742E+03  0.80173552742E+03  0.00000000000E+00 0.  1.
         23    2    1    2    0    0  0.11702119534E+04 -0.38850364958E+03  0.57840013253E+03  0.13647902351E+04  0.88173526978E+02 0.  0.
         11    1    3    3    0    0  0.53904713045E+03 -0.22502535329E+03  0.26764582478E+03  0.64252821416E+03  0.00000000000E+00 0. -1.
        -11    1    3    3    0    0  0.63116482296E+03 -0.16347829629E+03  0.31075430775E+03  0.72226202094E+03  0.00000000000E+00 0.  1.
         22    1    1    2    0    0 -0.11702119534E+04  0.38850364958E+03  0.52180253172E+03  0.13388834840E+04  0.00000000000E+00 0. -1.
<mgrwt>
<rscale>  0 0.24696975E+04</rscale>
<asrwt>0</asrwt>
<pdfrwt beam="1">  1        2 0.12334393E+00 0.24696975E+04</pdfrwt>
<pdfrwt beam="2">  1       -2 0.29260588E+00 0.24696975E+04</pdfrwt>
<totfact> 0.10833516E+00</totfact>
</mgrwt>
</event>
<event>
 6    1  0.1072514E-005  0.2869948E+04  0.7818608E-02  0.8281875E-01
          2   -1    0    0  501    0  0.00000000000E+00  0.00000000000E+00  0.21471346282E+04  0.21471346282E+04  0.00000000000E+00 0. -1.
         -2   -1    0    0    0  501 -0.00000000000E+00 -0.00000000000E+00 -0.95902222084E+03  0.95902222084E+03  0.00000000000E+00 0.  1.
         23    2    1    2    0    0 -0.12255288306E+04 -0.24549574195E+03 -0.16476027871E+03  0.12642954051E+04  0.95435044970E+02 0.  0.
         11    1    3    3    0    0 -0.33311452819E+03 -0.25058770650E+02 -0.33417956431E+02  0.33572308632E+03  0.00000000000E+00 0.  1.
        -11    1    3    3    0    0 -0.89241430246E+03 -0.22043697130E+03 -0.13134232228E+03  0.92857231876E+03  0.00000000000E+00 0. -1.
         22    1    1    2    0    0  0.12255288306E+04  0.24549574195E+03  0.13528726861E+04  0.18418614440E+04  0.00000000000E+00 0. -1.
<mgrwt>
<rscale>  0 0.28699476E+04</rscale>
<asrwt>0</asrwt>
<pdfrwt beam="1">  1        2 0.33032840E+00 0.28699476E+04</pdfrwt>
<pdfrwt beam="2">  1       -2 0.14754188E+00 0.28699476E+04</pdfrwt>
<totfact> 0.14974437E+00</totfact>
</mgrwt>
</event>
<event>
 6    1  0.1072514E-005  0.1670023E+04  0.7818608E-02  0.8778648E-01
          2   -1    0    0  501    0  0.00000000000E+00  0.00000000000E+00  0.22421208510E+04  0.22421208510E+04  0.00000000000E+00 0.  1.
         -2   -1    0    0    0  501 -0.00000000000E+00 -0.00000000000E+00 -0.31097542358E+03  0.31097542358E+03  0.00000000000E+00 0. -1.
         23    2    1    2    0    0 -0.40116617345E+03  0.37090176576E+03  0.79667135188E+01  0.55381670829E+03  0.90261061876E+02 0.  0.
         11    1    3    3    0    0 -0.30054877616E+03  0.31007728939E+03  0.34766684456E+02  0.43322767062E+03  0.00000000000E+00 0. -1.
        -11    1    3    3    0    0 -0.10061739728E+03  0.60824476377E+02 -0.26799970937E+02  0.12058903766E+03  0.00000000000E+00 0.  1.
         22    1    1    2    0    0  0.40116617345E+03 -0.37090176576E+03  0.19231787139E+04  0.19992795663E+04  0.00000000000E+00 0.  1.
<mgrwt>
<rscale>  0 0.16700233E+04</rscale>
<asrwt>0</asrwt>
<pdfrwt beam="1">  1        2 0.34494166E+00 0.16700233E+04</pdfrwt>
<pdfrwt beam="2">  1       -2 0.47842374E-01 0.16700233E+04</pdfrwt>
<totfact> 0.19316765E+01</totfact>
</mgrwt>
</event>
<event>
 6    1  0.1072514E-005  0.3420169E+04  0.7818608E-02  0.8132974E-01
         -1   -1    0    0    0  501 -0.00000000000E+00  0.00000000000E+00  0.13536329723E+04  0.13536329723E+04  0.00000000000E+00 0.  1.
          1   -1    0    0  501    0  0.00000000000E+00 -0.00000000000E+00 -0.21604001985E+04  0.21604001985E+04  0.00000000000E+00 0. -1.
         23    2    1    2    0    0 -0.19655202977E+03  0.15623478518E+04  0.27838619505E+03  0.16016729908E+04  0.91071320686E+02 0.  0.
         11    1    3    3    0    0 -0.82161224050E+02  0.94767533002E+03  0.19348643204E+03  0.97070901780E+03  0.00000000000E+00 0. -1.
        -11    1    3    3    0    0 -0.11439080572E+03  0.61467252178E+03  0.84899763009E+02  0.63096397300E+03  0.00000000000E+00 0.  1.
         22    1    1    2    0    0  0.19655202977E+03 -0.15623478518E+04 -0.10851534212E+04  0.19123601800E+04  0.00000000000E+00 0.  1.
<mgrwt>
<rscale>  0 0.34201690E+04</rscale>
<asrwt>0</asrwt>
<pdfrwt beam="1">  1        1 0.33236926E+00 0.34201690E+04</pdfrwt>
<pdfrwt beam="2">  1       -1 0.20825123E+00 0.34201690E+04</pdfrwt>
<totfact> 0.25158116E-01</totfact>
</mgrwt>
</event>
<event>
 6    1  0.1072514E-005  0.5256485E+04  0.7818608E-02  0.7790116E-01
         -2   -1    0    0    0  501 -0.00000000000E+00  0.00000000000E+00  0.47062430491E+04  0.47062430491E+04  0.00000000000E+00 0.  1.
          2   -1    0    0  501    0  0.00000000000E+00 -0.00000000000E+00 -0.14677648087E+04  0.14677648087E+04  0.00000000000E+00 0. -1.
         23    2    1    2    0    0 -0.13961881923E+04  0.12664923004E+04  0.37695407435E+04  0.42155973805E+04  0.92084975104E+02 0.  0.
         11    1    3    3    0    0 -0.58535640925E+03  0.53451223037E+03  0.16872215058E+04  0.18641517803E+04  0.00000000000E+00 0. -1.
        -11    1    3    3    0    0 -0.81083178305E+03  0.73198007006E+03  0.20823192377E+04  0.23514456003E+04  0.00000000000E+00 0.  1.
         22    1    1    2    0    0  0.13961881923E+04 -0.12664923004E+04 -0.53106250313E+03  0.19584104773E+04  0.00000000000E+00 0.  1.
<mgrwt>
<rscale>  0 0.52564847E+04</rscale>
<asrwt>0</asrwt>
<pdfrwt beam="1">  1        2 0.22580997E+00 0.52564847E+04</pdfrwt>
<pdfrwt beam="2">  1       -2 0.72403739E+00 0.52564847E+04</pdfrwt>
<totfact> 0.17619022E-03</totfact>
</mgrwt>
</event>
<event>
 6    1  0.1072514E-005  0.6787879E+03  0.7818608E-02  0.9754211E-01
         -2   -1    0    0    0  501 -0.00000000000E+00  0.00000000000E+00  0.36210923202E+03  0.36210923202E+03  0.00000000000E+00 0.  1.
          2   -1    0    0  501    0  0.00000000000E+00 -0.00000000000E+00 -0.31810359543E+03  0.31810359543E+03  0.00000000000E+00 0. -1.
         23    2    1    2    0    0 -0.11827088040E+03 -0.31165817269E+03  0.41461891080E+02  0.34685822887E+03  0.86444923310E+02 0.  0.
         11    1    3    3    0    0 -0.11154205048E+03 -0.25359712855E+03  0.63783789268E+02  0.28429123168E+03  0.00000000000E+00 0.  1.
        -11    1    3    3    0    0 -0.67288299131E+01 -0.58061044139E+02 -0.22321898188E+02  0.62566997188E+02  0.00000000000E+00 0. -1.
         22    1    1    2    0    0  0.11827088040E+03  0.31165817269E+03  0.25437455057E+01  0.33335459858E+03  0.00000000000E+00 0. -1.
<mgrwt>
<rscale>  0 0.67878789E+03</rscale>
<asrwt>0</asrwt>
<pdfrwt beam="1">  1        2 0.48939015E-01 0.67878789E+03</pdfrwt>
<pdfrwt beam="2">  1       -2 0.55709113E-01 0.67878789E+03</pdfrwt>
<totfact> 0.31432037E+02</totfact>
</mgrwt>
</event>
<event>
 6    1  0.1072514E-005  0.7766901E+03  0.7818608E-02  0.9594384E-01
          1   -1    0    0  501    0  0.00000000000E+00  0.00000000000E+00  0.12738038017E+04  0.12738038017E+04  0.00000000000E+00 0. -1.
         -1   -1    0    0    0  501 -0.00000000000E+00 -0.00000000000E+00 -0.11839491220E+03  0.11839491220E+03  0.00000000000E+00 0.  1.
         23    2    1    2    0    0 -0.36063780459E+03 -0.52774787727E+01  0.35651564528E+03  0.51566126830E+03  0.93357701462E+02 0.  0.
         13    1    3    3    0    0 -0.24996513356E+03 -0.29003761451E+02  0.29164558412E+03  0.38520245704E+03  0.00000000000E+00 0. -1.
        -13    1    3    3    0    0 -0.11067267102E+03  0.23726282678E+02  0.64870061161E+02  0.13045881126E+03  0.00000000000E+00 0.  1.
         22    1    1    2    0    0  0.36063780459E+03  0.52774787727E+01  0.79889324427E+03  0.87653744565E+03  0.00000000000E+00 0. -1.
<mgrwt>
<rscale>  0 0.77669013E+03</rscale>
<asrwt>0</asrwt>
<pdfrwt beam="1">  1        1 0.19596981E+00 0.77669013E+03</pdfrwt>
<pdfrwt beam="2">  1       -1 0.18214603E-01 0.77669013E+03</pdfrwt>
<totfact> 0.22875259E+02</totfact>
</mgrwt>
</event>
<event>
 6    1  0.1072514E-005  0.1708676E+04  0.7818608E-02  0.8756432E-01
         -1   -1    0    0    0  501 -0.00000000000E+00  0.00000000000E+00  0.14010387488E+04  0.14010387488E+04  0.00000000000E+00 0.  1.
          1   -1    0    0  501    0  0.00000000000E+00 -0.00000000000E+00 -0.52096568555E+03  0.52096568555E+03  0.00000000000E+00 0. -1.
         23    2    1    2    0    0  0.74178461646E+03 -0.40151958057E+03  0.57698191107E+03  0.10257195258E+04  0.87920583641E+02 0.  0.
         11    1    3    3    0    0  0.30470885860E+03 -0.13928180038E+03  0.18500480881E+03  0.38271881024E+03  0.00000000000E+00 0. -1.
        -11    1    3    3    0    0  0.43707575786E+03 -0.26223778019E+03  0.39197710226E+03  0.64300071553E+03  0.00000000000E+00 0.  1.
         22    1    1    2    0    0 -0.74178461646E+03  0.40151958057E+03  0.30309115215E+03  0.89628490856E+03  0.00000000000E+00 0. -1.
<mgrwt>
<rscale>  0 0.17086756E+04</rscale>
<asrwt>0</asrwt>
<pdfrwt beam="1">  1        1 0.80148568E-01 0.17086756E+04</pdfrwt>
<pdfrwt beam="2">  1       -1 0.21554442E+00 0.17086756E+04</pdfrwt>
<totfact> 0.46931531E+00</totfact>
</mgrwt>
</event>
<event>
 6    1  0.1072514E-005  0.2000844E+04  0.7818608E-02  0.8606226E-01
          1   -1    0    0  501    0  0.00000000000E+00  0.00000000000E+00  0.86873548496E+03  0.86873548496E+03  0.00000000000E+00 0. -1.
         -1   -1    0    0    0  501 -0.00000000000E+00 -0.00000000000E+00 -0.11520701329E+04  0.11520701329E+04  0.00000000000E+00 0.  1.
         23    2    1    2    0    0  0.57354389984E+03 -0.78766427348E+03 -0.36241047219E+03  0.10432471292E+04  0.87496339520E+02 0.  0.
         11    1    3    3    0    0  0.14397702159E+03 -0.16338652559E+03 -0.11381151974E+03  0.24571854126E+03  0.00000000000E+00 0. -1.
        -11    1    3    3    0    0  0.42956687825E+03 -0.62427774789E+03 -0.24859895245E+03  0.79752858793E+03  0.00000000000E+00 0.  1.
         22    1    1    2    0    0 -0.57354389984E+03  0.78766427348E+03  0.79075824273E+02  0.97755848866E+03  0.00000000000E+00 0. -1.
<mgrwt>
<rscale>  0 0.20008440E+04</rscale>
<asrwt>0</asrwt>
<pdfrwt beam="1">  1        1 0.13365161E+00 0.20008440E+04</pdfrwt>
<pdfrwt beam="2">  1       -1 0.17724156E+00 0.20008440E+04</pdfrwt>
<totfact> 0.39032390E+00</totfact>
</mgrwt>
</event>
<event>
 6    1  0.1072514E-005  0.3762029E+04  0.7818608E-02  0.8054353E-01
         -2   -1    0    0    0  501 -0.00000000000E+00  0.00000000000E+00  0.95780471124E+03  0.95780471124E+03  0.00000000000E+00 0.  1.
          2   -1    0    0  501    0  0.00000000000E+00 -0.00000000000E+00 -0.36940887327E+04  0.36940887327E+04  0.00000000000E+00 0. -1.
         23    2    1    2    0    0 -0.86740389903E+03  0.12911228568E+03  0.68718888941E+03  0.11178835008E+04  0.91517459338E+02 0.  0.
         13    1    3    3    0    0 -0.35783413508E+03  0.98409547520E+02  0.28059888261E+03  0.46525846601E+03  0.00000000000E+00 0.  1.
        -13    1    3    3    0    0 -0.50956976395E+03  0.30702738161E+02  0.40659000680E+03  0.65262503484E+03  0.00000000000E+00 0. -1.
         22    1    1    2    0    0  0.86740389903E+03 -0.12911228568E+03 -0.34234729109E+04  0.35340099431E+04  0.00000000000E+00 0. -1.
<mgrwt>
<rscale>  0 0.37620290E+04</rscale>
<asrwt>0</asrwt>
<pdfrwt beam="1">  1        2 0.56832133E+00 0.37620290E+04</pdfrwt>
<pdfrwt beam="2">  1       -2 0.14735458E+00 0.37620290E+04</pdfrwt>
<totfact> 0.14859439E-01</totfact>
</mgrwt>
</event>
<event>
 6    1  0.1072514E-005  0.2086177E+04  0.7818608E-02  0.8567357E-01
          2   -1    0    0  501    0  0.00000000000E+00  0.00000000000E+00  0.24189717725E+04  0.24189717725E+04  0.00000000000E+00 0. -1.
         -2   -1    0    0    0  501 -0.00000000000E+00 -0.00000000000E+00 -0.44979168677E+03  0.44979168677E+03  0.00000000000E+00 0.  1.
         23    2    1    2    0    0  0.14972429028E+03 -0.57473915571E+03 -0.18932272915E+03  0.63004130991E+03  0.91468553119E+02 0.  0.
         11    1    3    3    0    0  0.55298265625E+02 -0.89337777928E+02 -0.17347748087E+02  0.10648981693E+03  0.00000000000E+00 0. -1.
        -11    1    3    3    0    0  0.94426024650E+02 -0.48540137779E+03 -0.17197498107E+03  0.52355149298E+03  0.00000000000E+00 0.  1.
         22    1    1    2    0    0 -0.14972429028E+03  0.57473915571E+03  0.21585028149E+04  0.22387221494E+04  0.00000000000E+00 0. -1.
<mgrwt>
<rscale>  0 0.20861768E+04</rscale>
<asrwt>0</asrwt>
<pdfrwt beam="1">  1        2 0.37214949E+00 0.20861768E+04</pdfrwt>
<pdfrwt beam="2">  1       -2 0.69198723E-01 0.20861768E+04</pdfrwt>
<totfact> 0.68198114E+00</totfact>
</mgrwt>
</event>
<event>
 6    1  0.1072514E-005  0.5929425E+03  0.7818608E-02  0.9920157E-01
          1   -1    0    0  501    0  0.00000000000E+00  0.00000000000E+00  0.85669025864E+02  0.85669025864E+02  0.00000000000E+00 0. -1.
         -1   -1    0    0    0  501 -0.00000000000E+00 -0.00000000000E+00 -0.10259859162E+04  0.10259859162E+04  0.00000000000E+00 0.  1.
         23    2    1    2    0    0  0.12513769194E+03 -0.22696563163E+03 -0.23825112817E+03  0.36327724712E+03  0.89632127700E+02 0.  0.
         11    1    3    3    0    0  0.78140418745E+02 -0.10893911529E+03 -0.66512822451E+02  0.14965831561E+03  0.00000000000E+00 0.  1.
        -11    1    3    3    0    0  0.46997273191E+02 -0.11802651634E+03 -0.17173830572E+03  0.21361893150E+03  0.00000000000E+00 0. -1.
         22    1    1    2    0    0 -0.12513769194E+03  0.22696563163E+03 -0.70206576220E+03  0.74837769497E+03  0.00000000000E+00 0.  1.
<mgrwt>
<rscale>  0 0.59294254E+03</rscale>
<asrwt>0</asrwt>
<pdfrwt beam="1">  1        1 0.13179850E-01 0.59294254E+03</pdfrwt>
<pdfrwt beam="2">  1       -1 0.15784399E+00 0.59294254E+03</pdfrwt>
<totfact> 0.14300057E+02</totfact>
</mgrwt>
</event>
<event>
 6    1  0.1072514E-005  0.2196482E+04  0.7818608E-02  0.8519894E-01
          2   -1    0    0  501    0  0.00000000000E+00  0.00000000000E+00  0.19908896617E+04  0.19908896617E+04  0.00000000000E+00 0. -1.
         -2   -1    0    0    0  501 -0.00000000000E+00 -0.00000000000E+00 -0.60582611963E+03  0.60582611963E+03  0.00000000000E+00 0.  1.
         23    2    1    2    0    0  0.51140945077E+03 -0.15081052901E+03  0.18263930103E+04  0.19045776871E+04  0.86146943415E+02 0.  0.
         11    1    3    3    0    0  0.18187489891E+03 -0.30957474267E+02  0.51239569603E+03  0.54459727632E+03  0.00000000000E+00 0.  1.
        -11    1    3    3    0    0  0.32953455187E+03 -0.11985305474E+03  0.13139973143E+04  0.13599804107E+04  0.00000000000E+00 0. -1.
         22    1    1    2    0    0 -0.51140945077E+03  0.15081052901E+03 -0.44132946826E+03  0.69213809428E+03  0.00000000000E+00 0.  1.
<mgrwt>
<rscale>  0 0.21964817E+04</rscale>
<asrwt>0</asrwt>
<pdfrwt beam="1">  1        2 0.30629071E+00 0.21964817E+04</pdfrwt>
<pdfrwt beam="2">  1       -2 0.93204019E-01 0.21964817E+04</pdfrwt>
<totfact> 0.60220720E+00</totfact>
</mgrwt>
</event>
<event>
 6    1  0.1072514E-005  0.2619395E+04  0.7818608E-02  0.8361643E-01
         -1   -1    0    0    0  501 -0.00000000000E+00  0.00000000000E+00  0.19301949250E+04  0.19301949250E+04  0.00000000000E+00 0.  1.
          1   -1    0    0  501    0  0.00000000000E+00 -0.00000000000E+00 -0.88867087685E+03  0.88867087685E+03  0.00000000000E+00 0. -1.
         23    2    1    2    0    0  0.85270712119E+03  0.96995009878E+03  0.29742287017E+03  0.13283628023E+04  0.90414280452E+02 0.  0.
         11    1    3    3    0    0  0.52445712406E+03  0.66079133270E+03  0.18609617608E+03  0.86390523039E+03  0.00000000000E+00 0. -1.
        -11    1    3    3    0    0  0.32824999713E+03  0.30915876609E+03  0.11132669409E+03  0.46445757188E+03  0.00000000000E+00 0.  1.
         22    1    1    2    0    0 -0.85270712119E+03 -0.96995009878E+03  0.74410117794E+03  0.14905029995E+04  0.00000000000E+00 0.  1.
<mgrwt>
<rscale>  0 0.26193954E+04</rscale>
<asrwt>0</asrwt>
<pdfrwt beam="1">  1        1 0.13671860E+00 0.26193954E+04</pdfrwt>
<pdfrwt beam="2">  1       -1 0.29695306E+00 0.26193954E+04</pdfrwt>
<totfact> 0.56499487E-01</totfact>
</mgrwt>
</event>
<event>
 6    1  0.1072514E-005  0.1522057E+04  0.7818608E-02  0.8869916E-01
          4   -1    0    0  501    0  0.00000000000E+00  0.00000000000E+00  0.10160642932E+04  0.10160642932E+04  0.00000000000E+00 0.  1.
         -4   -1    0    0    0  501 -0.00000000000E+00 -0.00000000000E+00 -0.57000790143E+03  0.57000790143E+03  0.00000000000E+00 0. -1.
         23    2    1    2    0    0  0.17418350804E+03  0.70651930415E+03  0.44606235418E+03  0.85839821432E+03  0.91468294643E+02 0.  0.
         13    1    3    3    0    0  0.10402547129E+03  0.55617401130E+03  0.32008642729E+03  0.65008164907E+03  0.00000000000E+00 0.  1.
        -13    1    3    3    0    0  0.70158036742E+02  0.15034529285E+03  0.12597592689E+03  0.20831656525E+03  0.00000000000E+00 0. -1.
         22    1    1    2    0    0 -0.17418350804E+03 -0.70651930415E+03 -0.59623967188E-02  0.72767398033E+03  0.00000000000E+00 0. -1.
<mgrwt>
<rscale>  0 0.15220574E+04</rscale>
<asrwt>0</asrwt>
<pdfrwt beam="1">  1        4 0.15631758E+00 0.15220574E+04</pdfrwt>
<pdfrwt beam="2">  1       -4 0.87693524E-01 0.15220574E+04</pdfrwt>
<totfact> 0.57805084E-01</totfact>
</mgrwt>
</event>
<event>
 6    1  0.1072514E-005  0.4648589E+04  0.7818608E-02  0.7885127E-01
          2   -1    0    0  501    0  0.00000000000E+00  0.00000000000E+00  0.32823001031E+04  0.32823001031E+04  0.00000000000E+00 0. -1.
         -2   -1    0    0    0  501 -0.00000000000E+00 -0.00000000000E+00 -0.16459020053E+04  0.16459020053E+04  0.00000000000E+00 0.  1.
         23    2    1    2    0    0  0.40214142401E+02  0.40868994559E+03  0.32428982738E+04  0.32700442556E+04  0.90308196803E+02 0.  0.
         13    1    3    3    0    0 -0.19293906930E+02  0.18815214148E+03  0.16622549025E+04  0.16729808260E+04  0.00000000000E+00 0.  1.
        -13    1    3    3    0    0  0.59508049331E+02  0.22053780412E+03  0.15806433713E+04  0.15970634297E+04  0.00000000000E+00 0. -1.
         22    1    1    2    0    0 -0.40214142401E+02 -0.40868994559E+03 -0.16065001760E+04  0.16581578527E+04  0.00000000000E+00 0.  1.
<mgrwt>
<rscale>  0 0.46485887E+04</rscale>
<asrwt>0</asrwt>
<pdfrwt beam="1">  1        2 0.50496924E+00 0.46485887E+04</pdfrwt>
<pdfrwt beam="2">  1       -2 0.25321569E+00 0.46485887E+04</pdfrwt>
<totfact> 0.52549758E-02</totfact>
</mgrwt>
</event>
<event>
 6    1  0.1072514E-005  0.3838100E+04  0.7818608E-02  0.8038028E-01
         -2   -1    0    0    0  501 -0.00000000000E+00  0.00000000000E+00  0.15216177896E+04  0.15216177896E+04  0.00000000000E+00 0.  1.
          2   -1    0    0  501    0  0.00000000000E+00 -0.00000000000E+00 -0.24202873112E+04  0.24202873112E+04  0.00000000000E+00 0. -1.
         23    2    1    2    0    0  0.11292887151E+04  0.49164980029E+03 -0.19595711626E+04  0.23163206459E+04  0.91704226084E+02 0.  0.
         11    1    3    3    0    0  0.10074334132E+04  0.41990571166E+03 -0.17765560899E+04  0.20850406301E+04  0.00000000000E+00 0.  1.
        -11    1    3    3    0    0  0.12185530183E+03  0.71744088639E+02 -0.18301507268E+03  0.23128001571E+03  0.00000000000E+00 0. -1.
         22    1    1    2    0    0 -0.11292887151E+04 -0.49164980029E+03  0.10609016410E+04  0.16255844549E+04  0.00000000000E+00 0.  1.
<mgrwt>
<rscale>  0 0.38380996E+04</rscale>
<asrwt>0</asrwt>
<pdfrwt beam="1">  1        2 0.37235189E+00 0.38380996E+04</pdfrwt>
<pdfrwt beam="2">  1       -2 0.23409504E+00 0.38380996E+04</pdfrwt>
<totfact> 0.24936830E-01</totfact>
</mgrwt>
</event>
<event>
 6    1  0.1072514E-005  0.1947371E+04  0.7818608E-02  0.8631630E-01
          1   -1    0    0  501    0  0.00000000000E+00  0.00000000000E+00  0.20060920282E+04  0.20060920282E+04  0.00000000000E+00 0. -1.
         -1   -1    0    0    0  501 -0.00000000000E+00 -0.00000000000E+00 -0.47259207608E+03  0.47259207608E+03  0.00000000000E+00 0.  1.
         23    2    1    2    0    0  0.34134468128E+03 -0.28529620734E+03  0.18684700325E+04  0.19218043397E+04  0.65127108176E+02 0.  0.
         13    1    3    3    0    0  0.20725819489E+03 -0.13799836421E+03  0.11134506502E+04  0.11409521717E+04  0.00000000000E+00 0. -1.
        -13    1    3    3    0    0  0.13408648639E+03 -0.14729784313E+03  0.75501938239E+03  0.78085216796E+03  0.00000000000E+00 0.  1.
         22    1    1    2    0    0 -0.34134468128E+03  0.28529620734E+03 -0.33497008045E+03  0.55687976455E+03  0.00000000000E+00 0.  1.
<mgrwt>
<rscale>  0 0.19473707E+04</rscale>
<asrwt>0</asrwt>
<pdfrwt beam="1">  1        1 0.30862954E+00 0.19473707E+04</pdfrwt>
<pdfrwt beam="2">  1       -1 0.72706474E-01 0.19473707E+04</pdfrwt>
<totfact> 0.52468211E+00</totfact>
</mgrwt>
</event>
<event>
 6    1  0.1072514E-005  0.3723390E+03  0.7818608E-02  0.1053802E+00
         -1   -1    0    0    0  501 -0.00000000000E+00  0.00000000000E+00  0.16583100977E+02  0.16583100977E+02  0.00000000000E+00 0.  1.
          1   -1    0    0  501    0  0.00000000000E+00 -0.00000000000E+00 -0.20900239093E+04  0.20900239093E+04  0.00000000000E+00 0. -1.
         23    2    1    2    0    0 -0.52078697076E+02  0.14738887188E+03 -0.15446136686E+04  0.15551599920E+04  0.90860031336E+02 0.  0.
         13    1    3    3    0    0 -0.54288569448E+02  0.56674104960E+02 -0.99651859994E+03  0.99960418315E+03  0.00000000000E+00 0. -1.
        -13    1    3    3    0    0  0.22098723716E+01  0.90714766921E+02 -0.54809506864E+03  0.55555580884E+03  0.00000000000E+00 0.  1.
         22    1    1    2    0    0  0.52078697076E+02 -0.14738887188E+03 -0.52882713975E+03  0.55144701829E+03  0.00000000000E+00 0.  1.
<mgrwt>
<rscale>  0 0.37233897E+03</rscale>
<asrwt>0</asrwt>
<pdfrwt beam="1">  1        1 0.32154214E+00 0.37233897E+03</pdfrwt>
<pdfrwt beam="2">  1       -1 0.25512463E-02 0.37233897E+03</pdfrwt>
<totfact> 0.14033266E+03</totfact>
</mgrwt>
</event>
<event>
 6    1  0.1072514E-005  0.2919850E+04  0.7818608E-02  0.8266996E-01
         -1   -1    0    0    0  501 -0.00000000000E+00  0.00000000000E+00  0.88196301608E+03  0.88196301608E+03  0.00000000000E+00 0.  1.
          1   -1    0    0  501    0  0.00000000000E+00 -0.00000000000E+00 -0.24166328905E+04  0.24166328905E+04  0.00000000000E+00 0. -1.
         23    2    1    2    0    0 -0.26248425384E+03  0.13295885423E+03 -0.23819954836E+04  0.24016361927E+04  0.85894574770E+02 0.  0.
         13    1    3    3    0    0 -0.15844041374E+03  0.33541772541E+02 -0.11822626455E+04  0.11933035566E+04  0.00000000000E+00 0.  1.
        -13    1    3    3    0    0 -0.10404384011E+03  0.99417081690E+02 -0.11997328381E+04  0.12083326361E+04  0.00000000000E+00 0. -1.
         22    1    1    2    0    0  0.26248425384E+03 -0.13295885423E+03  0.84732560914E+03  0.89695971388E+03  0.00000000000E+00 0.  1.
<mgrwt>
<rscale>  0 0.29198499E+04</rscale>
<asrwt>0</asrwt>
<pdfrwt beam="1">  1        1 0.37178967E+00 0.29198499E+04</pdfrwt>
<pdfrwt beam="2">  1       -1 0.13568662E+00 0.29198499E+04</pdfrwt>
<totfact> 0.60262644E-01</totfact>
</mgrwt>
</event>
<event>
 6    1  0.1072514E-005  0.1477985E+04  0.7818608E-02  0.8899226E-01
          2   -1    0    0  501    0  0.00000000000E+00  0.00000000000E+00  0.73194543930E+03  0.73194543930E+03  0.00000000000E+00 0. -1.
         -2   -1    0    0    0  501 -0.00000000000E+00 -0.00000000000E+00 -0.74610693974E+03  0.74610693974E+03  0.00000000000E+00 0.  1.
         23    2    1    2    0    0  0.59599555712E+03  0.40593704461E+03  0.14219558735E+03  0.74018848428E+03  0.87543240148E+02 0.  0.
         13    1    3    3    0    0  0.46924619761E+03  0.31119548406E+03  0.14678729399E+03  0.58187724904E+03  0.00000000000E+00 0. -1.
        -13    1    3    3    0    0  0.12674935952E+03  0.94741560549E+02 -0.45917066452E+01  0.15831123524E+03  0.00000000000E+00 0.  1.
         22    1    1    2    0    0 -0.59599555712E+03 -0.40593704461E+03 -0.15635708778E+03  0.73786389477E+03  0.00000000000E+00 0. -1.
<mgrwt>
<rscale>  0 0.14779845E+04</rscale>
<asrwt>0</asrwt>
<pdfrwt beam="1">  1        2 0.11260699E+00 0.14779845E+04</pdfrwt>
<pdfrwt beam="2">  1       -2 0.11478568E+00 0.14779845E+04</pdfrwt>
<totfact> 0.22185347E+01</totfact>
</mgrwt>
</event>
<event>
 6    1  0.1072514E-005  0.3244426E+04  0.7818608E-02  0.8177182E-01
          2   -1    0    0  501    0  0.00000000000E+00  0.00000000000E+00  0.16864075505E+04  0.16864075505E+04  0.00000000000E+00 0. -1.
         -2   -1    0    0    0  501 -0.00000000000E+00 -0.00000000000E+00 -0.15604620003E+04  0.15604620003E+04  0.00000000000E+00 0.  1.
         23    2    1    2    0    0  0.14004852555E+04 -0.40814669947E+03  0.77011181310E+03  0.16522244952E+04  0.93972862910E+02 0.  0.
         11    1    3    3    0    0  0.13427059181E+04 -0.38255385644E+03  0.75516478704E+03  0.15872871483E+04  0.00000000000E+00 0. -1.
        -11    1    3    3    0    0  0.57779337342E+02 -0.25592843032E+02  0.14947026060E+02  0.64937346929E+02  0.00000000000E+00 0.  1.
         22    1    1    2    0    0 -0.14004852555E+04  0.40814669947E+03 -0.64416626294E+03  0.15946450556E+04  0.00000000000E+00 0.  1.
<mgrwt>
<rscale>  0 0.32444259E+04</rscale>
<asrwt>0</asrwt>
<pdfrwt beam="1">  1        2 0.25944732E+00 0.32444259E+04</pdfrwt>
<pdfrwt beam="2">  1       -2 0.24007108E+00 0.32444259E+04</pdfrwt>
<totfact> 0.61960902E-01</totfact>
</mgrwt>
</event>
<event>
 6    1  0.1072514E-005  0.2307198E+04  0.7818608E-02  0.8475089E-01
          2   -1    0    0  501    0  0.00000000000E+00  0.00000000000E+00  0.92099363839E+03  0.92099363839E+03  0.00000000000E+00 0. -1.
         -2   -1    0    0    0  501 -0.00000000000E+00 -0.00000000000E+00 -0.14449507702E+04  0.14449507702E+04  0.00000000000E+00 0.  1.
         23    2    1    2    0    0 -0.85851093225E+03 -0.76106277881E+03 -0.36521507952E+03  0.12077317281E+04  0.94743330632E+02 0.  0.
         13    1    3    3    0    0 -0.33186115567E+03 -0.24103778552E+03 -0.10740271023E+03  0.42398865887E+03  0.00000000000E+00 0. -1.
        -13    1    3    3    0    0 -0.52664977659E+03 -0.52002499329E+03 -0.25781236929E+03  0.78374306924E+03  0.00000000000E+00 0.  1.
         22    1    1    2    0    0  0.85851093225E+03  0.76106277881E+03 -0.15874205230E+03  0.11582126805E+04  0.00000000000E+00 0. -1.
<mgrwt>
<rscale>  0 0.23071978E+04</rscale>
<asrwt>0</asrwt>
<pdfrwt beam="1">  1        2 0.14169133E+00 0.23071978E+04</pdfrwt>
<pdfrwt beam="2">  1       -2 0.22230012E+00 0.23071978E+04</pdfrwt>
<totfact> 0.24572466E+00</totfact>
</mgrwt>
</event>
<event>
 6    1  0.1072514E-005  0.1843553E+04  0.7818608E-02  0.8683475E-01
          2   -1    0    0  501    0  0.00000000000E+00  0.00000000000E+00  0.22784835285E+04  0.22784835285E+04  0.00000000000E+00 0. -1.
         -2   -1    0    0    0  501 -0.00000000000E+00 -0.00000000000E+00 -0.37291116126E+03  0.37291116126E+03  0.00000000000E+00 0.  1.
         23    2    1    2    0    0 -0.56402838333E+03  0.43201884699E+03  0.17945648762E+04  0.19323043168E+04  0.92566605555E+02 0.  0.
         11    1    3    3    0    0 -0.48623069828E+03  0.40478580668E+03  0.16234240294E+04  0.17423482489E+04  0.00000000000E+00 0. -1.
        -11    1    3    3    0    0 -0.77797685057E+02  0.27233040305E+02  0.17114084679E+03  0.18995606788E+03  0.00000000000E+00 0.  1.
         22    1    1    2    0    0  0.56402838333E+03 -0.43201884699E+03  0.11100749098E+03  0.71909037291E+03  0.00000000000E+00 0.  1.
<mgrwt>
<rscale>  0 0.18435530E+04</rscale>
<asrwt>0</asrwt>
<pdfrwt beam="1">  1        2 0.35053592E+00 0.18435530E+04</pdfrwt>
<pdfrwt beam="2">  1       -2 0.57370949E-01 0.18435530E+04</pdfrwt>
<totfact> 0.12491100E+01</totfact>
</mgrwt>
</event>
<event>
 6    1  0.1072514E-005  0.2258401E+04  0.7818608E-02  0.8494506E-01
         -2   -1    0    0    0  501 -0.00000000000E+00  0.00000000000E+00  0.51280508452E+03  0.51280508452E+03  0.00000000000E+00 0.  1.
          2   -1    0    0  501    0  0.00000000000E+00 -0.00000000000E+00 -0.24865081730E+04  0.24865081730E+04  0.00000000000E+00 0. -1.
         23    2    1    2    0    0  0.28332084794E+03 -0.82854429794E+03 -0.46738711689E+02  0.88272447697E+03  0.10129974604E+03 0.  0.
         13    1    3    3    0    0  0.14909063449E+03 -0.49693082444E+03 -0.73406465314E+02  0.52398165113E+03  0.00000000000E+00 0. -1.
        -13    1    3    3    0    0  0.13423021345E+03 -0.33161347351E+03  0.26667753625E+02  0.35874282585E+03  0.00000000000E+00 0.  1.
         22    1    1    2    0    0 -0.28332084794E+03  0.82854429794E+03 -0.19269643768E+04  0.21165887806E+04  0.00000000000E+00 0. -1.
<mgrwt>
<rscale>  0 0.22584012E+04</rscale>
<asrwt>0</asrwt>
<pdfrwt beam="1">  1        2 0.38253972E+00 0.22584012E+04</pdfrwt>
<pdfrwt beam="2">  1       -2 0.78893089E-01 0.22584012E+04</pdfrwt>
<totfact> 0.45987351E+00</totfact>
</mgrwt>
</event>
<event>
 6    1  0.1072514E-005  0.3043971E+04  0.7818608E-02  0.8231285E-01
          2   -1    0    0  501    0  0.00000000000E+00  0.00000000000E+00  0.21953869075E+04  0.21953869075E+04  0.00000000000E+00 0. -1.
         -2   -1    0    0    0  501 -0.00000000000E+00 -0.00000000000E+00 -0.10551396541E+04  0.10551396541E+04  0.00000000000E+00 0.  1.
         23    2    1    2    0    0  0.41662684197E+03  0.47009734642E+02 -0.99008319666E+03  0.10793297334E+04  0.94340322752E+02 0.  0.
         11    1    3    3    0    0  0.62698923465E+02 -0.13762136986E+02 -0.92648333337E+02  0.11271319838E+03  0.00000000000E+00 0.  1.
        -11    1    3    3    0    0  0.35392791850E+03  0.60771871628E+02 -0.89743486332E+03  0.96661653502E+03  0.00000000000E+00 0. -1.
         22    1    1    2    0    0 -0.41662684197E+03 -0.47009734642E+02  0.21303304501E+04  0.21711968283E+04  0.00000000000E+00 0. -1.
<mgrwt>
<rscale>  0 0.30439709E+04</rscale>
<asrwt>0</asrwt>
<pdfrwt beam="1">  1        2 0.33775183E+00 0.30439709E+04</pdfrwt>
<pdfrwt beam="2">  1       -2 0.16232918E+00 0.30439709E+04</pdfrwt>
<totfact> 0.10728498E+00</totfact>
</mgrwt>
</event>
<event>
 6    1  0.1072514E-005  0.1963259E+04  0.7818608E-02  0.8623994E-01
          1   -1    0    0  501    0  0.00000000000E+00  0.00000000000E+00  0.11213549129E+04  0.11213549129E+04  0.00000000000E+00 0. -1.
         -1   -1    0    0    0  501 -0.00000000000E+00 -0.00000000000E+00 -0.85931424090E+03  0.85931424090E+03  0.00000000000E+00 0.  1.
         23    2    1    2    0    0  0.82085375634E+03  0.28172048759E+03  0.58970090807E+03  0.10530223716E+04  0.89115832386E+02 0.  0.
         13    1    3    3    0    0  0.18390753693E+03  0.24756308495E+02  0.12853551095E+03  0.22573487662E+03  0.00000000000E+00 0.  1.
        -13    1    3    3    0    0  0.63694621942E+03  0.25696417909E+03  0.46116539712E+03  0.82728749493E+03  0.00000000000E+00 0. -1.
         22    1    1    2    0    0 -0.82085375634E+03 -0.28172048759E+03 -0.32766023602E+03  0.92764678229E+03  0.00000000000E+00 0.  1.
<mgrwt>
<rscale>  0 0.19632588E+04</rscale>
<asrwt>0</asrwt>
<pdfrwt beam="1">  1        1 0.17251614E+00 0.19632588E+04</pdfrwt>
<pdfrwt beam="2">  1       -1 0.13220219E+00 0.19632588E+04</pdfrwt>
<totfact> 0.55264230E+00</totfact>
</mgrwt>
</event>
<event>
 6    1  0.1072514E-005  0.4181471E+04  0.7818608E-02  0.7968906E-01
          2   -1    0    0  501    0  0.00000000000E+00  0.00000000000E+00  0.31189890051E+04  0.31189890051E+04  0.00000000000E+00 0. -1.
         -2   -1    0    0    0  501 -0.00000000000E+00 -0.00000000000E+00 -0.14014718019E+04  0.14014718019E+04  0.00000000000E+00 0.  1.
         23    2    1    2    0    0  0.18527679131E+04  0.94434619214E+03  0.10821617412E+04  0.23460148470E+04  0.90404411876E+02 0.  0.
         13    1    3    3    0    0  0.19971701938E+03  0.76800726142E+02  0.93474992643E+02  0.23350120688E+03  0.00000000000E+00 0.  1.
        -13    1    3    3    0    0  0.16530508937E+04  0.86754546599E+03  0.98868674857E+03  0.21125136401E+04  0.00000000000E+00 0. -1.
         22    1    1    2    0    0 -0.18527679131E+04 -0.94434619214E+03  0.63535546197E+03  0.21744459601E+04  0.00000000000E+00 0. -1.
<mgrwt>
<rscale>  0 0.41814711E+04</rscale>
<asrwt>0</asrwt>
<pdfrwt beam="1">  1        2 0.47984446E+00 0.41814711E+04</pdfrwt>
<pdfrwt beam="2">  1       -2 0.21561105E+00 0.41814711E+04</pdfrwt>
<totfact> 0.11980290E-01</totfact>
</mgrwt>
</event>
<event>
 6    1  0.1072514E-005  0.6883997E+04  0.7818608E-02  0.7589518E-01
         -1   -1    0    0    0  501 -0.00000000000E+00  0.00000000000E+00  0.29023413638E+04  0.29023413638E+04  0.00000000000E+00 0.  1.
          1   -1    0    0  501    0  0.00000000000E+00 -0.00000000000E+00 -0.40819989771E+04  0.40819989771E+04  0.00000000000E+00 0. -1.
         23    2    1    2    0    0 -0.14541337112E+04 -0.75595272678E+03 -0.36601299947E+04  0.40113430975E+04  0.91391973169E+02 0.  0.
         13    1    3    3    0    0 -0.59081387693E+03 -0.26499406851E+03 -0.15045866795E+04  0.16380060957E+04  0.00000000000E+00 0.  1.
        -13    1    3    3    0    0 -0.86331983424E+03 -0.49095865827E+03 -0.21555433152E+04  0.23733370018E+04  0.00000000000E+00 0. -1.
         22    1    1    2    0    0  0.14541337112E+04  0.75595272678E+03  0.24804723814E+04  0.29729972435E+04  0.00000000000E+00 0.  1.
<mgrwt>
<rscale>  0 0.68839972E+04</rscale>
<asrwt>0</asrwt>
<pdfrwt beam="1">  1        1 0.62799984E+00 0.68839972E+04</pdfrwt>
<pdfrwt beam="2">  1       -1 0.44651406E+00 0.68839972E+04</pdfrwt>
<totfact> 0.17339782E-04</totfact>
</mgrwt>
</event>
<event>
 6    1  0.1123007E-005  0.3617926E+04  0.7818608E-02  0.8086398E-01
         -1   -1    0    0    0  501 -0.00000000000E+00  0.00000000000E+00  0.18683105223E+04  0.18683105223E+04  0.00000000000E+00 0. -1.
          1   -1    0    0  501    0  0.00000000000E+00 -0.00000000000E+00 -0.17515010522E+04  0.17515010522E+04  0.00000000000E+00 0.  1.
         23    2    1    2    0    0  0.34941683876E+03 -0.12364825612E+04  0.13309190836E+04  0.18520323448E+04  0.87732249238E+02 0.  0.
         11    1    3    3    0    0  0.17565793708E+03 -0.50071129773E+03  0.50884339614E+03  0.73517964902E+03  0.00000000000E+00 0. -1.
        -11    1    3    3    0    0  0.17375890169E+03 -0.73577126352E+03  0.82207568742E+03  0.11168526957E+04  0.00000000000E+00 0.  1.
         22    1    1    2    0    0 -0.34941683876E+03  0.12364825612E+04 -0.12141096134E+04  0.17677792297E+04  0.00000000000E+00 0.  1.
<mgrwt>
<rscale>  0 0.36179264E+04</rscale>
<asrwt>0</asrwt>
<pdfrwt beam="1">  1        1 0.26946170E+00 0.36179264E+04</pdfrwt>
<pdfrwt beam="2">  1       -1 0.28743239E+00 0.36179264E+04</pdfrwt>
<totfact> 0.14145967E-01</totfact>
</mgrwt>
</event>
<event>
 6    1  0.1072514E-005  0.3340378E+04  0.7818608E-02  0.8152696E-01
         -2   -1    0    0    0  501 -0.00000000000E+00  0.00000000000E+00  0.15478324321E+04  0.15478324321E+04  0.00000000000E+00 0.  1.
          2   -1    0    0  501    0  0.00000000000E+00 -0.00000000000E+00 -0.18022183437E+04  0.18022183437E+04  0.00000000000E+00 0. -1.
         23    2    1    2    0    0  0.58527322646E+03  0.22777670892E+03  0.14226524046E+04  0.15592731534E+04  0.11386801022E+03 0.  0.
         13    1    3    3    0    0  0.35699718845E+03  0.92691999350E+02  0.91399612057E+03  0.98561032245E+03  0.00000000000E+00 0. -1.
        -13    1    3    3    0    0  0.22827603801E+03  0.13508470957E+03  0.50865628406E+03  0.57366283094E+03  0.00000000000E+00 0.  1.
         22    1    1    2    0    0 -0.58527322646E+03 -0.22777670892E+03 -0.16770383162E+04  0.17907776224E+04  0.00000000000E+00 0. -1.
<mgrwt>
<rscale>  0 0.33403784E+04</rscale>
<asrwt>0</asrwt>
<pdfrwt beam="1">  1        2 0.27726436E+00 0.33403784E+04</pdfrwt>
<pdfrwt beam="2">  1       -2 0.23812807E+00 0.33403784E+04</pdfrwt>
<totfact> 0.54500116E-01</totfact>
</mgrwt>
</event>
<event>
 6    1  0.1637710E-005  0.3226392E+04  0.7818608E-02  0.8181882E-01
          2   -1    0    0  501    0  0.00000000000E+00  0.00000000000E+00  0.14256681629E+04  0.14256681629E+04  0.00000000000E+00 0. -1.
         -2   -1    0    0    0  501 -0.00000000000E+00 -0.00000000000E+00 -0.18253909157E+04  0.18253909157E+04  0.00000000000E+00 0.  1.
         23    2    1    2    0    0  0.41023100516E+03  0.16049072555E+03  0.13623715463E+04  0.14347377773E+04  0.91485019739E+02 0.  0.
         13    1    3    3    0    0  0.26803343427E+03  0.15034903819E+03  0.92341921411E+03  0.97321621449E+03  0.00000000000E+00 0.  1.
        -13    1    3    3    0    0  0.14219757089E+03  0.10141687361E+02  0.43895233223E+03  0.46152156284E+03  0.00000000000E+00 0. -1.
         22    1    1    2    0    0 -0.41023100516E+03 -0.16049072555E+03 -0.17620942991E+04  0.18163213013E+04  0.00000000000E+00 0.  1.
<mgrwt>
<rscale>  0 0.32263922E+04</rscale>
<asrwt>0</asrwt>
<pdfrwt beam="1">  1        2 0.21933356E+00 0.32263922E+04</pdfrwt>
<pdfrwt beam="2">  1       -2 0.28082937E+00 0.32263922E+04</pdfrwt>
<totfact> 0.48925833E-01</totfact>
</mgrwt>
</event>
<event>
 6    1  0.1072514E-005  0.2040545E+04  0.7818608E-02  0.8587896E-01
         -2   -1    0    0    0  501 -0.00000000000E+00  0.00000000000E+00  0.44497485269E+03  0.44497485269E+03  0.00000000000E+00 0.  1.
          2   -1    0    0  501    0  0.00000000000E+00 -0.00000000000E+00 -0.23393587814E+04  0.23393587814E+04  0.00000000000E+00 0. -1.
         23    2    1    2    0    0 -0.51693608061E+03  0.20081513074E+03 -0.21143268538E+04  0.21877395355E+04  0.90975834289E+02 0.  0.
         11    1    3    3    0    0 -0.23668468887E+03  0.48880155488E+02 -0.83292204251E+03  0.86727621923E+03  0.00000000000E+00 0.  1.
        -11    1    3    3    0    0 -0.28025139174E+03  0.15193497525E+03 -0.12814048113E+04  0.13204633163E+04  0.00000000000E+00 0. -1.
         22    1    1    2    0    0  0.51693608061E+03 -0.20081513074E+03  0.21994292507E+03  0.59659409858E+03  0.00000000000E+00 0.  1.
<mgrwt>
<rscale>  0 0.20405449E+04</rscale>
<asrwt>0</asrwt>
<pdfrwt beam="1">  1        2 0.35990134E+00 0.20405449E+04</pdfrwt>
<pdfrwt beam="2">  1       -2 0.68457671E-01 0.20405449E+04</pdfrwt>
<totfact> 0.77822940E+00</totfact>
</mgrwt>
</event>
<event>
 6    1  0.1072514E-005  0.1777808E+04  0.7818608E-02  0.8718191E-01
          2   -1    0    0  501    0  0.00000000000E+00  0.00000000000E+00  0.47556425423E+03  0.47556425423E+03  0.00000000000E+00 0.  1.
         -2   -1    0    0    0  501 -0.00000000000E+00 -0.00000000000E+00 -0.16615001761E+04  0.16615001761E+04  0.00000000000E+00 0. -1.
         23    2    1    2    0    0  0.31620133219E+03  0.60344840500E+03  0.87503680617E+02  0.69284087383E+03  0.90765204457E+02 0.  0.
         11    1    3    3    0    0  0.14221394640E+03  0.36533587333E+03  0.60842049550E+02  0.39673273357E+03  0.00000000000E+00 0. -1.
        -11    1    3    3    0    0  0.17398738579E+03  0.23811253167E+03  0.26661631067E+02  0.29610814025E+03  0.00000000000E+00 0.  1.
         22    1    1    2    0    0 -0.31620133219E+03 -0.60344840500E+03 -0.12734396025E+04  0.14442235565E+04  0.00000000000E+00 0. -1.
<mgrwt>
<rscale>  0 0.17778077E+04</rscale>
<asrwt>0</asrwt>
<pdfrwt beam="1">  1        2 0.73163731E-01 0.17778077E+04</pdfrwt>
<pdfrwt beam="2">  1       -2 0.25561541E+00 0.17778077E+04</pdfrwt>
<totfact> 0.36639569E+00</totfact>
</mgrwt>
</event>
<event>
 6    1  0.1072514E-005  0.2447611E+04  0.7818608E-02  0.8421891E-01
         -1   -1    0    0    0  501 -0.00000000000E+00  0.00000000000E+00  0.11509075543E+04  0.11509075543E+04  0.00000000000E+00 0.  1.
          1   -1    0    0  501    0  0.00000000000E+00 -0.00000000000E+00 -0.13013205501E+04  0.13013205501E+04  0.00000000000E+00 0. -1.
         23    2    1    2    0    0 -0.75422675439E+03 -0.76688022733E+03 -0.65660686900E+03  0.12634491016E+04  0.90596754277E+02 0.  0.
         11    1    3    3    0    0 -0.65213081204E+03 -0.62753574876E+03 -0.57640342642E+03  0.10729942320E+04  0.00000000000E+00 0. -1.
        -11    1    3    3    0    0 -0.10209594235E+03 -0.13934447857E+03 -0.80203442580E+02  0.19045486960E+03  0.00000000000E+00 0.  1.
         22    1    1    2    0    0  0.75422675439E+03  0.76688022733E+03  0.50619387315E+03  0.11887790027E+04  0.00000000000E+00 0.  1.
<mgrwt>
<rscale>  0 0.24476108E+04</rscale>
<asrwt>0</asrwt>
<pdfrwt beam="1">  1        1 0.20020316E+00 0.24476108E+04</pdfrwt>
<pdfrwt beam="2">  1       -1 0.17706270E+00 0.24476108E+04</pdfrwt>
<totfact> 0.17603131E+00</totfact>
</mgrwt>
</event>
<event>
 6    1  0.1072514E-005  0.2567133E+04  0.7818608E-02  0.8379452E-01
          1   -1    0    0  501    0  0.00000000000E+00  0.00000000000E+00  0.59528518745E+03  0.59528518745E+03  0.00000000000E+00 0. -1.
         -1   -1    0    0    0  501 -0.00000000000E+00 -0.00000000000E+00 -0.27676538938E+04  0.27676538938E+04  0.00000000000E+00 0.  1.
         23    2    1    2    0    0  0.72646630710E+03  0.10302806871E+04 -0.78269776108E+03  0.14866616695E+04  0.91189608845E+02 0.  0.
         13    1    3    3    0    0  0.38048904521E+03  0.61159170444E+03 -0.42522260618E+03  0.83643923346E+03  0.00000000000E+00 0.  1.
        -13    1    3    3    0    0  0.34597726189E+03  0.41868898270E+03 -0.35747515490E+03  0.65022243605E+03  0.00000000000E+00 0. -1.
         22    1    1    2    0    0 -0.72646630710E+03 -0.10302806871E+04 -0.13896709452E+04  0.18762774117E+04  0.00000000000E+00 0.  1.
<mgrwt>
<rscale>  0 0.25671333E+04</rscale>
<asrwt>0</asrwt>
<pdfrwt beam="1">  1        1 0.91582335E-01 0.25671333E+04</pdfrwt>
<pdfrwt beam="2">  1       -1 0.42579291E+00 0.25671333E+04</pdfrwt>
<totfact> 0.14544054E-01</totfact>
</mgrwt>
</event>
<event>
 6    1  0.1072514E-005  0.6607363E+03  0.7818608E-02  0.9786839E-01
          1   -1    0    0  501    0  0.00000000000E+00  0.00000000000E+00  0.68790013642E+03  0.68790013642E+03  0.00000000000E+00 0. -1.
         -1   -1    0    0    0  501 -0.00000000000E+00 -0.00000000000E+00 -0.15866125918E+03  0.15866125918E+03  0.00000000000E+00 0.  1.
         23    2    1    2    0    0 -0.14778109602E+03  0.48757997178E+02  0.63433999208E+03  0.65877737347E+03  0.85929084816E+02 0.  0.
         13    1    3    3    0    0 -0.77172588381E+02 -0.15634306712E+02  0.22332855464E+03  0.23680304741E+03  0.00000000000E+00 0.  1.
        -13    1    3    3    0    0 -0.70608507635E+02  0.64392303890E+02  0.41101143744E+03  0.42197432606E+03  0.00000000000E+00 0. -1.
         22    1    1    2    0    0  0.14778109602E+03 -0.48757997178E+02 -0.10510111483E+03  0.18778402213E+03  0.00000000000E+00 0.  1.
<mgrwt>
<rscale>  0 0.66073626E+03</rscale>
<asrwt>0</asrwt>
<pdfrwt beam="1">  1        1 0.10583079E+00 0.66073626E+03</pdfrwt>
<pdfrwt beam="2">  1       -1 0.24409425E-01 0.66073626E+03</pdfrwt>
<totfact> 0.41271498E+02</totfact>
</mgrwt>
</event>
<event>
 6    1  0.1072514E-005  0.1592091E+04  0.7818608E-02  0.8825421E-01
         -3   -1    0    0    0  501 -0.00000000000E+00  0.00000000000E+00  0.42021152236E+03  0.42021152236E+03  0.00000000000E+00 0.  1.
          3   -1    0    0  501    0  0.00000000000E+00 -0.00000000000E+00 -0.15080232819E+04  0.15080232819E+04  0.00000000000E+00 0. -1.
         23    2    1    2    0    0 -0.20247103728E+03  0.21253118851E+03 -0.14384422119E+04  0.14709539922E+04  0.91791193474E+02 0.  0.
         13    1    3    3    0    0 -0.13304143022E+03  0.93415691085E+02 -0.61880190611E+03  0.63979864997E+03  0.00000000000E+00 0.  1.
        -13    1    3    3    0    0 -0.69429607058E+02  0.11911549742E+03 -0.81964030575E+03  0.83115534220E+03  0.00000000000E+00 0. -1.
         22    1    1    2    0    0  0.20247103728E+03 -0.21253118851E+03  0.35063045231E+03  0.45728081210E+03  0.00000000000E+00 0.  1.
<mgrwt>
<rscale>  0 0.15920914E+04</rscale>
<asrwt>0</asrwt>
<pdfrwt beam="1">  1        3 0.23200358E+00 0.15920914E+04</pdfrwt>
<pdfrwt beam="2">  1       -3 0.64647926E-01 0.15920914E+04</pdfrwt>
<totfact> 0.54795025E-01</totfact>
</mgrwt>
</event>
<event>
 6    1  0.1072514E-005  0.1436456E+04  0.7818608E-02  0.8927844E-01
          1   -1    0    0  501    0  0.00000000000E+00  0.00000000000E+00  0.13167143519E+04  0.13167143519E+04  0.00000000000E+00 0. -1.
         -1   -1    0    0    0  501 -0.00000000000E+00 -0.00000000000E+00 -0.39177194314E+03  0.39177194314E+03  0.00000000000E+00 0.  1.
         23    2    1    2    0    0  0.64736153577E+03  0.28699096302E+03  0.58320293802E+03  0.92221240085E+03  0.94388953323E+02 0.  0.
         11    1    3    3    0    0  0.17378123125E+03  0.67987340567E+02  0.20867196490E+03  0.27993960732E+03  0.00000000000E+00 0. -1.
        -11    1    3    3    0    0  0.47358030452E+03  0.21900362245E+03  0.37453097313E+03  0.64227279353E+03  0.00000000000E+00 0.  1.
         22    1    1    2    0    0 -0.64736153577E+03 -0.28699096302E+03  0.34173947076E+03  0.78627389421E+03  0.00000000000E+00 0.  1.
<mgrwt>
<rscale>  0 0.14364564E+04</rscale>
<asrwt>0</asrwt>
<pdfrwt beam="1">  1        1 0.20257144E+00 0.14364564E+04</pdfrwt>
<pdfrwt beam="2">  1       -1 0.60272607E-01 0.14364564E+04</pdfrwt>
<totfact> 0.23881947E+01</totfact>
</mgrwt>
</event>
<event>
 6    1  0.1072514E-005  0.1660530E+04  0.7818608E-02  0.8784201E-01
         -1   -1    0    0    0  501 -0.00000000000E+00  0.00000000000E+00  0.59707155686E+03  0.59707155686E+03  0.00000000000E+00 0.  1.
          1   -1    0    0  501    0  0.00000000000E+00 -0.00000000000E+00 -0.11545355163E+04  0.11545355163E+04  0.00000000000E+00 0. -1.
         23    2    1    2    0    0 -0.35561355649E+03 -0.17385797929E+03  0.48768733405E+03  0.63400749156E+03  0.86249435050E+02 0.  0.
         13    1    3    3    0    0 -0.28704701923E+03 -0.12045666009E+03  0.42517034960E+03  0.52694935657E+03  0.00000000000E+00 0.  1.
        -13    1    3    3    0    0 -0.68566537261E+02 -0.53401319203E+02  0.62516984448E+02  0.10705813500E+03  0.00000000000E+00 0. -1.
         22    1    1    2    0    0  0.35561355649E+03  0.17385797929E+03 -0.10451512934E+04  0.11175995816E+04  0.00000000000E+00 0. -1.
<mgrwt>
<rscale>  0 0.16605304E+04</rscale>
<asrwt>0</asrwt>
<pdfrwt beam="1">  1        1 0.17762085E+00 0.16605304E+04</pdfrwt>
<pdfrwt beam="2">  1       -1 0.91857163E-01 0.16605304E+04</pdfrwt>
<totfact> 0.12724036E+01</totfact>
</mgrwt>
</event>
<event>
 6    1  0.1102520E-005  0.1776450E+04  0.7818608E-02  0.8718924E-01
         -2   -1    0    0    0  501 -0.00000000000E+00  0.00000000000E+00  0.50146462492E+03  0.50146462492E+03  0.00000000000E+00 0.  1.
          2   -1    0    0  501    0  0.00000000000E+00 -0.00000000000E+00 -0.15732785242E+04  0.15732785242E+04  0.00000000000E+00 0. -1.
         23    2    1    2    0    0 -0.41149194816E+02 -0.70333522363E+03 -0.11651390519E+04  0.13640510378E+04  0.81930033186E+02 0.  0.
         11    1    3    3    0    0 -0.49581505603E+02 -0.22277965101E+03 -0.35330447148E+03  0.42061044705E+03  0.00000000000E+00 0.  1.
        -11    1    3    3    0    0  0.84323107864E+01 -0.48055557262E+03 -0.81183458045E+03  0.94344059074E+03  0.00000000000E+00 0. -1.
         22    1    1    2    0    0  0.41149194816E+02  0.70333522363E+03  0.93325152623E+02  0.71069211136E+03  0.00000000000E+00 0.  1.
<mgrwt>
<rscale>  0 0.17764499E+04</rscale>
<asrwt>0</asrwt>
<pdfrwt beam="1">  1        2 0.24204285E+00 0.17764499E+04</pdfrwt>
<pdfrwt beam="2">  1       -2 0.77148405E-01 0.17764499E+04</pdfrwt>
<totfact> 0.16370713E+01</totfact>
</mgrwt>
</event>
<event>
 6    1  0.1072514E-005  0.1749800E+04  0.7818608E-02  0.8733460E-01
         -2   -1    0    0    0  501 -0.00000000000E+00  0.00000000000E+00  0.45785466388E+03  0.45785466388E+03  0.00000000000E+00 0. -1.
          2   -1    0    0  501    0  0.00000000000E+00 -0.00000000000E+00 -0.16718185117E+04  0.16718185117E+04  0.00000000000E+00 0.  1.
         23    2    1    2    0    0 -0.63890521185E+02  0.86774877893E+03 -0.53033172517E+03  0.10231367681E+04  0.92125812966E+02 0.  0.
         11    1    3    3    0    0 -0.79912910335E+02  0.46698476878E+03 -0.27933059305E+03  0.54998766143E+03  0.00000000000E+00 0.  1.
        -11    1    3    3    0    0  0.16022389149E+02  0.40076401015E+03 -0.25100113212E+03  0.47314910664E+03  0.00000000000E+00 0. -1.
         22    1    1    2    0    0  0.63890521185E+02 -0.86774877893E+03 -0.68363212263E+03  0.11065364075E+04  0.00000000000E+00 0.  1.
<mgrwt>
<rscale>  0 0.17497999E+04</rscale>
<asrwt>0</asrwt>
<pdfrwt beam="1">  1        2 0.25720285E+00 0.17497999E+04</pdfrwt>
<pdfrwt beam="2">  1       -2 0.70439180E-01 0.17497999E+04</pdfrwt>
<totfact> 0.17670046E+01</totfact>
</mgrwt>
</event>
<event>
 6    1  0.1072514E-005  0.3085340E+04  0.7818608E-02  0.8219773E-01
          2   -1    0    0  501    0  0.00000000000E+00  0.00000000000E+00  0.10370552764E+04  0.10370552764E+04  0.00000000000E+00 0. -1.
         -2   -1    0    0    0  501 -0.00000000000E+00 -0.00000000000E+00 -0.22947958932E+04  0.22947958932E+04  0.00000000000E+00 0.  1.
         23    2    1    2    0    0  0.78892009019E+03 -0.12760839846E+04 -0.24772553394E+03  0.15232838604E+04  0.90777390901E+02 0.  0.
         11    1    3    3    0    0  0.21551021814E+03 -0.27624647996E+03 -0.52795307690E+02  0.35432205170E+03  0.00000000000E+00 0. -1.
        -11    1    3    3    0    0  0.57340987205E+03 -0.99983750462E+03 -0.19493022625E+03  0.11689618087E+04  0.00000000000E+00 0.  1.
         22    1    1    2    0    0 -0.78892009019E+03  0.12760839846E+04 -0.10100150828E+04  0.18085673092E+04  0.00000000000E+00 0.  1.
<mgrwt>
<rscale>  0 0.30853397E+04</rscale>
<asrwt>0</asrwt>
<pdfrwt beam="1">  1        2 0.15954697E+00 0.30853397E+04</pdfrwt>
<pdfrwt beam="2">  1       -2 0.35304552E+00 0.30853397E+04</pdfrwt>
<totfact> 0.30169106E-01</totfact>
</mgrwt>
</event>
<event>
 6    1  0.1072514E-005  0.4956830E+04  0.7818608E-02  0.7835201E-01
         -2   -1    0    0    0  501 -0.00000000000E+00  0.00000000000E+00  0.20981535087E+04  0.20981535087E+04  0.00000000000E+00 0.  1.
          2   -1    0    0  501    0  0.00000000000E+00 -0.00000000000E+00 -0.29275936104E+04  0.29275936104E+04  0.00000000000E+00 0. -1.
         23    2    1    2    0    0  0.16200175424E+04 -0.18130795752E+04 -0.89771868235E+03  0.25933868767E+04  0.89678735795E+02 0.  0.
         11    1    3    3    0    0  0.14288779818E+04 -0.15688420212E+04 -0.80651518345E+03  0.22701154850E+04  0.00000000000E+00 0. -1.
        -11    1    3    3    0    0  0.19113956066E+03 -0.24423755408E+03 -0.91203498902E+02  0.32327139169E+03  0.00000000000E+00 0.  1.
         22    1    1    2    0    0 -0.16200175424E+04  0.18130795752E+04  0.68278580635E+02  0.24323602424E+04  0.00000000000E+00 0.  1.
<mgrwt>
<rscale>  0 0.49568300E+04</rscale>
<asrwt>0</asrwt>
<pdfrwt beam="1">  1        2 0.45039901E+00 0.49568300E+04</pdfrwt>
<pdfrwt beam="2">  1       -2 0.32279285E+00 0.49568300E+04</pdfrwt>
<totfact> 0.32460414E-02</totfact>
</mgrwt>
</event>
<event>
 6    1  0.1072514E-005  0.2535489E+04  0.7818608E-02  0.8390450E-01
          2   -1    0    0  501    0  0.00000000000E+00  0.00000000000E+00  0.17060370589E+04  0.17060370589E+04  0.00000000000E+00 0. -1.
         -2   -1    0    0    0  501 -0.00000000000E+00 -0.00000000000E+00 -0.94205232636E+03  0.94205232636E+03  0.00000000000E+00 0.  1.
         23    2    1    2    0    0 -0.83451354860E+03  0.86255716191E+03  0.80358798647E+03  0.14472621129E+04  0.91631058921E+02 0.  0.
         13    1    3    3    0    0 -0.35993853190E+03  0.32446748090E+03  0.28756773104E+03  0.56349808593E+03  0.00000000000E+00 0. -1.
        -13    1    3    3    0    0 -0.47457501670E+03  0.53808968100E+03  0.51602025543E+03  0.88376402692E+03  0.00000000000E+00 0.  1.
         22    1    1    2    0    0  0.83451354860E+03 -0.86255716191E+03 -0.39603253963E+02  0.12008272724E+04  0.00000000000E+00 0.  1.
<mgrwt>
<rscale>  0 0.25354890E+04</rscale>
<asrwt>0</asrwt>
<pdfrwt beam="1">  1        2 0.26246724E+00 0.25354890E+04</pdfrwt>
<pdfrwt beam="2">  1       -2 0.14493113E+00 0.25354890E+04</pdfrwt>
<totfact> 0.28396459E+00</totfact>
</mgrwt>
</event>
<event>
 6    1  0.1072514E-005  0.3187418E+04  0.7818608E-02  0.8192148E-01
         -1   -1    0    0    0  501 -0.00000000000E+00  0.00000000000E+00  0.27873031071E+04  0.27873031071E+04  0.00000000000E+00 0.  1.
          1   -1    0    0  501    0  0.00000000000E+00 -0.00000000000E+00 -0.91124227392E+03  0.91124227392E+03  0.00000000000E+00 0. -1.
         23    2    1    2    0    0  0.83970300403E+03 -0.18428689615E+03 -0.61650999698E+03  0.10618861049E+04  0.91949596487E+02 0.  0.
         13    1    3    3    0    0  0.40280712097E+03 -0.59373212637E+02 -0.24713010272E+03  0.47628987261E+03  0.00000000000E+00 0.  1.
        -13    1    3    3    0    0  0.43689588306E+03 -0.12491368351E+03 -0.36937989426E+03  0.58559623227E+03  0.00000000000E+00 0. -1.
         22    1    1    2    0    0 -0.83970300403E+03  0.18428689615E+03  0.24925708301E+04  0.26366592761E+04  0.00000000000E+00 0.  1.
<mgrwt>
<rscale>  0 0.31874180E+04</rscale>
<asrwt>0</asrwt>
<pdfrwt beam="1">  1        1 0.14019112E+00 0.31874180E+04</pdfrwt>
<pdfrwt beam="2">  1       -1 0.42881586E+00 0.31874180E+04</pdfrwt>
<totfact> 0.67557475E-02</totfact>
</mgrwt>
</event>
<event>
 6    1  0.1072514E-005  0.1616709E+04  0.7818608E-02  0.8810348E-01
         -2   -1    0    0    0  501 -0.00000000000E+00  0.00000000000E+00  0.14318756195E+04  0.14318756195E+04  0.00000000000E+00 0.  1.
          2   -1    0    0  501    0  0.00000000000E+00 -0.00000000000E+00 -0.45635028821E+03  0.45635028821E+03  0.00000000000E+00 0. -1.
         23    2    1    2    0    0  0.57590135849E+03 -0.52637926501E+03  0.25466642814E+03  0.82597590718E+03  0.92971524041E+02 0.  0.
         11    1    3    3    0    0  0.32785573952E+03 -0.34705855972E+03  0.18537056637E+03  0.51215356748E+03  0.00000000000E+00 0. -1.
        -11    1    3    3    0    0  0.24804561897E+03 -0.17932070530E+03  0.69295861768E+02  0.31382233970E+03  0.00000000000E+00 0.  1.
         22    1    1    2    0    0 -0.57590135849E+03  0.52637926501E+03  0.72085890310E+03  0.10622500005E+04  0.00000000000E+00 0. -1.
<mgrwt>
<rscale>  0 0.16167088E+04</rscale>
<asrwt>0</asrwt>
<pdfrwt beam="1">  1        2 0.70207737E-01 0.16167088E+04</pdfrwt>
<pdfrwt beam="2">  1       -2 0.22028856E+00 0.16167088E+04</pdfrwt>
<totfact> 0.64465208E+00</totfact>
</mgrwt>
</event>
<event>
 6    1  0.1072514E-005  0.4613662E+04  0.7818608E-02  0.7891035E-01
          2   -1    0    0  501    0  0.00000000000E+00  0.00000000000E+00  0.20574322209E+04  0.20574322209E+04  0.00000000000E+00 0.  1.
         -2   -1    0    0    0  501 -0.00000000000E+00 -0.00000000000E+00 -0.25864609654E+04  0.25864609654E+04  0.00000000000E+00 0. -1.
         23    2    1    2    0    0  0.12279158107E+04 -0.89856807199E+03 -0.20087488481E+04  0.25214480390E+04  0.86176912731E+02 0.  0.
         13    1    3    3    0    0  0.74594473683E+03 -0.59286275488E+03 -0.12273975686E+04  0.15538418800E+04  0.00000000000E+00 0.  1.
        -13    1    3    3    0    0  0.48197107389E+03 -0.30570531711E+03 -0.78135127954E+03  0.96760615904E+03  0.00000000000E+00 0. -1.
         22    1    1    2    0    0 -0.12279158107E+04  0.89856807199E+03  0.14797201037E+04  0.21224451473E+04  0.00000000000E+00 0.  1.
<mgrwt>
<rscale>  0 0.46136615E+04</rscale>
<asrwt>0</asrwt>
<pdfrwt beam="1">  1        2 0.31652804E+00 0.46136615E+04</pdfrwt>
<pdfrwt beam="2">  1       -2 0.39791707E+00 0.46136615E+04</pdfrwt>
<totfact> 0.35697427E-02</totfact>
</mgrwt>
</event>
<event>
 6    1  0.1072514E-005  0.3141824E+04  0.7818608E-02  0.8204353E-01
         -2   -1    0    0    0  501 -0.00000000000E+00  0.00000000000E+00  0.79294772339E+03  0.79294772339E+03  0.00000000000E+00 0.  1.
          2   -1    0    0  501    0  0.00000000000E+00 -0.00000000000E+00 -0.31121396267E+04  0.31121396267E+04  0.00000000000E+00 0. -1.
         23    2    1    2    0    0  0.58767720458E+03 -0.53097920724E+03 -0.28447352604E+04  0.29545615821E+04  0.98040937224E+02 0.  0.
         13    1    3    3    0    0  0.25508870306E+03 -0.24801737383E+03 -0.14532171144E+04  0.14961359717E+04  0.00000000000E+00 0. -1.
        -13    1    3    3    0    0  0.33258850152E+03 -0.28296183341E+03 -0.13915181460E+04  0.14584256105E+04  0.00000000000E+00 0.  1.
         22    1    1    2    0    0 -0.58767720458E+03  0.53097920724E+03  0.52554335713E+03  0.95052576795E+03  0.00000000000E+00 0.  1.
<mgrwt>
<rscale>  0 0.31418237E+04</rscale>
<asrwt>0</asrwt>
<pdfrwt beam="1">  1        2 0.47879072E+00 0.31418237E+04</pdfrwt>
<pdfrwt beam="2">  1       -2 0.12199196E+00 0.31418237E+04</pdfrwt>
<totfact> 0.63689255E-01</totfact>
</mgrwt>
</event>
<event>
 6    1  0.1072514E-005  0.1635497E+04  0.7818608E-02  0.8799033E-01
         -2   -1    0    0    0  501 -0.00000000000E+00  0.00000000000E+00  0.87971399606E+03  0.87971399606E+03  0.00000000000E+00 0.  1.
          2   -1    0    0  501    0  0.00000000000E+00 -0.00000000000E+00 -0.76014781038E+03  0.76014781038E+03  0.00000000000E+00 0. -1.
         23    2    1    2    0    0  0.14589486675E+03 -0.66011817138E+03 -0.39690717147E+03  0.78910564808E+03  0.90061694110E+02 0.  0.
         11    1    3    3    0    0  0.40260154667E+02 -0.38728084787E+03 -0.23260030152E+03  0.45355290259E+03  0.00000000000E+00 0. -1.
        -11    1    3    3    0    0  0.10563471208E+03 -0.27283732351E+03 -0.16430686995E+03  0.33555274550E+03  0.00000000000E+00 0.  1.
         22    1    1    2    0    0 -0.14589486675E+03  0.66011817138E+03  0.51647335715E+03  0.85075615835E+03  0.00000000000E+00 0.  1.
<mgrwt>
<rscale>  0 0.16354971E+04</rscale>
<asrwt>0</asrwt>
<pdfrwt beam="1">  1        2 0.11694582E+00 0.16354971E+04</pdfrwt>
<pdfrwt beam="2">  1       -2 0.13534061E+00 0.16354971E+04</pdfrwt>
<totfact> 0.13809002E+01</totfact>
</mgrwt>
</event>
<event>
 6    1  0.1072514E-005  0.3391133E+04  0.7818608E-02  0.8140086E-01
         -2   -1    0    0    0  501 -0.00000000000E+00  0.00000000000E+00  0.17711062600E+04  0.17711062600E+04  0.00000000000E+00 0.  1.
          2   -1    0    0  501    0  0.00000000000E+00 -0.00000000000E+00 -0.16232486907E+04  0.16232486907E+04  0.00000000000E+00 0. -1.
         23    2    1    2    0    0  0.13244543163E+04  0.53981620133E+03 -0.83528992587E+03  0.16587974713E+04  0.91208679337E+02 0.  0.
         13    1    3    3    0    0  0.73999399053E+03  0.31569226071E+03 -0.51973352852E+03  0.95779729074E+03  0.00000000000E+00 0. -1.
        -13    1    3    3    0    0  0.58446032580E+03  0.22412394062E+03 -0.31555639735E+03  0.70100018053E+03  0.00000000000E+00 0.  1.
         22    1    1    2    0    0 -0.13244543163E+04 -0.53981620133E+03  0.98314749518E+03  0.17355574795E+04  0.00000000000E+00 0.  1.
<mgrwt>
<rscale>  0 0.33911331E+04</rscale>
<asrwt>0</asrwt>
<pdfrwt beam="1">  1        2 0.24973057E+00 0.33911331E+04</pdfrwt>
<pdfrwt beam="2">  1       -2 0.27247789E+00 0.33911331E+04</pdfrwt>
<totfact> 0.41997649E-01</totfact>
</mgrwt>
</event>
<event>
 6    1  0.1072514E-005  0.2079958E+04  0.7818608E-02  0.8570124E-01
          1   -1    0    0  501    0  0.00000000000E+00  0.00000000000E+00  0.11388360606E+04  0.11388360606E+04  0.00000000000E+00 0. -1.
         -1   -1    0    0    0  501 -0.00000000000E+00 -0.00000000000E+00 -0.94970345277E+03  0.94970345277E+03  0.00000000000E+00 0.  1.
         23    2    1    2    0    0 -0.86349181727E+03 -0.17011706483E+02  0.67291701230E+03  0.10986128157E+04  0.90693422010E+02 0.  0.
         13    1    3    3    0    0 -0.61896358017E+03  0.12703465044E+01  0.43166677841E+03  0.75462158393E+03  0.00000000000E+00 0.  1.
        -13    1    3    3    0    0 -0.24452823710E+03 -0.18282052988E+02  0.24125023389E+03  0.34399123179E+03  0.00000000000E+00 0. -1.
         22    1    1    2    0    0  0.86349181727E+03  0.17011706483E+02 -0.48378440448E+03  0.98992669762E+03  0.00000000000E+00 0.  1.
<mgrwt>
<rscale>  0 0.20799582E+04</rscale>
<asrwt>0</asrwt>
<pdfrwt beam="1">  1        1 0.17520555E+00 0.20799582E+04</pdfrwt>
<pdfrwt beam="2">  1       -1 0.14610822E+00 0.20799582E+04</pdfrwt>
<totfact> 0.40901840E+00</totfact>
</mgrwt>
</event>
<event>
 6    1  0.1072514E-005  0.4198191E+04  0.7818608E-02  0.7965716E-01
          2   -1    0    0  501    0  0.00000000000E+00  0.00000000000E+00  0.26227565450E+04  0.26227565450E+04  0.00000000000E+00 0. -1.
         -2   -1    0    0    0  501 -0.00000000000E+00 -0.00000000000E+00 -0.16799886398E+04  0.16799886398E+04  0.00000000000E+00 0.  1.
         23    2    1    2    0    0  0.17205384380E+04 -0.75332411953E+03 -0.48665000156E+03  0.19424517077E+04  0.92415729760E+02 0.  0.
         11    1    3    3    0    0  0.12659997144E+04 -0.59650769537E+03 -0.37396561862E+03  0.14485948334E+04  0.00000000000E+00 0.  1.
        -11    1    3    3    0    0  0.45453872358E+03 -0.15681642417E+03 -0.11268438294E+03  0.49385687429E+03  0.00000000000E+00 0. -1.
         22    1    1    2    0    0 -0.17205384380E+04  0.75332411953E+03  0.14294179068E+04  0.23602934771E+04  0.00000000000E+00 0. -1.
<mgrwt>
<rscale>  0 0.41981907E+04</rscale>
<asrwt>0</asrwt>
<pdfrwt beam="1">  1        2 0.40350101E+00 0.41981907E+04</pdfrwt>
<pdfrwt beam="2">  1       -2 0.25845979E+00 0.41981907E+04</pdfrwt>
<totfact> 0.13061569E-01</totfact>
</mgrwt>
</event>
<event>
 6    1  0.1072514E-005  0.1607483E+04  0.7818608E-02  0.8815964E-01
          1   -1    0    0  501    0  0.00000000000E+00  0.00000000000E+00  0.16293946864E+04  0.16293946864E+04  0.00000000000E+00 0. -1.
         -1   -1    0    0    0  501 -0.00000000000E+00 -0.00000000000E+00 -0.39646671953E+03  0.39646671953E+03  0.00000000000E+00 0.  1.
         23    2    1    2    0    0  0.21392408440E+03 -0.58986682148E+03 -0.97595152499E+01  0.63374842229E+03  0.88517984906E+02 0.  0.
         13    1    3    3    0    0  0.37993647596E+02 -0.22661686462E+03 -0.12636222243E+02  0.23012690998E+03  0.00000000000E+00 0. -1.
        -13    1    3    3    0    0  0.17593043681E+03 -0.36324995686E+03  0.28767069930E+01  0.40362151231E+03  0.00000000000E+00 0.  1.
         22    1    1    2    0    0 -0.21392408440E+03  0.58986682148E+03  0.12426874821E+04  0.13921129836E+04  0.00000000000E+00 0. -1.
<mgrwt>
<rscale>  0 0.16074835E+04</rscale>
<asrwt>0</asrwt>
<pdfrwt beam="1">  1        1 0.25067610E+00 0.16074835E+04</pdfrwt>
<pdfrwt beam="2">  1       -1 0.60994881E-01 0.16074835E+04</pdfrwt>
<totfact> 0.13924292E+01</totfact>
</mgrwt>
</event>
<event>
 6    1  0.1250438E-005  0.3809722E+04  0.7818608E-02  0.8044072E-01
         -1   -1    0    0    0  501 -0.00000000000E+00  0.00000000000E+00  0.16023937133E+04  0.16023937133E+04  0.00000000000E+00 0.  1.
          1   -1    0    0  501    0  0.00000000000E+00 -0.00000000000E+00 -0.22644216257E+04  0.22644216257E+04  0.00000000000E+00 0. -1.
         23    2    1    2    0    0  0.64254497738E+02  0.38355477345E+03  0.15603427605E+04  0.16106738735E+04  0.91421506175E+02 0.  0.
         13    1    3    3    0    0  0.56200437824E+02  0.18624448748E+03  0.92972379228E+03  0.94985884650E+03  0.00000000000E+00 0. -1.
        -13    1    3    3    0    0  0.80540599137E+01  0.19731028597E+03  0.63061896822E+03  0.66081502700E+03  0.00000000000E+00 0.  1.
         22    1    1    2    0    0 -0.64254497738E+02 -0.38355477345E+03 -0.22223706729E+04  0.22561414655E+04  0.00000000000E+00 0. -1.
<mgrwt>
<rscale>  0 0.38097218E+04</rscale>
<asrwt>0</asrwt>
<pdfrwt beam="1">  1        1 0.34837256E+00 0.38097218E+04</pdfrwt>
<pdfrwt beam="2">  1       -1 0.24652211E+00 0.38097218E+04</pdfrwt>
<totfact> 0.11499217E-01</totfact>
</mgrwt>
</event>
<event>
 6    1  0.1072514E-005  0.4180621E+04  0.7818608E-02  0.7969069E-01
         -2   -1    0    0    0  501 -0.00000000000E+00  0.00000000000E+00  0.16700919022E+04  0.16700919022E+04  0.00000000000E+00 0.  1.
          2   -1    0    0  501    0  0.00000000000E+00 -0.00000000000E+00 -0.26162620588E+04  0.26162620588E+04  0.00000000000E+00 0. -1.
         23    2    1    2    0    0  0.11887873281E+04 -0.47665732010E+03  0.12190973055E+04  0.17706431877E+04  0.92528621414E+02 0.  0.
         11    1    3    3    0    0  0.36893552491E+03 -0.10768681310E+03  0.39293814491E+03  0.54964557396E+03  0.00000000000E+00 0.  1.
        -11    1    3    3    0    0  0.81985180315E+03 -0.36897050700E+03  0.82615916063E+03  0.12209976138E+04  0.00000000000E+00 0. -1.
         22    1    1    2    0    0 -0.11887873281E+04  0.47665732010E+03 -0.21652674621E+04  0.25157107732E+04  0.00000000000E+00 0. -1.
<mgrwt>
<rscale>  0 0.41806210E+04</rscale>
<asrwt>0</asrwt>
<pdfrwt beam="1">  1        2 0.40250185E+00 0.41806210E+04</pdfrwt>
<pdfrwt beam="2">  1       -2 0.25693722E+00 0.41806210E+04</pdfrwt>
<totfact> 0.13482468E-01</totfact>
</mgrwt>
</event>
<event>
 6    1  0.1072514E-005  0.2422904E+04  0.7818608E-02  0.8430978E-01
         -2   -1    0    0    0  501 -0.00000000000E+00  0.00000000000E+00  0.64132377218E+03  0.64132377218E+03  0.00000000000E+00 0.  1.
          2   -1    0    0  501    0  0.00000000000E+00 -0.00000000000E+00 -0.22884160521E+04  0.22884160521E+04  0.00000000000E+00 0. -1.
         23    2    1    2    0    0  0.51550054955E+03  0.81198255057E+03  0.62468769151E+02  0.96819567247E+03  0.91891425323E+02 0.  0.
         11    1    3    3    0    0  0.25815263183E+03  0.32264155103E+03  0.33081935744E+02  0.41452957221E+03  0.00000000000E+00 0. -1.
        -11    1    3    3    0    0  0.25734791772E+03  0.48934099954E+03  0.29386833408E+02  0.55366610025E+03  0.00000000000E+00 0.  1.
         22    1    1    2    0    0 -0.51550054955E+03 -0.81198255057E+03 -0.17095610491E+04  0.19615441518E+04  0.00000000000E+00 0. -1.
<mgrwt>
<rscale>  0 0.24229037E+04</rscale>
<asrwt>0</asrwt>
<pdfrwt beam="1">  1        2 0.35206400E+00 0.24229037E+04</pdfrwt>
<pdfrwt beam="2">  1       -2 0.98665197E-01 0.24229037E+04</pdfrwt>
<totfact> 0.35220688E+00</totfact>
</mgrwt>
</event>
<event>
 6    1  0.1072514E-005  0.2360315E+04  0.7818608E-02  0.8454512E-01
         -2   -1    0    0    0  501 -0.00000000000E+00  0.00000000000E+00  0.12782169991E+04  0.12782169991E+04  0.00000000000E+00 0. -1.
          2   -1    0    0  501    0  0.00000000000E+00 -0.00000000000E+00 -0.10896205503E+04  0.10896205503E+04  0.00000000000E+00 0.  1.
         23    2    1    2    0    0 -0.24157386416E+03 -0.76201821568E+03 -0.77409346278E+03  0.11165176227E+04  0.91439706319E+02 0.  0.
         13    1    3    3    0    0 -0.17837456624E+03 -0.59435491403E+03 -0.54672732408E+03  0.82703447123E+03  0.00000000000E+00 0. -1.
        -13    1    3    3    0    0 -0.63199297919E+02 -0.16766330166E+03 -0.22736613870E+03  0.28948315151E+03  0.00000000000E+00 0.  1.
         22    1    1    2    0    0  0.24157386416E+03  0.76201821568E+03  0.96268991161E+03  0.12513199266E+04  0.00000000000E+00 0. -1.
<mgrwt>
<rscale>  0 0.23603148E+04</rscale>
<asrwt>0</asrwt>
<pdfrwt beam="1">  1        2 0.16763393E+00 0.23603148E+04</pdfrwt>
<pdfrwt beam="2">  1       -2 0.19664877E+00 0.23603148E+04</pdfrwt>
<totfact> 0.27912416E+00</totfact>
</mgrwt>
</event>
<event>
 6    1  0.1072514E-005  0.5126094E+04  0.7818608E-02  0.7809345E-01
          1   -1    0    0  501    0  0.00000000000E+00  0.00000000000E+00  0.24886673480E+04  0.24886673480E+04  0.00000000000E+00 0. -1.
         -1   -1    0    0    0  501 -0.00000000000E+00 -0.00000000000E+00 -0.26396499222E+04  0.26396499222E+04  0.00000000000E+00 0.  1.
         23    2    1    2    0    0 -0.12659605768E+03 -0.11026697719E+04  0.22348650976E+04  0.24969343067E+04  0.90286984406E+02 0.  0.
         11    1    3    3    0    0 -0.10536175670E+03 -0.59819431801E+03  0.12791531812E+04  0.14160403959E+04  0.00000000000E+00 0. -1.
        -11    1    3    3    0    0 -0.21234300982E+02 -0.50447545394E+03  0.95571191641E+03  0.10808939108E+04  0.00000000000E+00 0.  1.
         22    1    1    2    0    0  0.12659605768E+03  0.11026697719E+04 -0.23858476718E+04  0.26313829636E+04  0.00000000000E+00 0.  1.
<mgrwt>
<rscale>  0 0.51260943E+04</rscale>
<asrwt>0</asrwt>
<pdfrwt beam="1">  1        1 0.38287190E+00 0.51260943E+04</pdfrwt>
<pdfrwt beam="2">  1       -1 0.40609999E+00 0.51260943E+04</pdfrwt>
<totfact> 0.64117680E-03</totfact>
</mgrwt>
</event>
<event>
 6    1  0.1072514E-005  0.4146347E+04  0.7818608E-02  0.7975657E-01
          2   -1    0    0  501    0  0.00000000000E+00  0.00000000000E+00  0.25618072165E+04  0.25618072165E+04  0.00000000000E+00 0. -1.
         -2   -1    0    0    0  501 -0.00000000000E+00 -0.00000000000E+00 -0.16777406310E+04  0.16777406310E+04  0.00000000000E+00 0.  1.
         23    2    1    2    0    0  0.14560563040E+04  0.12481253436E+04 -0.35951063523E+03  0.19538529559E+04  0.10186580657E+03 0.  0.
         11    1    3    3    0    0  0.68856280568E+03  0.53625644963E+03 -0.13306333632E+03  0.88283382842E+03  0.00000000000E+00 0. -1.
        -11    1    3    3    0    0  0.76749349833E+03  0.71186889396E+03 -0.22644729891E+03  0.10710191274E+04  0.00000000000E+00 0.  1.
         22    1    1    2    0    0 -0.14560563040E+04 -0.12481253436E+04  0.12435772207E+04  0.22856948916E+04  0.00000000000E+00 0.  1.
<mgrwt>
<rscale>  0 0.41463469E+04</rscale>
<asrwt>0</asrwt>
<pdfrwt beam="1">  1        2 0.39412419E+00 0.41463469E+04</pdfrwt>
<pdfrwt beam="2">  1       -2 0.25811394E+00 0.41463469E+04</pdfrwt>
<totfact> 0.14312953E-01</totfact>
</mgrwt>
</event>
<event>
 6    1  0.1072514E-005  0.1885670E+04  0.7818608E-02  0.8662022E-01
          2   -1    0    0  501    0  0.00000000000E+00  0.00000000000E+00  0.14704071940E+04  0.14704071940E+04  0.00000000000E+00 0. -1.
         -2   -1    0    0    0  501 -0.00000000000E+00 -0.00000000000E+00 -0.60455238441E+03  0.60455238441E+03  0.00000000000E+00 0.  1.
         23    2    1    2    0    0  0.80119668103E+03 -0.40435203018E+03  0.74462122000E+03  0.11693579722E+04  0.86721507579E+02 0.  0.
         11    1    3    3    0    0  0.52107912294E+03 -0.23016837524E+03  0.50975298748E+03  0.76442726376E+03  0.00000000000E+00 0. -1.
        -11    1    3    3    0    0  0.28011755809E+03 -0.17418365494E+03  0.23486823252E+03  0.40493070844E+03  0.00000000000E+00 0.  1.
         22    1    1    2    0    0 -0.80119668103E+03  0.40435203018E+03  0.12123358964E+03  0.90560160626E+03  0.00000000000E+00 0. -1.
<mgrwt>
<rscale>  0 0.18856704E+04</rscale>
<asrwt>0</asrwt>
<pdfrwt beam="1">  1        2 0.22621649E+00 0.18856704E+04</pdfrwt>
<pdfrwt beam="2">  1       -2 0.93008059E-01 0.18856704E+04</pdfrwt>
<totfact> 0.12114685E+01</totfact>
</mgrwt>
</event>
<event>
 6    1  0.1072514E-005  0.3299646E+04  0.7818608E-02  0.8162986E-01
          1   -1    0    0  501    0  0.00000000000E+00  0.00000000000E+00  0.24979016375E+04  0.24979016375E+04  0.00000000000E+00 0. -1.
         -1   -1    0    0    0  501 -0.00000000000E+00 -0.00000000000E+00 -0.10896808829E+04  0.10896808829E+04  0.00000000000E+00 0.  1.
         23    2    1    2    0    0 -0.19933747974E+03 -0.14056708432E+04 -0.20626394271E+03  0.14376507103E+04  0.92998928512E+02 0.  0.
         11    1    3    3    0    0 -0.84482177007E+02 -0.74057375101E+03 -0.15041922340E+03  0.76040296007E+03  0.00000000000E+00 0. -1.
        -11    1    3    3    0    0 -0.11485530273E+03 -0.66509709214E+03 -0.55844719308E+02  0.67724775025E+03  0.00000000000E+00 0.  1.
         22    1    1    2    0    0  0.19933747974E+03  0.14056708432E+04  0.16144846973E+04  0.21499318101E+04  0.00000000000E+00 0. -1.
<mgrwt>
<rscale>  0 0.32996458E+04</rscale>
<asrwt>0</asrwt>
<pdfrwt beam="1">  1        1 0.38429256E+00 0.32996458E+04</pdfrwt>
<pdfrwt beam="2">  1       -1 0.16764321E+00 0.32996458E+04</pdfrwt>
<totfact> 0.28875993E-01</totfact>
</mgrwt>
</event>
<event>
 6    1  0.1072514E-005  0.9354696E+03  0.7818608E-02  0.9382297E-01
         -1   -1    0    0    0  501 -0.00000000000E+00  0.00000000000E+00  0.18294927851E+03  0.18294927851E+03  0.00000000000E+00 0. -1.
          1   -1    0    0  501    0  0.00000000000E+00 -0.00000000000E+00 -0.11958279627E+04  0.11958279627E+04  0.00000000000E+00 0.  1.
         23    2    1    2    0    0 -0.61895648462E+02  0.20578475690E+03 -0.11151857025E+04  0.11407747970E+04  0.10746882710E+03 0.  0.
         11    1    3    3    0    0 -0.42684103067E+02  0.12986703355E+03 -0.92578150140E+03  0.93581983704E+03  0.00000000000E+00 0. -1.
        -11    1    3    3    0    0 -0.19211545395E+02  0.75917723344E+02 -0.18940420113E+03  0.20495495993E+03  0.00000000000E+00 0.  1.
         22    1    1    2    0    0  0.61895648462E+02 -0.20578475690E+03  0.10230701833E+03  0.23800244425E+03  0.00000000000E+00 0. -1.
<mgrwt>
<rscale>  0 0.93546964E+03</rscale>
<asrwt>0</asrwt>
<pdfrwt beam="1">  1        1 0.18397353E+00 0.93546964E+03</pdfrwt>
<pdfrwt beam="2">  1       -1 0.28146044E-01 0.93546964E+03</pdfrwt>
<totfact> 0.12337911E+02</totfact>
</mgrwt>
</event>
<event>
 6    1  0.1072514E-005  0.2245400E+04  0.7818608E-02  0.8499766E-01
          2   -1    0    0  501    0  0.00000000000E+00  0.00000000000E+00  0.21193590549E+04  0.21193590549E+04  0.00000000000E+00 0. -1.
         -2   -1    0    0    0  501 -0.00000000000E+00 -0.00000000000E+00 -0.59473414265E+03  0.59473414265E+03  0.00000000000E+00 0.  1.
         23    2    1    2    0    0  0.71194400282E+03  0.45239000459E+03 -0.12859039601E+03  0.85811856549E+03  0.91164703097E+02 0.  0.
         13    1    3    3    0    0  0.54089785373E+03  0.34895992295E+03 -0.13676954598E+03  0.65806490918E+03  0.00000000000E+00 0.  1.
        -13    1    3    3    0    0  0.17104614909E+03  0.10343008164E+03  0.81791499720E+01  0.20005365631E+03  0.00000000000E+00 0. -1.
         22    1    1    2    0    0 -0.71194400282E+03 -0.45239000459E+03  0.16532153082E+04  0.18559746320E+04  0.00000000000E+00 0. -1.
<mgrwt>
<rscale>  0 0.22453999E+04</rscale>
<asrwt>0</asrwt>
<pdfrwt beam="1">  1        2 0.32605524E+00 0.22453999E+04</pdfrwt>
<pdfrwt beam="2">  1       -2 0.91497562E-01 0.22453999E+04</pdfrwt>
<totfact> 0.53082809E+00</totfact>
</mgrwt>
</event>
<event>
 6    1  0.1072514E-005  0.4802385E+04  0.7818608E-02  0.7859736E-01
          2   -1    0    0  501    0  0.00000000000E+00  0.00000000000E+00  0.24318541417E+04  0.24318541417E+04  0.00000000000E+00 0.  1.
         -2   -1    0    0    0  501 -0.00000000000E+00 -0.00000000000E+00 -0.23709177892E+04  0.23709177892E+04  0.00000000000E+00 0. -1.
         23    2    1    2    0    0 -0.11813695079E+04 -0.78136471891E+03 -0.19077539313E+04  0.23775077861E+04  0.82785703314E+02 0.  0.
         11    1    3    3    0    0 -0.67277387865E+03 -0.39560155051E+03 -0.10500561093E+04  0.13083360086E+04  0.00000000000E+00 0. -1.
        -11    1    3    3    0    0 -0.50859562929E+03 -0.38576316839E+03 -0.85769782191E+03  0.10691717776E+04  0.00000000000E+00 0.  1.
         22    1    1    2    0    0  0.11813695079E+04  0.78136471891E+03  0.19686902838E+04  0.24252641447E+04  0.00000000000E+00 0.  1.
<mgrwt>
<rscale>  0 0.48023853E+04</rscale>
<asrwt>0</asrwt>
<pdfrwt beam="1">  1        2 0.37413141E+00 0.48023853E+04</pdfrwt>
<pdfrwt beam="2">  1       -2 0.36475658E+00 0.48023853E+04</pdfrwt>
<totfact> 0.35354867E-02</totfact>
</mgrwt>
</event>
<event>
 6    1  0.1072514E-005  0.1819823E+04  0.7818608E-02  0.8695828E-01
         -3   -1    0    0    0  501 -0.00000000000E+00  0.00000000000E+00  0.10564596934E+04  0.10564596934E+04  0.00000000000E+00 0.  1.
          3   -1    0    0  501    0  0.00000000000E+00 -0.00000000000E+00 -0.78369172248E+03  0.78369172248E+03  0.00000000000E+00 0. -1.
         23    2    1    2    0    0  0.32427292667E+03 -0.67263972477E+03  0.65880810921E+03  0.99954204251E+03  0.86365732073E+02 0.  0.
         13    1    3    3    0    0  0.22278293820E+03 -0.53490525345E+03  0.48466990294E+03  0.75542093070E+03  0.00000000000E+00 0. -1.
        -13    1    3    3    0    0  0.10148998847E+03 -0.13773447132E+03  0.17413820628E+03  0.24412111181E+03  0.00000000000E+00 0.  1.
         22    1    1    2    0    0 -0.32427292667E+03  0.67263972477E+03 -0.38604013826E+03  0.84060937340E+03  0.00000000000E+00 0. -1.
<mgrwt>
<rscale>  0 0.18198228E+04</rscale>
<asrwt>0</asrwt>
<pdfrwt beam="1">  1        3 0.12056796E+00 0.18198228E+04</pdfrwt>
<pdfrwt beam="2">  1       -3 0.16253226E+00 0.18198228E+04</pdfrwt>
<totfact> 0.36040220E-01</totfact>
</mgrwt>
</event>
<event>
 6    1  0.1072514E-005  0.1027599E+04  0.7818608E-02  0.9278783E-01
         -2   -1    0    0    0  501 -0.00000000000E+00  0.00000000000E+00  0.19512386459E+03  0.19512386459E+03  0.00000000000E+00 0.  1.
          2   -1    0    0  501    0  0.00000000000E+00 -0.00000000000E+00 -0.13529339320E+04  0.13529339320E+04  0.00000000000E+00 0. -1.
         23    2    1    2    0    0 -0.14429134479E+03  0.35690315640E+03 -0.10873503481E+04  0.11566955255E+04  0.86104029180E+02 0.  0.
         13    1    3    3    0    0 -0.74090545318E+02  0.94159149844E+02 -0.39780047907E+03  0.41545225424E+03  0.00000000000E+00 0. -1.
        -13    1    3    3    0    0 -0.70200799477E+02  0.26274400656E+03 -0.68954986907E+03  0.74124327125E+03  0.00000000000E+00 0.  1.
         22    1    1    2    0    0  0.14429134479E+03 -0.35690315640E+03 -0.70459719302E+02  0.39136227115E+03  0.00000000000E+00 0.  1.
<mgrwt>
<rscale>  0 0.10275986E+04</rscale>
<asrwt>0</asrwt>
<pdfrwt beam="1">  1        2 0.20814367E+00 0.10275986E+04</pdfrwt>
<pdfrwt beam="2">  1       -2 0.30019057E-01 0.10275986E+04</pdfrwt>
<totfact> 0.15707188E+02</totfact>
</mgrwt>
</event>
<event>
 6    1  0.1072514E-005  0.4362452E+04  0.7818608E-02  0.7935170E-01
         -2   -1    0    0    0  501 -0.00000000000E+00  0.00000000000E+00  0.17131375248E+04  0.17131375248E+04  0.00000000000E+00 0.  1.
          2   -1    0    0  501    0  0.00000000000E+00 -0.00000000000E+00 -0.27772119638E+04  0.27772119638E+04  0.00000000000E+00 0. -1.
         23    2    1    2    0    0  0.12944070499E+04 -0.12421780084E+04  0.74327632785E+03  0.19437806971E+04  0.85603056899E+02 0.  0.
         13    1    3    3    0    0  0.76438484362E+03 -0.77251523872E+03  0.41639983082E+03  0.11638096074E+04  0.00000000000E+00 0.  1.
        -13    1    3    3    0    0  0.53002220629E+03 -0.46966276971E+03  0.32687649704E+03  0.77997108967E+03  0.00000000000E+00 0. -1.
         22    1    1    2    0    0 -0.12944070499E+04  0.12421780084E+04 -0.18073507668E+04  0.25465687915E+04  0.00000000000E+00 0. -1.
<mgrwt>
<rscale>  0 0.43624516E+04</rscale>
<asrwt>0</asrwt>
<pdfrwt beam="1">  1        2 0.42726338E+00 0.43624516E+04</pdfrwt>
<pdfrwt beam="2">  1       -2 0.26355962E+00 0.43624516E+04</pdfrwt>
<totfact> 0.97024207E-02</totfact>
</mgrwt>
</event>
<event>
 6    1  0.1072514E-005  0.2813830E+04  0.7818608E-02  0.8298988E-01
          2   -1    0    0  501    0  0.00000000000E+00  0.00000000000E+00  0.10091331056E+04  0.10091331056E+04  0.00000000000E+00 0. -1.
         -2   -1    0    0    0  501 -0.00000000000E+00 -0.00000000000E+00 -0.19614952292E+04  0.19614952292E+04  0.00000000000E+00 0.  1.
         23    2    1    2    0    0  0.19065241266E+03  0.11912116840E+04 -0.12379035300E+04  0.17309237276E+04  0.91423096481E+02 0.  0.
         13    1    3    3    0    0  0.37489894832E+02  0.51433758840E+03 -0.54089877995E+03  0.74734204833E+03  0.00000000000E+00 0.  1.
        -13    1    3    3    0    0  0.15316251783E+03  0.67687409560E+03 -0.69700475002E+03  0.98358167923E+03  0.00000000000E+00 0. -1.
         22    1    1    2    0    0 -0.19065241266E+03 -0.11912116840E+04  0.28554140641E+03  0.12397046073E+04  0.00000000000E+00 0. -1.
<mgrwt>
<rscale>  0 0.28138300E+04</rscale>
<asrwt>0</asrwt>
<pdfrwt beam="1">  1        2 0.15525125E+00 0.28138300E+04</pdfrwt>
<pdfrwt beam="2">  1       -2 0.30176850E+00 0.28138300E+04</pdfrwt>
<totfact> 0.66958737E-01</totfact>
</mgrwt>
</event>
<event>
 6    1  0.1072514E-005  0.2977617E+04  0.7818608E-02  0.8250151E-01
          2   -1    0    0  501    0  0.00000000000E+00  0.00000000000E+00  0.20798853898E+04  0.20798853898E+04  0.00000000000E+00 0. -1.
         -2   -1    0    0    0  501 -0.00000000000E+00 -0.00000000000E+00 -0.10657083516E+04  0.10657083516E+04  0.00000000000E+00 0.  1.
         23    2    1    2    0    0  0.13008034430E+04 -0.27509518874E+03 -0.19662320930E+03  0.13473156207E+04  0.93977312964E+02 0.  0.
         13    1    3    3    0    0  0.25429555889E+03 -0.57463607978E+02 -0.76441064996E+02  0.27168278181E+03  0.00000000000E+00 0. -1.
        -13    1    3    3    0    0  0.10465078841E+04 -0.21763158077E+03 -0.12018214430E+03  0.10756328389E+04  0.00000000000E+00 0.  1.
         22    1    1    2    0    0 -0.13008034430E+04  0.27509518874E+03  0.12108002474E+04  0.17982781207E+04  0.00000000000E+00 0. -1.
<mgrwt>
<rscale>  0 0.29776173E+04</rscale>
<asrwt>0</asrwt>
<pdfrwt beam="1">  1        2 0.31998237E+00 0.29776173E+04</pdfrwt>
<pdfrwt beam="2">  1       -2 0.16395513E+00 0.29776173E+04</pdfrwt>
<totfact> 0.12184118E+00</totfact>
</mgrwt>
</event>
<event>
 6    1  0.1072514E-005  0.1356275E+04  0.7818608E-02  0.8986092E-01
          1   -1    0    0  501    0  0.00000000000E+00  0.00000000000E+00  0.28312798502E+04  0.28312798502E+04  0.00000000000E+00 0. -1.
         -1   -1    0    0    0  501 -0.00000000000E+00 -0.00000000000E+00 -0.16242492085E+03  0.16242492085E+03  0.00000000000E+00 0.  1.
         23    2    1    2    0    0 -0.37825935440E+03 -0.49974487875E+03  0.18939110575E+04  0.19970287517E+04  0.91649649968E+02 0.  0.
         13    1    3    3    0    0 -0.25874721234E+03 -0.29247416663E+03  0.12758944747E+04  0.13343155431E+04  0.00000000000E+00 0. -1.
        -13    1    3    3    0    0 -0.11951214207E+03 -0.20727071212E+03  0.61801658279E+03  0.66271320856E+03  0.00000000000E+00 0.  1.
         22    1    1    2    0    0  0.37825935440E+03  0.49974487875E+03  0.77494387186E+03  0.99667601935E+03  0.00000000000E+00 0.  1.
<mgrwt>
<rscale>  0 0.13562749E+04</rscale>
<asrwt>0</asrwt>
<pdfrwt beam="1">  1        1 0.43558148E+00 0.13562749E+04</pdfrwt>
<pdfrwt beam="2">  1       -1 0.24988451E-01 0.13562749E+04</pdfrwt>
<totfact> 0.10932103E+01</totfact>
</mgrwt>
</event>
<event>
 6    1  0.1072514E-005  0.1672011E+04  0.7818608E-02  0.8777490E-01
         -2   -1    0    0    0  501 -0.00000000000E+00  0.00000000000E+00  0.83501746904E+03  0.83501746904E+03  0.00000000000E+00 0. -1.
          2   -1    0    0  501    0  0.00000000000E+00 -0.00000000000E+00 -0.83699478908E+03  0.83699478908E+03  0.00000000000E+00 0.  1.
         23    2    1    2    0    0 -0.22072151981E+03 -0.30428270633E+03 -0.74488335186E+03  0.83941672198E+03  0.91996035640E+02 0.  0.
         13    1    3    3    0    0 -0.16912980792E+03 -0.23228559583E+03 -0.64384331095E+03  0.70505013937E+03  0.00000000000E+00 0. -1.
        -13    1    3    3    0    0 -0.51591711891E+02 -0.71997110501E+02 -0.10104004091E+03  0.13436658261E+03  0.00000000000E+00 0.  1.
         22    1    1    2    0    0  0.22072151981E+03  0.30428270633E+03  0.74290603183E+03  0.83259553614E+03  0.00000000000E+00 0. -1.
<mgrwt>
<rscale>  0 0.16720111E+04</rscale>
<asrwt>0</asrwt>
<pdfrwt beam="1">  1        2 0.12876843E+00 0.16720111E+04</pdfrwt>
<pdfrwt beam="2">  1       -2 0.12846423E+00 0.16720111E+04</pdfrwt>
<totfact> 0.13832321E+01</totfact>
</mgrwt>
</event>
<event>
 6    1  0.1072514E-005  0.7054687E+03  0.7818608E-02  0.9707925E-01
          1   -1    0    0  501    0  0.00000000000E+00  0.00000000000E+00  0.47657558188E+03  0.47657558188E+03  0.00000000000E+00 0. -1.
         -1   -1    0    0    0  501 -0.00000000000E+00 -0.00000000000E+00 -0.26107408200E+03  0.26107408200E+03  0.00000000000E+00 0.  1.
         23    2    1    2    0    0 -0.28062629762E+03  0.20383036325E+03  0.13351150240E+03  0.38125059599E+03  0.85022113441E+02 0.  0.
         13    1    3    3    0    0 -0.10312881648E+03  0.10997083493E+03  0.90729986467E+02  0.17595757378E+03  0.00000000000E+00 0.  1.
        -13    1    3    3    0    0 -0.17749748113E+03  0.93859528324E+02  0.42781515928E+02  0.20529302222E+03  0.00000000000E+00 0. -1.
         22    1    1    2    0    0  0.28062629762E+03 -0.20383036325E+03  0.81989997484E+02  0.35639906788E+03  0.00000000000E+00 0.  1.
<mgrwt>
<rscale>  0 0.70546873E+03</rscale>
<asrwt>0</asrwt>
<pdfrwt beam="1">  1        1 0.73319320E-01 0.70546873E+03</pdfrwt>
<pdfrwt beam="2">  1       -1 0.40165243E-01 0.70546873E+03</pdfrwt>
<totfact> 0.28984664E+02</totfact>
</mgrwt>
</event>
<event>
 6    1  0.1072514E-005  0.5184666E+04  0.7818608E-02  0.7800635E-01
          1   -1    0    0  501    0  0.00000000000E+00  0.00000000000E+00  0.38051802588E+04  0.38051802588E+04  0.00000000000E+00 0. -1.
         -1   -1    0    0    0  501 -0.00000000000E+00 -0.00000000000E+00 -0.17660639232E+04  0.17660639232E+04  0.00000000000E+00 0.  1.
         23    2    1    2    0    0  0.18180226788E+04 -0.14467924818E+03 -0.95862219046E+03  0.20623163093E+04  0.89741349683E+02 0.  0.
         13    1    3    3    0    0  0.12078290646E+04 -0.13676610415E+03 -0.62435608643E+03  0.13665198642E+04  0.00000000000E+00 0.  1.
        -13    1    3    3    0    0  0.61019361419E+03 -0.79131440317E+01 -0.33426610403E+03  0.69579644506E+03  0.00000000000E+00 0. -1.
         22    1    1    2    0    0 -0.18180226788E+04  0.14467924818E+03  0.29977385260E+04  0.35089278727E+04  0.00000000000E+00 0. -1.
<mgrwt>
<rscale>  0 0.51846665E+04</rscale>
<asrwt>0</asrwt>
<pdfrwt beam="1">  1        1 0.58541234E+00 0.51846665E+04</pdfrwt>
<pdfrwt beam="2">  1       -1 0.27170214E+00 0.51846665E+04</pdfrwt>
<totfact> 0.50453668E-03</totfact>
</mgrwt>
</event>
<event>
 6    1  0.1072514E-005  0.1420540E+04  0.7818608E-02  0.8939084E-01
          2   -1    0    0  501    0  0.00000000000E+00  0.00000000000E+00  0.16003279509E+04  0.16003279509E+04  0.00000000000E+00 0. -1.
         -2   -1    0    0    0  501 -0.00000000000E+00 -0.00000000000E+00 -0.31523737297E+03  0.31523737297E+03  0.00000000000E+00 0.  1.
         23    2    1    2    0    0 -0.45016615617E+03 -0.51939843894E+03  0.42022007886E+03  0.81083672067E+03  0.91907379350E+02 0.  0.
         11    1    3    3    0    0 -0.14438564886E+03 -0.16901927402E+03  0.18750457914E+03  0.29081385418E+03  0.00000000000E+00 0. -1.
        -11    1    3    3    0    0 -0.30578050731E+03 -0.35037916492E+03  0.23271549972E+03  0.52002286649E+03  0.00000000000E+00 0.  1.
         22    1    1    2    0    0  0.45016615617E+03  0.51939843894E+03  0.86487049903E+03  0.11047286031E+04  0.00000000000E+00 0.  1.
<mgrwt>
<rscale>  0 0.14205396E+04</rscale>
<asrwt>0</asrwt>
<pdfrwt beam="1">  1        2 0.24620430E+00 0.14205396E+04</pdfrwt>
<pdfrwt beam="2">  1       -2 0.48498058E-01 0.14205396E+04</pdfrwt>
<totfact> 0.43616381E+01</totfact>
</mgrwt>
</event>
<event>
 6    1  0.1072514E-005  0.7384402E+03  0.7818608E-02  0.9653662E-01
         -3   -1    0    0    0  501 -0.00000000000E+00  0.00000000000E+00  0.12377087074E+03  0.12377087074E+03  0.00000000000E+00 0.  1.
          3   -1    0    0  501    0  0.00000000000E+00 -0.00000000000E+00 -0.11014180780E+04  0.11014180780E+04  0.00000000000E+00 0. -1.
         23    2    1    2    0    0  0.21850334565E+03  0.21424099729E+03 -0.82254278995E+03  0.88211417957E+03  0.88914945455E+02 0.  0.
         11    1    3    3    0    0  0.15376821271E+03  0.16305703242E+03 -0.47964874955E+03  0.52942910952E+03  0.00000000000E+00 0. -1.
        -11    1    3    3    0    0  0.64735132933E+02  0.51183964871E+02 -0.34289404040E+03  0.35268507005E+03  0.00000000000E+00 0.  1.
         22    1    1    2    0    0 -0.21850334565E+03 -0.21424099729E+03 -0.15510441734E+03  0.34307476920E+03  0.00000000000E+00 0.  1.
<mgrwt>
<rscale>  0 0.73844018E+03</rscale>
<asrwt>0</asrwt>
<pdfrwt beam="1">  1        3 0.16944893E+00 0.73844018E+03</pdfrwt>
<pdfrwt beam="2">  1       -3 0.19041673E-01 0.73844018E+03</pdfrwt>
<totfact> 0.15565264E+01</totfact>
</mgrwt>
</event>
<event>
 6    1  0.1072514E-005  0.1090700E+04  0.7818608E-02  0.9214304E-01
          1   -1    0    0  501    0  0.00000000000E+00  0.00000000000E+00  0.15618657923E+03  0.15618657923E+03  0.00000000000E+00 0. -1.
         -1   -1    0    0    0  501 -0.00000000000E+00 -0.00000000000E+00 -0.19041758720E+04  0.19041758720E+04  0.00000000000E+00 0.  1.
         23    2    1    2    0    0  0.30707869223E+03 -0.35871208562E+03 -0.37794621562E+03  0.61122832465E+03  0.88232870065E+02 0.  0.
         11    1    3    3    0    0  0.17859719772E+03 -0.14449900976E+03 -0.16294247254E+03  0.28165079835E+03  0.00000000000E+00 0.  1.
        -11    1    3    3    0    0  0.12848149451E+03 -0.21421307586E+03 -0.21500374308E+03  0.32957752630E+03  0.00000000000E+00 0. -1.
         22    1    1    2    0    0 -0.30707869223E+03  0.35871208562E+03 -0.13700430772E+04  0.14491341266E+04  0.00000000000E+00 0.  1.
<mgrwt>
<rscale>  0 0.10907002E+04</rscale>
<asrwt>0</asrwt>
<pdfrwt beam="1">  1        1 0.24028702E-01 0.10907002E+04</pdfrwt>
<pdfrwt beam="2">  1       -1 0.29295016E+00 0.10907002E+04</pdfrwt>
<totfact> 0.75927912E+00</totfact>
</mgrwt>
</event>
<event>
 6    1  0.1072514E-005  0.3531266E+04  0.7818608E-02  0.8106420E-01
          2   -1    0    0  501    0  0.00000000000E+00  0.00000000000E+00  0.34181219717E+04  0.34181219717E+04  0.00000000000E+00 0. -1.
         -2   -1    0    0    0  501 -0.00000000000E+00 -0.00000000000E+00 -0.91203864365E+03  0.91203864365E+03  0.00000000000E+00 0.  1.
         23    2    1    2    0    0  0.84938672374E+03 -0.43048249667E+03  0.30753652478E+04  0.32207216172E+04  0.91669741811E+02 0.  0.
         11    1    3    3    0    0  0.71123513383E+03 -0.35160022102E+03  0.26651911072E+04  0.27807771880E+04  0.00000000000E+00 0.  1.
        -11    1    3    3    0    0  0.13815158991E+03 -0.78882275649E+02  0.41017414056E+03  0.43994442921E+03  0.00000000000E+00 0. -1.
         22    1    1    2    0    0 -0.84938672374E+03  0.43048249667E+03 -0.56928191978E+03  0.11094389981E+04  0.00000000000E+00 0.  1.
<mgrwt>
<rscale>  0 0.35312657E+04</rscale>
<asrwt>0</asrwt>
<pdfrwt beam="1">  1        2 0.52586491E+00 0.35312657E+04</pdfrwt>
<pdfrwt beam="2">  1       -2 0.14031364E+00 0.35312657E+04</pdfrwt>
<totfact> 0.27076900E-01</totfact>
</mgrwt>
</event>
<event>
 6    1  0.1072514E-005  0.2019090E+04  0.7818608E-02  0.8597747E-01
          3   -1    0    0  501    0  0.00000000000E+00  0.00000000000E+00  0.19613991157E+04  0.19613991157E+04  0.00000000000E+00 0. -1.
         -3   -1    0    0    0  501 -0.00000000000E+00 -0.00000000000E+00 -0.51961924056E+03  0.51961924056E+03  0.00000000000E+00 0.  1.
         23    2    1    2    0    0 -0.79267660942E+03 -0.53451395879E+03  0.11129033958E+04  0.14699787340E+04  0.90786180668E+02 0.  0.
         13    1    3    3    0    0 -0.10913130659E+03 -0.38282397241E+02  0.13043695119E+03  0.17432435932E+03  0.00000000000E+00 0.  1.
        -13    1    3    3    0    0 -0.68354530284E+03 -0.49623156155E+03  0.98246644462E+03  0.12956543746E+04  0.00000000000E+00 0. -1.
         22    1    1    2    0    0  0.79267660942E+03  0.53451395879E+03  0.32887647935E+03  0.10110396223E+04  0.00000000000E+00 0.  1.
<mgrwt>
<rscale>  0 0.20190896E+04</rscale>
<asrwt>0</asrwt>
<pdfrwt beam="1">  1        3 0.30175371E+00 0.20190896E+04</pdfrwt>
<pdfrwt beam="2">  1       -3 0.79941423E-01 0.20190896E+04</pdfrwt>
<totfact> 0.13371286E-01</totfact>
</mgrwt>
</event>
<event>
 6    1  0.1072514E-005  0.7699173E+03  0.7818608E-02  0.9604611E-01
          2   -1    0    0  501    0  0.00000000000E+00  0.00000000000E+00  0.11724719930E+04  0.11724719930E+04  0.00000000000E+00 0. -1.
         -2   -1    0    0    0  501 -0.00000000000E+00 -0.00000000000E+00 -0.12639376221E+03  0.12639376221E+03  0.00000000000E+00 0.  1.
         23    2    1    2    0    0 -0.27836570762E+03  0.36644636779E+02  0.93296757893E+02  0.30557685883E+03  0.76437131236E+02 0.  0.
         13    1    3    3    0    0 -0.26551870905E+02 -0.80298379767E+01  0.32453125936E+02  0.42692921305E+02  0.00000000000E+00 0. -1.
        -13    1    3    3    0    0 -0.25181383672E+03  0.44674474756E+02  0.60843631957E+02  0.26288393752E+03  0.00000000000E+00 0.  1.
         22    1    1    2    0    0  0.27836570762E+03 -0.36644636779E+02  0.95278147288E+03  0.99328889637E+03  0.00000000000E+00 0. -1.
<mgrwt>
<rscale>  0 0.76991726E+03</rscale>
<asrwt>0</asrwt>
<pdfrwt beam="1">  1        2 0.18038030E+00 0.76991726E+03</pdfrwt>
<pdfrwt beam="2">  1       -2 0.19445195E-01 0.76991726E+03</pdfrwt>
<totfact> 0.44411735E+02</totfact>
</mgrwt>
</event>
<event>
 6    1  0.1072514E-005  0.2092415E+04  0.7818608E-02  0.8564592E-01
          1   -1    0    0  501    0  0.00000000000E+00  0.00000000000E+00  0.21978576505E+04  0.21978576505E+04  0.00000000000E+00 0. -1.
         -1   -1    0    0    0  501 -0.00000000000E+00 -0.00000000000E+00 -0.49800751076E+03  0.49800751076E+03  0.00000000000E+00 0.  1.
         23    2    1    2    0    0 -0.16324181514E+03  0.10157831421E+04  0.62227224120E+03  0.12060204011E+04  0.93803965110E+02 0.  0.
         13    1    3    3    0    0 -0.15330415908E+03  0.82690335555E+03  0.54221620395E+03  0.10006346668E+04  0.00000000000E+00 0.  1.
        -13    1    3    3    0    0 -0.99376560636E+01  0.18887978650E+03  0.80056037259E+02  0.20538573431E+03  0.00000000000E+00 0. -1.
         22    1    1    2    0    0  0.16324181514E+03 -0.10157831421E+04  0.10775778985E+04  0.14898447601E+04  0.00000000000E+00 0.  1.
<mgrwt>
<rscale>  0 0.20924145E+04</rscale>
<asrwt>0</asrwt>
<pdfrwt beam="1">  1        1 0.33813194E+00 0.20924145E+04</pdfrwt>
<pdfrwt beam="2">  1       -1 0.76616541E-01 0.20924145E+04</pdfrwt>
<totfact> 0.34388403E+00</totfact>
</mgrwt>
</event>
<event>
 6    1  0.1072514E-005  0.1719664E+04  0.7818608E-02  0.8750228E-01
         -2   -1    0    0    0  501 -0.00000000000E+00  0.00000000000E+00  0.55194026562E+03  0.55194026562E+03  0.00000000000E+00 0.  1.
          2   -1    0    0  501    0  0.00000000000E+00 -0.00000000000E+00 -0.13394768163E+04  0.13394768163E+04  0.00000000000E+00 0. -1.
         23    2    1    2    0    0 -0.61006986737E+02 -0.41294038129E+03  0.42868878404E+03  0.60555329608E+03  0.93161740562E+02 0.  0.
         11    1    3    3    0    0 -0.81284123864E+02 -0.23664562271E+03  0.25360814536E+03  0.35626584306E+03  0.00000000000E+00 0. -1.
        -11    1    3    3    0    0  0.20277137126E+02 -0.17629475858E+03  0.17508063868E+03  0.24928745302E+03  0.00000000000E+00 0.  1.
         22    1    1    2    0    0  0.61006986737E+02  0.41294038129E+03 -0.12162253347E+04  0.12858637858E+04  0.00000000000E+00 0. -1.
<mgrwt>
<rscale>  0 0.17196641E+04</rscale>
<asrwt>0</asrwt>
<pdfrwt beam="1">  1        2 0.20607335E+00 0.17196641E+04</pdfrwt>
<pdfrwt beam="2">  1       -2 0.84913888E-01 0.17196641E+04</pdfrwt>
<totfact> 0.17993237E+01</totfact>
</mgrwt>
</event>
<event>
 6    1  0.1072514E-005  0.3845783E+04  0.7818608E-02  0.8036401E-01
         -2   -1    0    0    0  501 -0.00000000000E+00  0.00000000000E+00  0.25318772799E+04  0.25318772799E+04  0.00000000000E+00 0.  1.
          2   -1    0    0  501    0  0.00000000000E+00 -0.00000000000E+00 -0.14603834805E+04  0.14603834805E+04  0.00000000000E+00 0. -1.
         23    2    1    2    0    0 -0.14658075169E+04 -0.54106366738E+03 -0.62528391362E+03  0.16856623610E+04  0.95582708535E+02 0.  0.
         13    1    3    3    0    0 -0.65824607501E+03 -0.28573722699E+03 -0.25917491557E+03  0.76295825247E+03  0.00000000000E+00 0. -1.
        -13    1    3    3    0    0 -0.80756144185E+03 -0.25532644039E+03 -0.36610899805E+03  0.92270410857E+03  0.00000000000E+00 0.  1.
         22    1    1    2    0    0  0.14658075169E+04  0.54106366738E+03  0.16967777130E+04  0.23065983994E+04  0.00000000000E+00 0.  1.
<mgrwt>
<rscale>  0 0.38457830E+04</rscale>
<asrwt>0</asrwt>
<pdfrwt beam="1">  1        2 0.22467438E+00 0.38457830E+04</pdfrwt>
<pdfrwt beam="2">  1       -2 0.38951958E+00 0.38457830E+04</pdfrwt>
<totfact> 0.92705976E-02</totfact>
</mgrwt>
</event>
<event>
 6    1  0.1072514E-005  0.1227023E+04  0.7818608E-02  0.9089527E-01
          1   -1    0    0  501    0  0.00000000000E+00  0.00000000000E+00  0.14205867454E+04  0.14205867454E+04  0.00000000000E+00 0. -1.
         -1   -1    0    0    0  501 -0.00000000000E+00 -0.00000000000E+00 -0.26495828803E+03  0.26495828803E+03  0.00000000000E+00 0.  1.
         23    2    1    2    0    0  0.35652447815E+03 -0.28766912968E+03  0.11346141372E+04  0.12269549841E+04  0.90587310884E+02 0.  0.
         11    1    3    3    0    0  0.10086602828E+03 -0.10166096380E+03  0.46303563427E+03  0.48467608341E+03  0.00000000000E+00 0.  1.
        -11    1    3    3    0    0  0.25565844987E+03 -0.18600816588E+03  0.67157850295E+03  0.74227890068E+03  0.00000000000E+00 0. -1.
         22    1    1    2    0    0 -0.35652447815E+03  0.28766912968E+03  0.21014320122E+02  0.45859004932E+03  0.00000000000E+00 0.  1.
<mgrwt>
<rscale>  0 0.12270228E+04</rscale>
<asrwt>0</asrwt>
<pdfrwt beam="1">  1        1 0.21855180E+00 0.12270228E+04</pdfrwt>
<pdfrwt beam="2">  1       -1 0.40762814E-01 0.12270228E+04</pdfrwt>
<totfact> 0.43174329E+01</totfact>
</mgrwt>
</event>
<event>
 6    1  0.1072514E-005  0.2247467E+04  0.7818608E-02  0.8498927E-01
          1   -1    0    0  501    0  0.00000000000E+00  0.00000000000E+00  0.10423912899E+04  0.10423912899E+04  0.00000000000E+00 0. -1.
         -1   -1    0    0    0  501 -0.00000000000E+00 -0.00000000000E+00 -0.12114229682E+04  0.12114229682E+04  0.00000000000E+00 0.  1.
         23    2    1    2    0    0 -0.32308406121E+03 -0.78342449758E+03 -0.82185390320E+03  0.11840880729E+04  0.92105765865E+02 0.  0.
         13    1    3    3    0    0 -0.14297943851E+03 -0.40815963474E+03 -0.47377678357E+03  0.64148409794E+03  0.00000000000E+00 0.  1.
        -13    1    3    3    0    0 -0.18010462270E+03 -0.37526486284E+03 -0.34807711964E+03  0.54260397494E+03  0.00000000000E+00 0. -1.
         22    1    1    2    0    0  0.32308406121E+03  0.78342449758E+03  0.65282222494E+03  0.10697261852E+04  0.00000000000E+00 0. -1.
<mgrwt>
<rscale>  0 0.22474668E+04</rscale>
<asrwt>0</asrwt>
<pdfrwt beam="1">  1        1 0.16036789E+00 0.22474668E+04</pdfrwt>
<pdfrwt beam="2">  1       -1 0.18637276E+00 0.22474668E+04</pdfrwt>
<totfact> 0.23870643E+00</totfact>
</mgrwt>
</event>
<event>
 6    1  0.1072514E-005  0.9534321E+03  0.7818608E-02  0.9361148E-01
          1   -1    0    0  501    0  0.00000000000E+00  0.00000000000E+00  0.65014687615E+03  0.65014687615E+03  0.00000000000E+00 0. -1.
         -1   -1    0    0    0  501 -0.00000000000E+00 -0.00000000000E+00 -0.34954898346E+03  0.34954898346E+03  0.00000000000E+00 0.  1.
         23    2    1    2    0    0  0.24511976442E+03 -0.35557693901E+03 -0.50332696588E+02  0.44321500913E+03  0.85950599212E+02 0.  0.
         11    1    3    3    0    0  0.64138980660E+02 -0.68559021731E+02  0.21657080035E+02  0.96349247099E+02  0.00000000000E+00 0.  1.
        -11    1    3    3    0    0  0.18098078376E+03 -0.28701791728E+03 -0.71989776623E+02  0.34686576203E+03  0.00000000000E+00 0. -1.
         22    1    1    2    0    0 -0.24511976442E+03  0.35557693901E+03  0.35093058927E+03  0.55648085048E+03  0.00000000000E+00 0. -1.
<mgrwt>
<rscale>  0 0.95343207E+03</rscale>
<asrwt>0</asrwt>
<pdfrwt beam="1">  1        1 0.10002260E+00 0.95343207E+03</pdfrwt>
<pdfrwt beam="2">  1       -1 0.53776767E-01 0.95343207E+03</pdfrwt>
<totfact> 0.10679759E+02</totfact>
</mgrwt>
</event>
<event>
 6    1  0.1072514E-005  0.2282261E+04  0.7818608E-02  0.8484948E-01
         -1   -1    0    0    0  501 -0.00000000000E+00  0.00000000000E+00  0.17219918116E+04  0.17219918116E+04  0.00000000000E+00 0.  1.
          1   -1    0    0  501    0  0.00000000000E+00 -0.00000000000E+00 -0.75620490431E+03  0.75620490431E+03  0.00000000000E+00 0. -1.
         23    2    1    2    0    0 -0.91620631770E+03 -0.17953413760E+03  0.11919427319E+04  0.15175651632E+04  0.10300497648E+03 0.  0.
         13    1    3    3    0    0 -0.29697940875E+03 -0.10774007039E+03  0.39941630194E+03  0.50925246611E+03  0.00000000000E+00 0.  1.
        -13    1    3    3    0    0 -0.61922690896E+03 -0.71794067209E+02  0.79252642998E+03  0.10083126971E+04  0.00000000000E+00 0. -1.
         22    1    1    2    0    0  0.91620631770E+03  0.17953413760E+03 -0.22615582459E+03  0.96063155276E+03  0.00000000000E+00 0. -1.
<mgrwt>
<rscale>  0 0.22822609E+04</rscale>
<asrwt>0</asrwt>
<pdfrwt beam="1">  1        1 0.11633922E+00 0.22822609E+04</pdfrwt>
<pdfrwt beam="2">  1       -1 0.26492182E+00 0.22822609E+04</pdfrwt>
<totfact> 0.12201311E+00</totfact>
</mgrwt>
</event>
<event>
 6    1  0.1072514E-005  0.2516604E+04  0.7818608E-02  0.8397094E-01
          1   -1    0    0  501    0  0.00000000000E+00  0.00000000000E+00  0.17625556288E+04  0.17625556288E+04  0.00000000000E+00 0. -1.
         -1   -1    0    0    0  501 -0.00000000000E+00 -0.00000000000E+00 -0.89831115205E+03  0.89831115205E+03  0.00000000000E+00 0.  1.
         23    2    1    2    0    0 -0.79804099185E+03  0.19489517875E+03 -0.57237777467E+03  0.10059537775E+04  0.97330006428E+02 0.  0.
         13    1    3    3    0    0 -0.11199752471E+03 -0.54237139445E+01 -0.66847179913E+02  0.13054274272E+03  0.00000000000E+00 0.  1.
        -13    1    3    3    0    0 -0.68604346713E+03  0.20031889270E+03 -0.50553059476E+03  0.87541103478E+03  0.00000000000E+00 0. -1.
         22    1    1    2    0    0  0.79804099185E+03 -0.19489517875E+03  0.14366222514E+04  0.16549130033E+04  0.00000000000E+00 0. -1.
<mgrwt>
<rscale>  0 0.25166036E+04</rscale>
<asrwt>0</asrwt>
<pdfrwt beam="1">  1        1 0.27116240E+00 0.25166036E+04</pdfrwt>
<pdfrwt beam="2">  1       -1 0.13820172E+00 0.25166036E+04</pdfrwt>
<totfact> 0.16615524E+00</totfact>
</mgrwt>
</event>
<event>
 6    1  0.1072514E-005  0.2244261E+04  0.7818608E-02  0.8500228E-01
          1   -1    0    0  501    0  0.00000000000E+00  0.00000000000E+00  0.99675584454E+03  0.99675584454E+03  0.00000000000E+00 0. -1.
         -1   -1    0    0    0  501 -0.00000000000E+00 -0.00000000000E+00 -0.12632749075E+04  0.12632749075E+04  0.00000000000E+00 0.  1.
         23    2    1    2    0    0 -0.65527918475E+03  0.12571905629E+03 -0.10400257598E+04  0.12385080155E+04  0.83978761051E+02 0.  0.
         13    1    3    3    0    0 -0.39869754351E+03  0.50164748382E+02 -0.56449619699E+03  0.69291571608E+03  0.00000000000E+00 0.  1.
        -13    1    3    3    0    0 -0.25658164125E+03  0.75554307907E+02 -0.47552956284E+03  0.54559229944E+03  0.00000000000E+00 0. -1.
         22    1    1    2    0    0  0.65527918475E+03 -0.12571905629E+03  0.77350669688E+03  0.10215227365E+04  0.00000000000E+00 0. -1.
<mgrwt>
<rscale>  0 0.22442608E+04</rscale>
<asrwt>0</asrwt>
<pdfrwt beam="1">  1        1 0.15334705E+00 0.22442608E+04</pdfrwt>
<pdfrwt beam="2">  1       -1 0.19434998E+00 0.22442608E+04</pdfrwt>
<totfact> 0.22770312E+00</totfact>
</mgrwt>
</event>
<event>
 6    1  0.1072514E-005  0.4855897E+04  0.7818608E-02  0.7851129E-01
         -2   -1    0    0    0  501 -0.00000000000E+00  0.00000000000E+00  0.18362590110E+04  0.18362590110E+04  0.00000000000E+00 0. -1.
          2   -1    0    0  501    0  0.00000000000E+00 -0.00000000000E+00 -0.32102954325E+04  0.32102954325E+04  0.00000000000E+00 0.  1.
         23    2    1    2    0    0 -0.14266093401E+03  0.61976239624E+03  0.17470228054E+04  0.18613592741E+04  0.90067166921E+02 0.  0.
         11    1    3    3    0    0 -0.73866775862E+02  0.19125200125E+03  0.65170952298E+03  0.68319757823E+03  0.00000000000E+00 0. -1.
        -11    1    3    3    0    0 -0.68794158145E+02  0.42851039499E+03  0.10953132824E+04  0.11781616958E+04  0.00000000000E+00 0.  1.
         22    1    1    2    0    0  0.14266093401E+03 -0.61976239624E+03 -0.31210592269E+04  0.31851951695E+04  0.00000000000E+00 0.  1.
<mgrwt>
<rscale>  0 0.48558970E+04</rscale>
<asrwt>0</asrwt>
<pdfrwt beam="1">  1        2 0.49389160E+00 0.48558970E+04</pdfrwt>
<pdfrwt beam="2">  1       -2 0.28250139E+00 0.48558970E+04</pdfrwt>
<totfact> 0.38190781E-02</totfact>
</mgrwt>
</event>
<event>
 6    1  0.1072514E-005  0.1957945E+04  0.7818608E-02  0.8626539E-01
          1   -1    0    0  501    0  0.00000000000E+00  0.00000000000E+00  0.19147629740E+04  0.19147629740E+04  0.00000000000E+00 0. -1.
         -1   -1    0    0    0  501 -0.00000000000E+00 -0.00000000000E+00 -0.50052508186E+03  0.50052508186E+03  0.00000000000E+00 0.  1.
         23    2    1    2    0    0 -0.11848643601E+03  0.95490112076E+03  0.50088646463E+03  0.10886057216E+04  0.91104229459E+02 0.  0.
         11    1    3    3    0    0  0.93372572603E+01  0.20142365901E+03  0.12092126440E+03  0.23511832546E+03  0.00000000000E+00 0. -1.
        -11    1    3    3    0    0 -0.12782369327E+03  0.75347746175E+03  0.37996520024E+03  0.85348739611E+03  0.00000000000E+00 0.  1.
         22    1    1    2    0    0  0.11848643601E+03 -0.95490112076E+03  0.91335142746E+03  0.13266823342E+04  0.00000000000E+00 0. -1.
<mgrwt>
<rscale>  0 0.19579447E+04</rscale>
<asrwt>0</asrwt>
<pdfrwt beam="1">  1        1 0.29457891E+00 0.19579447E+04</pdfrwt>
<pdfrwt beam="2">  1       -1 0.77003860E-01 0.19579447E+04</pdfrwt>
<totfact> 0.53610901E+00</totfact>
</mgrwt>
</event>
<event>
 6    1  0.1072514E-005  0.2224724E+04  0.7818608E-02  0.8508207E-01
          2   -1    0    0  501    0  0.00000000000E+00  0.00000000000E+00  0.31271680842E+04  0.31271680842E+04  0.00000000000E+00 0. -1.
         -2   -1    0    0    0  501 -0.00000000000E+00 -0.00000000000E+00 -0.39567717950E+03  0.39567717950E+03  0.00000000000E+00 0.  1.
         23    2    1    2    0    0  0.82629753711E+02  0.54195057247E+03  0.28972463986E+04  0.29501210867E+04  0.92949623472E+02 0.  0.
         11    1    3    3    0    0  0.35110146167E+02  0.42782511149E+03  0.21093897669E+04  0.21526244998E+04  0.00000000000E+00 0.  1.
        -11    1    3    3    0    0  0.47519607544E+02  0.11412546099E+03  0.78785663170E+03  0.79749658686E+03  0.00000000000E+00 0. -1.
         22    1    1    2    0    0 -0.82629753711E+02 -0.54195057247E+03 -0.16575549391E+03  0.57272417704E+03  0.00000000000E+00 0.  1.
<mgrwt>
<rscale>  0 0.22247238E+04</rscale>
<asrwt>0</asrwt>
<pdfrwt beam="1">  1        2 0.48110277E+00 0.22247238E+04</pdfrwt>
<pdfrwt beam="2">  1       -2 0.60873414E-01 0.22247238E+04</pdfrwt>
<totfact> 0.33174511E+00</totfact>
</mgrwt>
</event>
<event>
 6    1  0.1072514E-005  0.1762930E+04  0.7818608E-02  0.8726265E-01
          2   -1    0    0  501    0  0.00000000000E+00  0.00000000000E+00  0.28837764778E+04  0.28837764778E+04  0.00000000000E+00 0.  1.
         -2   -1    0    0    0  501 -0.00000000000E+00 -0.00000000000E+00 -0.26943148427E+03  0.26943148427E+03  0.00000000000E+00 0. -1.
         23    2    1    2    0    0 -0.61194852176E+03  0.54462597985E+03  0.18810842150E+04  0.20537672768E+04  0.91562830370E+02 0.  0.
         13    1    3    3    0    0 -0.38299434757E+03  0.37649535978E+03  0.13140144713E+04  0.14195307172E+04  0.00000000000E+00 0.  1.
        -13    1    3    3    0    0 -0.22895417420E+03  0.16813062007E+03  0.56706974375E+03  0.63423655962E+03  0.00000000000E+00 0. -1.
         22    1    1    2    0    0  0.61194852176E+03 -0.54462597985E+03  0.73326077853E+03  0.10994406853E+04  0.00000000000E+00 0. -1.
<mgrwt>
<rscale>  0 0.17629296E+04</rscale>
<asrwt>0</asrwt>
<pdfrwt beam="1">  1        2 0.44365790E+00 0.17629296E+04</pdfrwt>
<pdfrwt beam="2">  1       -2 0.41451000E-01 0.17629296E+04</pdfrwt>
<totfact> 0.10769489E+01</totfact>
</mgrwt>
</event>
<event>
 6    1  0.1072514E-005  0.2244947E+04  0.7818608E-02  0.8499950E-01
         -2   -1    0    0    0  501 -0.00000000000E+00  0.00000000000E+00  0.42390065300E+03  0.42390065300E+03  0.00000000000E+00 0.  1.
          2   -1    0    0  501    0  0.00000000000E+00 -0.00000000000E+00 -0.29722687864E+04  0.29722687864E+04  0.00000000000E+00 0. -1.
         23    2    1    2    0    0 -0.93305559717E+03  0.59870340843E+03 -0.15237604293E+04  0.18865802681E+04  0.91108416322E+02 0.  0.
         13    1    3    3    0    0 -0.23389065642E+03  0.14867305203E+03 -0.31652300978E+03  0.42070813075E+03  0.00000000000E+00 0. -1.
        -13    1    3    3    0    0 -0.69916494076E+03  0.45003035639E+03 -0.12072374195E+04  0.14658721374E+04  0.00000000000E+00 0.  1.
         22    1    1    2    0    0  0.93305559717E+03 -0.59870340843E+03 -0.10246077041E+04  0.15095891712E+04  0.00000000000E+00 0.  1.
<mgrwt>
<rscale>  0 0.22449469E+04</rscale>
<asrwt>0</asrwt>
<pdfrwt beam="1">  1        2 0.45727211E+00 0.22449469E+04</pdfrwt>
<pdfrwt beam="2">  1       -2 0.65215486E-01 0.22449469E+04</pdfrwt>
<totfact> 0.35806037E+00</totfact>
</mgrwt>
</event>
<event>
 6    1  0.1072514E-005  0.1046701E+04  0.7818608E-02  0.9258757E-01
         -1   -1    0    0    0  501 -0.00000000000E+00  0.00000000000E+00  0.21819316307E+03  0.21819316307E+03  0.00000000000E+00 0.  1.
          1   -1    0    0  501    0  0.00000000000E+00 -0.00000000000E+00 -0.12552905920E+04  0.12552905920E+04  0.00000000000E+00 0. -1.
         23    2    1    2    0    0  0.40036226281E+03  0.31848293307E+02 -0.98562766802E+03  0.10685721702E+04  0.95290753031E+02 0.  0.
         11    1    3    3    0    0  0.28807473887E+03  0.51243419368E+02 -0.61951742896E+03  0.68513851738E+03  0.00000000000E+00 0. -1.
        -11    1    3    3    0    0  0.11228752394E+03 -0.19395126061E+02 -0.36611023906E+03  0.38343365279E+03  0.00000000000E+00 0.  1.
         22    1    1    2    0    0 -0.40036226281E+03 -0.31848293307E+02 -0.51469760873E+02  0.40491158486E+03  0.00000000000E+00 0.  1.
<mgrwt>
<rscale>  0 0.10467012E+04</rscale>
<asrwt>0</asrwt>
<pdfrwt beam="1">  1        1 0.19312163E+00 0.10467012E+04</pdfrwt>
<pdfrwt beam="2">  1       -1 0.33568179E-01 0.10467012E+04</pdfrwt>
<totfact> 0.81368466E+01</totfact>
</mgrwt>
</event>
<event>
 6    1  0.1072514E-005  0.1573873E+04  0.7818608E-02  0.8836761E-01
          2   -1    0    0  501    0  0.00000000000E+00  0.00000000000E+00  0.22226847591E+04  0.22226847591E+04  0.00000000000E+00 0. -1.
         -2   -1    0    0    0  501 -0.00000000000E+00 -0.00000000000E+00 -0.27861313457E+03  0.27861313457E+03  0.00000000000E+00 0.  1.
         23    2    1    2    0    0  0.18622211913E+03 -0.37141264918E+03 -0.81904762641E+02  0.43315709697E+03  0.91052989429E+02 0.  0.
         13    1    3    3    0    0  0.83064720006E+02 -0.18969709331E+03 -0.85823012702E+02  0.22416584135E+03  0.00000000000E+00 0. -1.
        -13    1    3    3    0    0  0.10315739913E+03 -0.18171555587E+03  0.39182500605E+01  0.20899125561E+03  0.00000000000E+00 0.  1.
         22    1    1    2    0    0 -0.18622211913E+03  0.37141264918E+03  0.20259763871E+04  0.20681407967E+04  0.00000000000E+00 0. -1.
<mgrwt>
<rscale>  0 0.15738731E+04</rscale>
<asrwt>0</asrwt>
<pdfrwt beam="1">  1        2 0.34195149E+00 0.15738731E+04</pdfrwt>
<pdfrwt beam="2">  1       -2 0.42863561E-01 0.15738731E+04</pdfrwt>
<totfact> 0.24883127E+01</totfact>
</mgrwt>
</event>
<event>
 6    1  0.1072514E-005  0.5460999E+03  0.7818608E-02  0.1002401E+00
         -1   -1    0    0    0  501 -0.00000000000E+00  0.00000000000E+00  0.59871869199E+02  0.59871869199E+02  0.00000000000E+00 0.  1.
          1   -1    0    0  501    0  0.00000000000E+00 -0.00000000000E+00 -0.12452638243E+04  0.12452638243E+04  0.00000000000E+00 0. -1.
         23    2    1    2    0    0  0.36521250584E+02  0.21233575103E+03 -0.97899058957E+03  0.10067704867E+04  0.93509173860E+02 0.  0.
         11    1    3    3    0    0  0.55031415622E+02  0.12740714379E+03 -0.45755842759E+03  0.47814302426E+03  0.00000000000E+00 0. -1.
        -11    1    3    3    0    0 -0.18510165037E+02  0.84928607245E+02 -0.52143216198E+03  0.52862746248E+03  0.00000000000E+00 0.  1.
         22    1    1    2    0    0 -0.36521250584E+02 -0.21233575103E+03 -0.20640136554E+03  0.29836520676E+03  0.00000000000E+00 0.  1.
<mgrwt>
<rscale>  0 0.54609989E+03</rscale>
<asrwt>0</asrwt>
<pdfrwt beam="1">  1        1 0.19157904E+00 0.54609989E+03</pdfrwt>
<pdfrwt beam="2">  1       -1 0.92110574E-02 0.54609989E+03</pdfrwt>
<totfact> 0.72671781E+02</totfact>
</mgrwt>
</event>
<event>
 6    1  0.1072514E-005  0.2884974E+04  0.7818608E-02  0.8277362E-01
          2   -1    0    0  501    0  0.00000000000E+00  0.00000000000E+00  0.18888386953E+04  0.18888386953E+04  0.00000000000E+00 0. -1.
         -2   -1    0    0    0  501 -0.00000000000E+00 -0.00000000000E+00 -0.11016124663E+04  0.11016124663E+04  0.00000000000E+00 0.  1.
         23    2    1    2    0    0  0.10920480779E+04  0.11367014879E+03  0.13614717797E+04  0.17513999683E+04  0.91140193966E+02 0.  0.
         11    1    3    3    0    0  0.37998559657E+03  0.27360118100E+02  0.53982997728E+03  0.66072235776E+03  0.00000000000E+00 0. -1.
        -11    1    3    3    0    0  0.71206248137E+03  0.86310030690E+02  0.82164180238E+03  0.10906776106E+04  0.00000000000E+00 0.  1.
         22    1    1    2    0    0 -0.10920480779E+04 -0.11367014879E+03 -0.57424555062E+03  0.12390511933E+04  0.00000000000E+00 0.  1.
<mgrwt>
<rscale>  0 0.28849737E+04</rscale>
<asrwt>0</asrwt>
<pdfrwt beam="1">  1        2 0.29059057E+00 0.28849737E+04</pdfrwt>
<pdfrwt beam="2">  1       -2 0.16947884E+00 0.28849737E+04</pdfrwt>
<totfact> 0.14309709E+00</totfact>
</mgrwt>
</event>
<event>
 6    1  0.1072514E-005  0.1405770E+04  0.7818608E-02  0.8949652E-01
         -2   -1    0    0    0  501 -0.00000000000E+00  0.00000000000E+00  0.93636407489E+03  0.93636407489E+03  0.00000000000E+00 0.  1.
          2   -1    0    0  501    0  0.00000000000E+00 -0.00000000000E+00 -0.52762340711E+03  0.52762340711E+03  0.00000000000E+00 0. -1.
         23    2    1    2    0    0 -0.11932485187E+03 -0.94487479706E+02 -0.50711558273E+03  0.53557002434E+03  0.80639522794E+02 0.  0.
         11    1    3    3    0    0 -0.18732272286E+02 -0.35431918627E+02 -0.51490018849E+02  0.65249834664E+02  0.00000000000E+00 0.  1.
        -11    1    3    3    0    0 -0.10059257959E+03 -0.59055561079E+02 -0.45562556388E+03  0.47032018968E+03  0.00000000000E+00 0. -1.
         22    1    1    2    0    0  0.11932485187E+03  0.94487479706E+02  0.91585625050E+03  0.92841745765E+03  0.00000000000E+00 0.  1.
<mgrwt>
<rscale>  0 0.14057704E+04</rscale>
<asrwt>0</asrwt>
<pdfrwt beam="1">  1        2 0.81172832E-01 0.14057704E+04</pdfrwt>
<pdfrwt beam="2">  1       -2 0.14405601E+00 0.14057704E+04</pdfrwt>
<totfact> 0.18738051E+01</totfact>
</mgrwt>
</event>
<event>
 6    1  0.1072514E-005  0.2361721E+04  0.7818608E-02  0.8453975E-01
         -2   -1    0    0    0  501 -0.00000000000E+00  0.00000000000E+00  0.63914681391E+03  0.63914681391E+03  0.00000000000E+00 0.  1.
          2   -1    0    0  501    0  0.00000000000E+00 -0.00000000000E+00 -0.21817072542E+04  0.21817072542E+04  0.00000000000E+00 0. -1.
         23    2    1    2    0    0 -0.53802461838E+03 -0.94769446041E+03 -0.13103216875E+04  0.17066143638E+04  0.89411307867E+02 0.  0.
         11    1    3    3    0    0 -0.90425432568E+02 -0.23465973351E+03 -0.29331499604E+03  0.38636205338E+03  0.00000000000E+00 0.  1.
        -11    1    3    3    0    0 -0.44759918581E+03 -0.71303472690E+03 -0.10170066914E+04  0.13202523105E+04  0.00000000000E+00 0. -1.
         22    1    1    2    0    0  0.53802461838E+03  0.94769446041E+03 -0.23223875285E+03  0.11142397043E+04  0.00000000000E+00 0. -1.
<mgrwt>
<rscale>  0 0.23617208E+04</rscale>
<asrwt>0</asrwt>
<pdfrwt beam="1">  1        2 0.33564727E+00 0.23617208E+04</pdfrwt>
<pdfrwt beam="2">  1       -2 0.98330280E-01 0.23617208E+04</pdfrwt>
<totfact> 0.40993369E+00</totfact>
</mgrwt>
</event>
<event>
 6    1  0.1072514E-005  0.2665596E+04  0.7818608E-02  0.8346255E-01
         -1   -1    0    0    0  501 -0.00000000000E+00  0.00000000000E+00  0.72734453419E+03  0.72734453419E+03  0.00000000000E+00 0.  1.
          1   -1    0    0  501    0  0.00000000000E+00 -0.00000000000E+00 -0.24422416617E+04  0.24422416617E+04  0.00000000000E+00 0. -1.
         23    2    1    2    0    0  0.11020553179E+04 -0.13926015078E+03  0.13835023212E+02  0.11147299571E+04  0.92261346962E+02 0.  0.
         11    1    3    3    0    0  0.24668551432E+03  0.43170119746E+01 -0.11926304619E+02  0.24701136878E+03  0.00000000000E+00 0. -1.
        -11    1    3    3    0    0  0.85536980354E+03 -0.14357716276E+03  0.25761327831E+02  0.86771858830E+03  0.00000000000E+00 0.  1.
         22    1    1    2    0    0 -0.11020553179E+04  0.13926015078E+03 -0.17287321508E+04  0.20548562388E+04  0.00000000000E+00 0. -1.
<mgrwt>
<rscale>  0 0.26655965E+04</rscale>
<asrwt>0</asrwt>
<pdfrwt beam="1">  1        1 0.37572949E+00 0.26655965E+04</pdfrwt>
<pdfrwt beam="2">  1       -1 0.11189916E+00 0.26655965E+04</pdfrwt>
<totfact> 0.95290585E-01</totfact>
</mgrwt>
</event>
<event>
 6    1  0.1072514E-005  0.1585234E+04  0.7818608E-02  0.8829671E-01
          1   -1    0    0  501    0  0.00000000000E+00  0.00000000000E+00  0.11766158057E+04  0.11766158057E+04  0.00000000000E+00 0. -1.
         -1   -1    0    0    0  501 -0.00000000000E+00 -0.00000000000E+00 -0.53393936089E+03  0.53393936089E+03  0.00000000000E+00 0.  1.
         23    2    1    2    0    0  0.65726170454E+03  0.19392379752E+03  0.74653451560E+03  0.10174564100E+04  0.91128347816E+02 0.  0.
         11    1    3    3    0    0  0.65476397612E+02 -0.81093018057E+01  0.72646101059E+02  0.98134476200E+02  0.00000000000E+00 0. -1.
        -11    1    3    3    0    0  0.59178530693E+03  0.20203309933E+03  0.67388841454E+03  0.91932193381E+03  0.00000000000E+00 0.  1.
         22    1    1    2    0    0 -0.65726170454E+03 -0.19392379752E+03 -0.10385807080E+03  0.69309875658E+03  0.00000000000E+00 0.  1.
<mgrwt>
<rscale>  0 0.15852337E+04</rscale>
<asrwt>0</asrwt>
<pdfrwt beam="1">  1        1 0.18101782E+00 0.15852337E+04</pdfrwt>
<pdfrwt beam="2">  1       -1 0.82144517E-01 0.15852337E+04</pdfrwt>
<totfact> 0.15743742E+01</totfact>
</mgrwt>
</event>
<event>
 6    1  0.1072514E-005  0.1964187E+04  0.7818608E-02  0.8623550E-01
         -2   -1    0    0    0  501 -0.00000000000E+00  0.00000000000E+00  0.70057289124E+03  0.70057289124E+03  0.00000000000E+00 0. -1.
          2   -1    0    0  501    0  0.00000000000E+00 -0.00000000000E+00 -0.13767406809E+04  0.13767406809E+04  0.00000000000E+00 0.  1.
         23    2    1    2    0    0 -0.47884151882E+03 -0.18553642537E+03 -0.12216888690E+04  0.13281098527E+04  0.87402076785E+02 0.  0.
         13    1    3    3    0    0 -0.29805166489E+03 -0.12500270289E+03 -0.65882574132E+03  0.73383365152E+03  0.00000000000E+00 0. -1.
        -13    1    3    3    0    0 -0.18078985393E+03 -0.60533722485E+02 -0.56286312765E+03  0.59427620120E+03  0.00000000000E+00 0.  1.
         22    1    1    2    0    0  0.47884151882E+03  0.18553642537E+03  0.54552107929E+03  0.74920371945E+03  0.00000000000E+00 0. -1.
<mgrwt>
<rscale>  0 0.19641865E+04</rscale>
<asrwt>0</asrwt>
<pdfrwt beam="1">  1        2 0.21180626E+00 0.19641865E+04</pdfrwt>
<pdfrwt beam="2">  1       -2 0.10778045E+00 0.19641865E+04</pdfrwt>
<totfact> 0.95986032E+00</totfact>
</mgrwt>
</event>
<event>
 6    1  0.1072514E-005  0.1454547E+04  0.7818608E-02  0.8915254E-01
         -1   -1    0    0    0  501 -0.00000000000E+00  0.00000000000E+00  0.12572323326E+04  0.12572323326E+04  0.00000000000E+00 0.  1.
          1   -1    0    0  501    0  0.00000000000E+00 -0.00000000000E+00 -0.42070710472E+03  0.42070710472E+03  0.00000000000E+00 0. -1.
         23    2    1    2    0    0  0.17472926632E+03  0.19722679264E+03 -0.35857813908E+03  0.45413357773E+03  0.90721002792E+02 0.  0.
         13    1    3    3    0    0  0.14944887092E+03  0.20090145197E+03 -0.30377934045E+03  0.39367276526E+03  0.00000000000E+00 0. -1.
        -13    1    3    3    0    0  0.25280395397E+02 -0.36746593283E+01 -0.54798798634E+02  0.60460812468E+02  0.00000000000E+00 0.  1.
         22    1    1    2    0    0 -0.17472926632E+03 -0.19722679264E+03  0.11951033670E+04  0.12238058596E+04  0.00000000000E+00 0.  1.
<mgrwt>
<rscale>  0 0.14545468E+04</rscale>
<asrwt>0</asrwt>
<pdfrwt beam="1">  1        1 0.64724170E-01 0.14545468E+04</pdfrwt>
<pdfrwt beam="2">  1       -1 0.19342036E+00 0.14545468E+04</pdfrwt>
<totfact> 0.91019968E+00</totfact>
</mgrwt>
</event>
<event>
 6    1  0.1072514E-005  0.1918012E+04  0.7818608E-02  0.8645942E-01
         -2   -1    0    0    0  501 -0.00000000000E+00  0.00000000000E+00  0.67340150949E+03  0.67340150949E+03  0.00000000000E+00 0.  1.
          2   -1    0    0  501    0  0.00000000000E+00 -0.00000000000E+00 -0.13657415301E+04  0.13657415301E+04  0.00000000000E+00 0. -1.
         23    2    1    2    0    0 -0.60033672419E+03 -0.60034356479E+03  0.12258533800E+03  0.86231683395E+03  0.88014651230E+02 0.  0.
         11    1    3    3    0    0 -0.54402904068E+03 -0.51796254677E+03  0.12967980918E+03  0.76227924665E+03  0.00000000000E+00 0.  1.
        -11    1    3    3    0    0 -0.56307683502E+02 -0.82381018026E+02 -0.70944711828E+01  0.10003758730E+03  0.00000000000E+00 0. -1.
         22    1    1    2    0    0  0.60033672419E+03  0.60034356479E+03 -0.81492535865E+03  0.11768262057E+04  0.00000000000E+00 0. -1.
<mgrwt>
<rscale>  0 0.19180119E+04</rscale>
<asrwt>0</asrwt>
<pdfrwt beam="1">  1        2 0.21011408E+00 0.19180119E+04</pdfrwt>
<pdfrwt beam="2">  1       -2 0.10360023E+00 0.19180119E+04</pdfrwt>
<totfact> 0.10751681E+01</totfact>
</mgrwt>
</event>
<event>
 6    1  0.1072514E-005  0.2646233E+04  0.7818608E-02  0.8352664E-01
          2   -1    0    0  501    0  0.00000000000E+00  0.00000000000E+00  0.24596817110E+04  0.24596817110E+04  0.00000000000E+00 0. -1.
         -2   -1    0    0    0  501 -0.00000000000E+00 -0.00000000000E+00 -0.71173342411E+03  0.71173342411E+03  0.00000000000E+00 0.  1.
         23    2    1    2    0    0 -0.10691457549E+04 -0.77147191866E+03  0.98391472106E+03  0.16476077797E+04  0.91003576565E+02 0.  0.
         13    1    3    3    0    0 -0.36050910957E+03 -0.22799274433E+03  0.27660312050E+03  0.50838646306E+03  0.00000000000E+00 0.  1.
        -13    1    3    3    0    0 -0.70863664538E+03 -0.54347917432E+03  0.70731160057E+03  0.11392213167E+04  0.00000000000E+00 0. -1.
         22    1    1    2    0    0  0.10691457549E+04  0.77147191866E+03  0.76403356583E+03  0.15238073554E+04  0.00000000000E+00 0.  1.
<mgrwt>
<rscale>  0 0.26462333E+04</rscale>
<asrwt>0</asrwt>
<pdfrwt beam="1">  1        2 0.37841257E+00 0.26462333E+04</pdfrwt>
<pdfrwt beam="2">  1       -2 0.10949745E+00 0.26462333E+04</pdfrwt>
<totfact> 0.21499136E+00</totfact>
</mgrwt>
</event>
<event>
 6    1  0.1072514E-005  0.3480401E+03  0.7818608E-02  0.1063422E+00
         -2   -1    0    0    0  501 -0.00000000000E+00  0.00000000000E+00  0.10773417883E+03  0.10773417883E+03  0.00000000000E+00 0.  1.
          2   -1    0    0  501    0  0.00000000000E+00 -0.00000000000E+00 -0.28108979083E+03  0.28108979083E+03  0.00000000000E+00 0. -1.
         23    2    1    2    0    0  0.13697840723E+03 -0.84107895808E+02 -0.12262117251E+03  0.22026773116E+03  0.87433970849E+02 0.  0.
         11    1    3    3    0    0  0.12158288973E+03 -0.57463935742E+02 -0.53727775841E+02  0.14481428411E+03  0.00000000000E+00 0. -1.
        -11    1    3    3    0    0  0.15395517504E+02 -0.26643960067E+02 -0.68893396670E+02  0.75453447052E+02  0.00000000000E+00 0.  1.
         22    1    1    2    0    0 -0.13697840723E+03  0.84107895808E+02 -0.50734439492E+02  0.16855623850E+03  0.00000000000E+00 0.  1.
<mgrwt>
<rscale>  0 0.34804010E+03</rscale>
<asrwt>0</asrwt>
<pdfrwt beam="1">  1        2 0.43244583E-01 0.34804010E+03</pdfrwt>
<pdfrwt beam="2">  1       -2 0.16574489E-01 0.34804010E+03</pdfrwt>
<totfact> 0.34103293E+03</totfact>
</mgrwt>
</event>
<event>
 6    1  0.1072514E-005  0.3526577E+04  0.7818608E-02  0.8107520E-01
         -2   -1    0    0    0  501 -0.00000000000E+00  0.00000000000E+00  0.11905388289E+04  0.11905388289E+04  0.00000000000E+00 0.  1.
          2   -1    0    0  501    0  0.00000000000E+00 -0.00000000000E+00 -0.26115788351E+04  0.26115788351E+04  0.00000000000E+00 0. -1.
         23    2    1    2    0    0 -0.71394619973E+03  0.72528970544E+03 -0.22618975720E+04  0.24819639688E+04  0.90554862252E+02 0.  0.
         13    1    3    3    0    0 -0.40322013276E+03  0.40876096778E+03 -0.13840284731E+04  0.14984014211E+04  0.00000000000E+00 0. -1.
        -13    1    3    3    0    0 -0.31072606697E+03  0.31652873766E+03 -0.87786909890E+03  0.98356254772E+03  0.00000000000E+00 0.  1.
         22    1    1    2    0    0  0.71394619973E+03 -0.72528970544E+03  0.84085756588E+03  0.13201536952E+04  0.00000000000E+00 0.  1.
<mgrwt>
<rscale>  0 0.35265768E+04</rscale>
<asrwt>0</asrwt>
<pdfrwt beam="1">  1        2 0.40178135E+00 0.35265768E+04</pdfrwt>
<pdfrwt beam="2">  1       -2 0.18315982E+00 0.35265768E+04</pdfrwt>
<totfact> 0.42357693E-01</totfact>
</mgrwt>
</event>
<event>
 6    1  0.1072514E-005  0.6580989E+04  0.7818608E-02  0.7622263E-01
         -1   -1    0    0    0  501 -0.00000000000E+00  0.00000000000E+00  0.22961176146E+04  0.22961176146E+04  0.00000000000E+00 0. -1.
          1   -1    0    0  501    0  0.00000000000E+00 -0.00000000000E+00 -0.47155051472E+04  0.47155051472E+04  0.00000000000E+00 0.  1.
         23    2    1    2    0    0  0.16178659010E+04 -0.14543308207E+04  0.14194838719E+04  0.25991969132E+04  0.91224564892E+02 0.  0.
         13    1    3    3    0    0  0.70993860333E+03 -0.63554145893E+03  0.56791187537E+03  0.11092563566E+04  0.00000000000E+00 0. -1.
        -13    1    3    3    0    0  0.90792729767E+03 -0.81878936177E+03  0.85157199656E+03  0.14899405566E+04  0.00000000000E+00 0.  1.
         22    1    1    2    0    0 -0.16178659010E+04  0.14543308207E+04 -0.38388714045E+04  0.44124258487E+04  0.00000000000E+00 0.  1.
<mgrwt>
<rscale>  0 0.65809891E+04</rscale>
<asrwt>0</asrwt>
<pdfrwt beam="1">  1        1 0.72546232E+00 0.65809891E+04</pdfrwt>
<pdfrwt beam="2">  1       -1 0.35324887E+00 0.65809891E+04</pdfrwt>
<totfact> 0.17664901E-04</totfact>
</mgrwt>
</event>
<event>
 6    1  0.1072514E-005  0.2328258E+04  0.7818608E-02  0.8466862E-01
         -2   -1    0    0    0  501 -0.00000000000E+00  0.00000000000E+00  0.30031577701E+04  0.30031577701E+04  0.00000000000E+00 0.  1.
          2   -1    0    0  501    0  0.00000000000E+00 -0.00000000000E+00 -0.45125724628E+03  0.45125724628E+03  0.00000000000E+00 0. -1.
         23    2    1    2    0    0 -0.44767244608E+03  0.98489497895E+03  0.19084966101E+04  0.21956865569E+04  0.90837255135E+02 0.  0.
         13    1    3    3    0    0 -0.22129896575E+03  0.50189427424E+03  0.87649250294E+03  0.10339778540E+04  0.00000000000E+00 0.  1.
        -13    1    3    3    0    0 -0.22637348033E+03  0.48300070472E+03  0.10320041071E+04  0.11617087029E+04  0.00000000000E+00 0. -1.
         22    1    1    2    0    0  0.44767244608E+03 -0.98489497895E+03  0.64340391380E+03  0.12587284595E+04  0.00000000000E+00 0. -1.
<mgrwt>
<rscale>  0 0.23282583E+04</rscale>
<asrwt>0</asrwt>
<pdfrwt beam="1">  1        2 0.69424194E-01 0.23282583E+04</pdfrwt>
<pdfrwt beam="2">  1       -2 0.46202426E+00 0.23282583E+04</pdfrwt>
<totfact> 0.18115874E-01</totfact>
</mgrwt>
</event>
<event>
 6    1  0.1072514E-005  0.4281749E+04  0.7818608E-02  0.7950001E-01
          2   -1    0    0  501    0  0.00000000000E+00  0.00000000000E+00  0.22123677457E+04  0.22123677457E+04  0.00000000000E+00 0. -1.
         -2   -1    0    0    0  501 -0.00000000000E+00 -0.00000000000E+00 -0.20716919824E+04  0.20716919824E+04  0.00000000000E+00 0.  1.
         23    2    1    2    0    0 -0.18225266263E+04 -0.45453068718E+03 -0.95477084474E+03  0.21096161855E+04  0.10340036281E+03 0.  0.
         11    1    3    3    0    0 -0.15415377036E+04 -0.36428773954E+03 -0.84016474281E+03  0.17930200344E+04  0.00000000000E+00 0.  1.
        -11    1    3    3    0    0 -0.28098892268E+03 -0.90242947648E+02 -0.11460610193E+03  0.31659615106E+03  0.00000000000E+00 0. -1.
         22    1    1    2    0    0  0.18225266263E+04  0.45453068718E+03  0.10954466080E+04  0.21744435426E+04  0.00000000000E+00 0. -1.
<mgrwt>
<rscale>  0 0.42817494E+04</rscale>
<asrwt>0</asrwt>
<pdfrwt beam="1">  1        2 0.34036427E+00 0.42817494E+04</pdfrwt>
<pdfrwt beam="2">  1       -2 0.31872184E+00 0.42817494E+04</pdfrwt>
<totfact> 0.95553549E-02</totfact>
</mgrwt>
</event>
<event>
 6    1  0.1072514E-005  0.3036036E+04  0.7818608E-02  0.8233515E-01
         -2   -1    0    0    0  501 -0.00000000000E+00  0.00000000000E+00  0.81302608282E+03  0.81302608282E+03  0.00000000000E+00 0.  1.
          2   -1    0    0  501    0  0.00000000000E+00 -0.00000000000E+00 -0.28343236199E+04  0.28343236199E+04  0.00000000000E+00 0. -1.
         23    2    1    2    0    0  0.83565064855E+03  0.47728337610E+03 -0.24198478521E+04  0.26057385559E+04  0.89990927565E+02 0.  0.
         13    1    3    3    0    0  0.70463171904E+03  0.36400469091E+03 -0.20083321688E+04  0.21592599137E+04  0.00000000000E+00 0.  1.
        -13    1    3    3    0    0  0.13101892950E+03  0.11327868519E+03 -0.41151568323E+03  0.44647864221E+03  0.00000000000E+00 0. -1.
         22    1    1    2    0    0 -0.83565064855E+03 -0.47728337610E+03  0.39855031503E+03  0.10416111468E+04  0.00000000000E+00 0.  1.
<mgrwt>
<rscale>  0 0.30360363E+04</rscale>
<asrwt>0</asrwt>
<pdfrwt beam="1">  1        2 0.43604979E+00 0.30360363E+04</pdfrwt>
<pdfrwt beam="2">  1       -2 0.12508093E+00 0.30360363E+04</pdfrwt>
<totfact> 0.90005935E-01</totfact>
</mgrwt>
</event>
<event>
 6    1  0.1072514E-005  0.3327476E+04  0.7818608E-02  0.8155939E-01
          2   -1    0    0  501    0  0.00000000000E+00  0.00000000000E+00  0.15433161063E+04  0.15433161063E+04  0.00000000000E+00 0. -1.
         -2   -1    0    0    0  501 -0.00000000000E+00 -0.00000000000E+00 -0.17935562899E+04  0.17935562899E+04  0.00000000000E+00 0.  1.
         23    2    1    2    0    0  0.59642313588E+03 -0.13926508230E+04  0.56123754948E+03  0.16182412599E+04  0.92305559883E+02 0.  0.
         13    1    3    3    0    0  0.40040509305E+03 -0.89772865797E+03  0.40811409792E+03  0.10643298825E+04  0.00000000000E+00 0. -1.
        -13    1    3    3    0    0  0.19601804283E+03 -0.49492216502E+03  0.15312345156E+03  0.55391137735E+03  0.00000000000E+00 0.  1.
         22    1    1    2    0    0 -0.59642313588E+03  0.13926508230E+04 -0.81147773304E+03  0.17186311364E+04  0.00000000000E+00 0. -1.
<mgrwt>
<rscale>  0 0.33274761E+04</rscale>
<asrwt>0</asrwt>
<pdfrwt beam="1">  1        2 0.23743325E+00 0.33274761E+04</pdfrwt>
<pdfrwt beam="2">  1       -2 0.27593174E+00 0.33274761E+04</pdfrwt>
<totfact> 0.44587064E-01</totfact>
</mgrwt>
</event>
<event>
 6    1  0.1072514E-005  0.1917253E+04  0.7818608E-02  0.8646316E-01
          1   -1    0    0  501    0  0.00000000000E+00  0.00000000000E+00  0.98617902269E+03  0.98617902269E+03  0.00000000000E+00 0. -1.
         -1   -1    0    0    0  501 -0.00000000000E+00 -0.00000000000E+00 -0.93184345458E+03  0.93184345458E+03  0.00000000000E+00 0.  1.
         23    2    1    2    0    0  0.55171088733E+03 -0.55752410001E+03 -0.51989582435E+03  0.94593209188E+03  0.96321487569E+02 0.  0.
         11    1    3    3    0    0  0.39238421994E+03 -0.44920145850E+03 -0.37072299144E+03  0.70226979342E+03  0.00000000000E+00 0. -1.
        -11    1    3    3    0    0  0.15932666740E+03 -0.10832264151E+03 -0.14917283292E+03  0.24366229845E+03  0.00000000000E+00 0.  1.
         22    1    1    2    0    0 -0.55171088733E+03  0.55752410001E+03  0.57423139246E+03  0.97209038540E+03  0.00000000000E+00 0. -1.
<mgrwt>
<rscale>  0 0.19172527E+04</rscale>
<asrwt>0</asrwt>
<pdfrwt beam="1">  1        1 0.15171985E+00 0.19172527E+04</pdfrwt>
<pdfrwt beam="2">  1       -1 0.14336053E+00 0.19172527E+04</pdfrwt>
<totfact> 0.57079718E+00</totfact>
</mgrwt>
</event>
<event>
 6    1  0.1072514E-005  0.2732407E+04  0.7818608E-02  0.8324566E-01
          1   -1    0    0  501    0  0.00000000000E+00  0.00000000000E+00  0.10547435829E+04  0.10547435829E+04  0.00000000000E+00 0. -1.
         -1   -1    0    0    0  501 -0.00000000000E+00 -0.00000000000E+00 -0.17696354715E+04  0.17696354715E+04  0.00000000000E+00 0.  1.
         23    2    1    2    0    0 -0.96385762008E+03 -0.90793349010E+03 -0.69915601377E+03  0.15001387620E+04  0.90732791692E+02 0.  0.
         13    1    3    3    0    0 -0.39952374218E+03 -0.43803215963E+03 -0.31713859641E+03  0.67236023289E+03  0.00000000000E+00 0. -1.
        -13    1    3    3    0    0 -0.56433387791E+03 -0.46990133047E+03 -0.38201741736E+03  0.82777852913E+03  0.00000000000E+00 0.  1.
         22    1    1    2    0    0  0.96385762008E+03  0.90793349010E+03 -0.15735874808E+02  0.13242402924E+04  0.00000000000E+00 0. -1.
<mgrwt>
<rscale>  0 0.27324067E+04</rscale>
<asrwt>0</asrwt>
<pdfrwt beam="1">  1        1 0.16226824E+00 0.27324067E+04</pdfrwt>
<pdfrwt beam="2">  1       -1 0.27225161E+00 0.27324067E+04</pdfrwt>
<totfact> 0.59698400E-01</totfact>
</mgrwt>
</event>
<event>
 6    1  0.1072514E-005  0.1398608E+04  0.7818608E-02  0.8954827E-01
         -1   -1    0    0    0  501 -0.00000000000E+00  0.00000000000E+00  0.34078160634E+03  0.34078160634E+03  0.00000000000E+00 0.  1.
          1   -1    0    0  501    0  0.00000000000E+00 -0.00000000000E+00 -0.14350127697E+04  0.14350127697E+04  0.00000000000E+00 0. -1.
         23    2    1    2    0    0 -0.10180564988E+03 -0.89617968953E+02 -0.14166407989E+04  0.14260176705E+04  0.90881641714E+02 0.  0.
         13    1    3    3    0    0 -0.52347021339E+02 -0.64041276841E+02 -0.43468639214E+03  0.44248588146E+03  0.00000000000E+00 0. -1.
        -13    1    3    3    0    0 -0.49458628538E+02 -0.25576692112E+02 -0.98195440673E+03  0.98353178902E+03  0.00000000000E+00 0.  1.
         22    1    1    2    0    0  0.10180564988E+03  0.89617968953E+02  0.32240963549E+03  0.34977670557E+03  0.00000000000E+00 0.  1.
<mgrwt>
<rscale>  0 0.13986078E+04</rscale>
<asrwt>0</asrwt>
<pdfrwt beam="1">  1        1 0.22077119E+00 0.13986078E+04</pdfrwt>
<pdfrwt beam="2">  1       -1 0.52427940E-01 0.13986078E+04</pdfrwt>
<totfact> 0.25948623E+01</totfact>
</mgrwt>
</event>
<event>
 6    1  0.1072514E-005  0.2296519E+04  0.7818608E-02  0.8479295E-01
         -1   -1    0    0    0  501 -0.00000000000E+00  0.00000000000E+00  0.67343035617E+03  0.67343035617E+03  0.00000000000E+00 0.  1.
          1   -1    0    0  501    0  0.00000000000E+00 -0.00000000000E+00 -0.19578858067E+04  0.19578858067E+04  0.00000000000E+00 0. -1.
         23    2    1    2    0    0 -0.22034418678E+03  0.66992990515E+03  0.39240264507E+03  0.81219255210E+03  0.91210017946E+02 0.  0.
         11    1    3    3    0    0 -0.12141340316E+03  0.49943486690E+03  0.28171620028E+03  0.58612321080E+03  0.00000000000E+00 0.  1.
        -11    1    3    3    0    0 -0.98930783620E+02  0.17049503824E+03  0.11068644479E+03  0.22606934130E+03  0.00000000000E+00 0. -1.
         22    1    1    2    0    0  0.22034418678E+03 -0.66992990515E+03 -0.16768580956E+04  0.18191236108E+04  0.00000000000E+00 0. -1.
<mgrwt>
<rscale>  0 0.22965189E+04</rscale>
<asrwt>0</asrwt>
<pdfrwt beam="1">  1        1 0.30121319E+00 0.22965189E+04</pdfrwt>
<pdfrwt beam="2">  1       -1 0.10360467E+00 0.22965189E+04</pdfrwt>
<totfact> 0.25270072E+00</totfact>
</mgrwt>
</event>
<event>
 6    1  0.1072514E-005  0.1716753E+04  0.7818608E-02  0.8751867E-01
          1   -1    0    0  501    0  0.00000000000E+00  0.00000000000E+00  0.18235419870E+04  0.18235419870E+04  0.00000000000E+00 0. -1.
         -1   -1    0    0    0  501 -0.00000000000E+00 -0.00000000000E+00 -0.40405462829E+03  0.40405462829E+03  0.00000000000E+00 0.  1.
         23    2    1    2    0    0  0.74599212198E+03 -0.38007163160E+03  0.94343193115E+03  0.12644831945E+04  0.88855214796E+02 0.  0.
         13    1    3    3    0    0  0.65252219125E+03 -0.29753661862E+03  0.79727891983E+03  0.10723651083E+04  0.00000000000E+00 0. -1.
        -13    1    3    3    0    0  0.93469930734E+02 -0.82535012982E+02  0.14615301132E+03  0.19211808618E+03  0.00000000000E+00 0.  1.
         22    1    1    2    0    0 -0.74599212198E+03  0.38007163160E+03  0.47605542752E+03  0.96311342077E+03  0.00000000000E+00 0.  1.
<mgrwt>
<rscale>  0 0.17167534E+04</rscale>
<asrwt>0</asrwt>
<pdfrwt beam="1">  1        1 0.28054492E+00 0.17167534E+04</pdfrwt>
<pdfrwt beam="2">  1       -1 0.62162251E-01 0.17167534E+04</pdfrwt>
<totfact> 0.97947591E+00</totfact>
</mgrwt>
</event>
<event>
 6    1  0.1072514E-005  0.5143999E+03  0.7818608E-02  0.1010087E+00
          4   -1    0    0  501    0  0.00000000000E+00  0.00000000000E+00  0.39927122118E+03  0.39927122118E+03  0.00000000000E+00 0. -1.
         -4   -1    0    0    0  501 -0.00000000000E+00 -0.00000000000E+00 -0.16568139857E+03  0.16568139857E+03  0.00000000000E+00 0.  1.
         23    2    1    2    0    0 -0.10260155130E+03 -0.22089848218E+03  0.17921136513E+03  0.31539253801E+03  0.89624337543E+02 0.  0.
         13    1    3    3    0    0  0.86997921776E+01 -0.15791992071E+02  0.39467337208E+02  0.43390599256E+02  0.00000000000E+00 0.  1.
        -13    1    3    3    0    0 -0.11130134347E+03 -0.20510649011E+03  0.13974402793E+03  0.27200193875E+03  0.00000000000E+00 0. -1.
         22    1    1    2    0    0  0.10260155130E+03  0.22089848218E+03  0.54378457475E+02  0.24956008174E+03  0.00000000000E+00 0.  1.
<mgrwt>
<rscale>  0 0.51439990E+03</rscale>
<asrwt>0</asrwt>
<pdfrwt beam="1">  1        4 0.61426341E-01 0.51439990E+03</pdfrwt>
<pdfrwt beam="2">  1       -4 0.25489446E-01 0.51439990E+03</pdfrwt>
<totfact> 0.71449118E+01</totfact>
</mgrwt>
</event>
<event>
 6    1  0.1072514E-005  0.1661417E+04  0.7818608E-02  0.8783681E-01
          1   -1    0    0  501    0  0.00000000000E+00  0.00000000000E+00  0.28476130678E+04  0.28476130678E+04  0.00000000000E+00 0. -1.
         -1   -1    0    0    0  501 -0.00000000000E+00 -0.00000000000E+00 -0.24233506525E+03  0.24233506525E+03  0.00000000000E+00 0.  1.
         23    2    1    2    0    0 -0.82032584603E+03  0.64135626148E+02  0.14818503724E+04  0.16974189548E+04  0.91119205194E+02 0.  0.
         13    1    3    3    0    0 -0.72433480894E+03  0.61915720646E+02  0.13617938640E+04  0.15436894118E+04  0.00000000000E+00 0. -1.
        -13    1    3    3    0    0 -0.95991037098E+02  0.22199055021E+01  0.12005650838E+03  0.15372954299E+03  0.00000000000E+00 0.  1.
         22    1    1    2    0    0  0.82032584603E+03 -0.64135626148E+02  0.11234276301E+04  0.13925291782E+04  0.00000000000E+00 0.  1.
<mgrwt>
<rscale>  0 0.16614169E+04</rscale>
<asrwt>0</asrwt>
<pdfrwt beam="1">  1        1 0.43809430E+00 0.16614169E+04</pdfrwt>
<pdfrwt beam="2">  1       -1 0.37282320E-01 0.16614169E+04</pdfrwt>
<totfact> 0.51108701E+00</totfact>
</mgrwt>
</event>
<event>
 6    1  0.1072514E-005  0.3748253E+03  0.7818608E-02  0.1052863E+00
         -2   -1    0    0    0  501 -0.00000000000E+00  0.00000000000E+00  0.11832253047E+03  0.11832253047E+03  0.00000000000E+00 0.  1.
          2   -1    0    0  501    0  0.00000000000E+00 -0.00000000000E+00 -0.29684545999E+03  0.29684545999E+03  0.00000000000E+00 0. -1.
         23    2    1    2    0    0 -0.26490863338E+02 -0.16907482856E+03 -0.47127049934E+02  0.19940668562E+03  0.90851548917E+02 0.  0.
         13    1    3    3    0    0  0.16861076260E+02 -0.12278525609E+03 -0.54822618411E+02  0.13552134332E+03  0.00000000000E+00 0. -1.
        -13    1    3    3    0    0 -0.43351939598E+02 -0.46289572470E+02  0.76955684770E+01  0.63885342298E+02  0.00000000000E+00 0.  1.
         22    1    1    2    0    0  0.26490863338E+02  0.16907482856E+03 -0.13139587959E+03  0.21576130484E+03  0.00000000000E+00 0. -1.
<mgrwt>
<rscale>  0 0.37482532E+03</rscale>
<asrwt>0</asrwt>
<pdfrwt beam="1">  1        2 0.45668532E-01 0.37482532E+03</pdfrwt>
<pdfrwt beam="2">  1       -2 0.18203466E-01 0.37482532E+03</pdfrwt>
<totfact> 0.27466572E+03</totfact>
</mgrwt>
</event>
<event>
 6    1  0.1072514E-005  0.3403556E+04  0.7818608E-02  0.8137034E-01
          2   -1    0    0  501    0  0.00000000000E+00  0.00000000000E+00  0.31124402239E+04  0.31124402239E+04  0.00000000000E+00 0.  1.
         -2   -1    0    0    0  501 -0.00000000000E+00 -0.00000000000E+00 -0.93047520093E+03  0.93047520093E+03  0.00000000000E+00 0. -1.
         23    2    1    2    0    0 -0.94876311177E+03 -0.12714485583E+04  0.18193307230E+04  0.24155751057E+04  0.91136890160E+02 0.  0.
         13    1    3    3    0    0 -0.29457175358E+03 -0.35127592293E+03  0.57495029910E+03  0.73534695109E+03  0.00000000000E+00 0. -1.
        -13    1    3    3    0    0 -0.65419135819E+03 -0.92017263540E+03  0.12443804239E+04  0.16802281546E+04  0.00000000000E+00 0.  1.
         22    1    1    2    0    0  0.94876311177E+03  0.12714485583E+04  0.36263429993E+03  0.16273403191E+04  0.00000000000E+00 0. -1.
<mgrwt>
<rscale>  0 0.34035560E+04</rscale>
<asrwt>0</asrwt>
<pdfrwt beam="1">  1        2 0.47883695E+00 0.34035560E+04</pdfrwt>
<pdfrwt beam="2">  1       -2 0.14315003E+00 0.34035560E+04</pdfrwt>
<totfact> 0.41432784E-01</totfact>
</mgrwt>
</event>
<event>
 6    1  0.1072514E-005  0.5247841E+04  0.7818608E-02  0.7791373E-01
          2   -1    0    0  501    0  0.00000000000E+00  0.00000000000E+00  0.46457736719E+04  0.46457736719E+04  0.00000000000E+00 0. -1.
         -2   -1    0    0    0  501 -0.00000000000E+00 -0.00000000000E+00 -0.14819833875E+04  0.14819833875E+04  0.00000000000E+00 0.  1.
         23    2    1    2    0    0 -0.53463142030E+03 -0.49022505149E+03  0.45258819567E+04  0.45845639151E+04  0.92018740400E+02 0.  0.
         11    1    3    3    0    0 -0.13624103777E+03 -0.74689716937E+02  0.99980885325E+03  0.10118092297E+04  0.00000000000E+00 0. -1.
        -11    1    3    3    0    0 -0.39839038253E+03 -0.41553533455E+03  0.35260731035E+04  0.35727546854E+04  0.00000000000E+00 0.  1.
         22    1    1    2    0    0  0.53463142030E+03  0.49022505149E+03 -0.13620916724E+04  0.15431931443E+04  0.00000000000E+00 0.  1.
<mgrwt>
<rscale>  0 0.52478412E+04</rscale>
<asrwt>0</asrwt>
<pdfrwt beam="1">  1        2 0.71473441E+00 0.52478412E+04</pdfrwt>
<pdfrwt beam="2">  1       -2 0.22799745E+00 0.52478412E+04</pdfrwt>
<totfact> 0.54367881E-03</totfact>
</mgrwt>
</event>
<event>
 6    1  0.1072514E-005  0.9017981E+03  0.7818608E-02  0.9423337E-01
          1   -1    0    0  501    0  0.00000000000E+00  0.00000000000E+00  0.25379708708E+03  0.25379708708E+03  0.00000000000E+00 0. -1.
         -1   -1    0    0    0  501 -0.00000000000E+00 -0.00000000000E+00 -0.80107276457E+03  0.80107276457E+03  0.00000000000E+00 0.  1.
         23    2    1    2    0    0  0.25244061510E+03 -0.61198007238E+02  0.14962000577E+03  0.31113935369E+03  0.83367206079E+02 0.  0.
         11    1    3    3    0    0  0.71074379610E+02 -0.38557053785E+02  0.10701374318E+02  0.81564289035E+02  0.00000000000E+00 0. -1.
        -11    1    3    3    0    0  0.18136623549E+03 -0.22640953453E+02  0.13891863145E+03  0.22957506466E+03  0.00000000000E+00 0.  1.
         22    1    1    2    0    0 -0.25244061510E+03  0.61198007238E+02 -0.69689568326E+03  0.74373049796E+03  0.00000000000E+00 0.  1.
<mgrwt>
<rscale>  0 0.90179806E+03</rscale>
<asrwt>0</asrwt>
<pdfrwt beam="1">  1        1 0.39045706E-01 0.90179806E+03</pdfrwt>
<pdfrwt beam="2">  1       -1 0.12324196E+00 0.90179806E+03</pdfrwt>
<totfact> 0.63740052E+01</totfact>
</mgrwt>
</event>
<event>
 6    1  0.1072514E-005  0.1179636E+04  0.7818608E-02  0.9130870E-01
         -2   -1    0    0    0  501 -0.00000000000E+00  0.00000000000E+00  0.13515976359E+03  0.13515976359E+03  0.00000000000E+00 0.  1.
          2   -1    0    0  501    0  0.00000000000E+00 -0.00000000000E+00 -0.25738829310E+04  0.25738829310E+04  0.00000000000E+00 0. -1.
         23    2    1    2    0    0 -0.38581073506E+03 -0.20391152310E+03 -0.32740510774E+03  0.55309886841E+03  0.91073712591E+02 0.  0.
         13    1    3    3    0    0 -0.32927646481E+03 -0.16839655822E+03 -0.31365676028E+03  0.48493396908E+03  0.00000000000E+00 0.  1.
        -13    1    3    3    0    0 -0.56534270248E+02 -0.35514964882E+02 -0.13748347458E+02  0.68164899331E+02  0.00000000000E+00 0. -1.
         22    1    1    2    0    0  0.38581073506E+03  0.20391152310E+03 -0.21113180597E+04  0.21559438262E+04  0.00000000000E+00 0. -1.
<mgrwt>
<rscale>  0 0.11796362E+04</rscale>
<asrwt>0</asrwt>
<pdfrwt beam="1">  1        2 0.39598198E+00 0.11796362E+04</pdfrwt>
<pdfrwt beam="2">  1       -2 0.20793810E-01 0.11796362E+04</pdfrwt>
<totfact> 0.62653255E+01</totfact>
</mgrwt>
</event>
<event>
 6    1  0.1072514E-005  0.4424437E+04  0.7818608E-02  0.7924001E-01
          1   -1    0    0  501    0  0.00000000000E+00  0.00000000000E+00  0.37459050790E+04  0.37459050790E+04  0.00000000000E+00 0. -1.
         -1   -1    0    0    0  501 -0.00000000000E+00 -0.00000000000E+00 -0.13064696477E+04  0.13064696477E+04  0.00000000000E+00 0.  1.
         23    2    1    2    0    0 -0.15215054673E+04 -0.14024471687E+04  0.21107111233E+04  0.29571667135E+04  0.88862687281E+02 0.  0.
         11    1    3    3    0    0 -0.38163158808E+03 -0.33241104882E+03  0.56764894016E+03  0.76050318451E+03  0.00000000000E+00 0.  1.
        -11    1    3    3    0    0 -0.11398738792E+04 -0.10700361198E+04  0.15430621832E+04  0.21966635290E+04  0.00000000000E+00 0. -1.
         22    1    1    2    0    0  0.15215054673E+04  0.14024471687E+04  0.32872430794E+03  0.20952080132E+04  0.00000000000E+00 0.  1.
<mgrwt>
<rscale>  0 0.44244373E+04</rscale>
<asrwt>0</asrwt>
<pdfrwt beam="1">  1        1 0.57629308E+00 0.44244373E+04</pdfrwt>
<pdfrwt beam="2">  1       -1 0.20099533E+00 0.44244373E+04</pdfrwt>
<totfact> 0.17670746E-02</totfact>
</mgrwt>
</event>
<event>
 6    1  0.1072514E-005  0.1076544E+04  0.7818608E-02  0.9228360E-01
          4   -1    0    0  501    0  0.00000000000E+00  0.00000000000E+00  0.19643313841E+04  0.19643313841E+04  0.00000000000E+00 0. -1.
         -4   -1    0    0    0  501 -0.00000000000E+00 -0.00000000000E+00 -0.14749881125E+03  0.14749881125E+03  0.00000000000E+00 0.  1.
         23    2    1    2    0    0  0.43899981571E+02 -0.53224438274E+03  0.87762078983E+03  0.10313996956E+04  0.91410010834E+02 0.  0.
         13    1    3    3    0    0 -0.28005902483E+02 -0.11565531251E+03  0.18591342672E+03  0.22073577898E+03  0.00000000000E+00 0.  1.
        -13    1    3    3    0    0  0.71905884053E+02 -0.41658907023E+03  0.69170736311E+03  0.81066391666E+03  0.00000000000E+00 0. -1.
         22    1    1    2    0    0 -0.43899981571E+02  0.53224438274E+03  0.93921178297E+03  0.10804304997E+04  0.00000000000E+00 0.  1.
<mgrwt>
<rscale>  0 0.10765436E+04</rscale>
<asrwt>0</asrwt>
<pdfrwt beam="1">  1        4 0.30220481E+00 0.10765436E+04</pdfrwt>
<pdfrwt beam="2">  1       -4 0.22692126E-01 0.10765436E+04</pdfrwt>
<totfact> 0.11032635E+00</totfact>
</mgrwt>
</event>
<event>
 6    1  0.1072514E-005  0.2417505E+04  0.7818608E-02  0.8432979E-01
          1   -1    0    0  501    0  0.00000000000E+00  0.00000000000E+00  0.58557147265E+03  0.58557147265E+03  0.00000000000E+00 0. -1.
         -1   -1    0    0    0  501 -0.00000000000E+00 -0.00000000000E+00 -0.24951401238E+04  0.24951401238E+04  0.00000000000E+00 0.  1.
         23    2    1    2    0    0  0.19075627956E+03  0.36927372172E+03  0.48789995319E+03  0.64748190146E+03  0.91844480762E+02 0.  0.
         13    1    3    3    0    0  0.46187699874E+02  0.15569896204E+03  0.23977500441E+03  0.28959890044E+03  0.00000000000E+00 0. -1.
        -13    1    3    3    0    0  0.14456857969E+03  0.21357475969E+03  0.24812494878E+03  0.35788300102E+03  0.00000000000E+00 0.  1.
         22    1    1    2    0    0 -0.19075627956E+03 -0.36927372172E+03 -0.23974686044E+04  0.24332296950E+04  0.00000000000E+00 0.  1.
<mgrwt>
<rscale>  0 0.24175052E+04</rscale>
<asrwt>0</asrwt>
<pdfrwt beam="1">  1        1 0.90087918E-01 0.24175052E+04</pdfrwt>
<pdfrwt beam="2">  1       -1 0.38386771E+00 0.24175052E+04</pdfrwt>
<totfact> 0.29249761E-01</totfact>
</mgrwt>
</event>
<event>
 6    1  0.1072514E-005  0.3380644E+04  0.7818608E-02  0.8142673E-01
         -1   -1    0    0    0  501 -0.00000000000E+00  0.00000000000E+00  0.16836427077E+04  0.16836427077E+04  0.00000000000E+00 0.  1.
          1   -1    0    0  501    0  0.00000000000E+00 -0.00000000000E+00 -0.16970273070E+04  0.16970273070E+04  0.00000000000E+00 0. -1.
         23    2    1    2    0    0 -0.12560417156E+04  0.11016641253E+04 -0.25536040961E+03  0.16925180875E+04  0.90021672696E+02 0.  0.
         11    1    3    3    0    0 -0.53787603487E+03  0.47132241530E+03 -0.15442000641E+03  0.73164266307E+03  0.00000000000E+00 0. -1.
        -11    1    3    3    0    0 -0.71816568071E+03  0.63034171001E+03 -0.10094040320E+03  0.96087542446E+03  0.00000000000E+00 0.  1.
         22    1    1    2    0    0  0.12560417156E+04 -0.11016641253E+04  0.24197581030E+03  0.16881519271E+04  0.00000000000E+00 0.  1.
<mgrwt>
<rscale>  0 0.33806435E+04</rscale>
<asrwt>0</asrwt>
<pdfrwt beam="1">  1        1 0.26108112E+00 0.33806435E+04</pdfrwt>
<pdfrwt beam="2">  1       -1 0.25902196E+00 0.33806435E+04</pdfrwt>
<totfact> 0.24024613E-01</totfact>
</mgrwt>
</event>
<event>
 6    1  0.1072514E-005  0.1911766E+04  0.7818608E-02  0.8649022E-01
         -2   -1    0    0    0  501 -0.00000000000E+00  0.00000000000E+00  0.89526740745E+03  0.89526740745E+03  0.00000000000E+00 0.  1.
          2   -1    0    0  501    0  0.00000000000E+00 -0.00000000000E+00 -0.10206022445E+04  0.10206022445E+04  0.00000000000E+00 0. -1.
         23    2    1    2    0    0  0.14011081001E+03  0.91224462573E+03  0.17781909431E+03  0.94441527717E+03  0.92083055992E+02 0.  0.
         11    1    3    3    0    0  0.10101706105E+03  0.36859042383E+03  0.61807469434E+02  0.38714791803E+03  0.00000000000E+00 0.  1.
        -11    1    3    3    0    0  0.39093748958E+02  0.54365420190E+03  0.11601162488E+03  0.55726735914E+03  0.00000000000E+00 0. -1.
         22    1    1    2    0    0 -0.14011081001E+03 -0.91224462573E+03 -0.30315393141E+03  0.97145437483E+03  0.00000000000E+00 0. -1.
<mgrwt>
<rscale>  0 0.19117656E+04</rscale>
<asrwt>0</asrwt>
<pdfrwt beam="1">  1        2 0.15701573E+00 0.19117656E+04</pdfrwt>
<pdfrwt beam="2">  1       -2 0.13773345E+00 0.19117656E+04</pdfrwt>
<totfact> 0.85665187E+00</totfact>
</mgrwt>
</event>
<event>
 6    1  0.1072514E-005  0.9704361E+03  0.7818608E-02  0.9341578E-01
         -2   -1    0    0    0  501 -0.00000000000E+00  0.00000000000E+00  0.17317278734E+03  0.17317278734E+03  0.00000000000E+00 0.  1.
          2   -1    0    0  501    0  0.00000000000E+00 -0.00000000000E+00 -0.13595471156E+04  0.13595471156E+04  0.00000000000E+00 0. -1.
         23    2    1    2    0    0 -0.30536589402E+03  0.34024372145E+03 -0.83403796309E+03  0.95552406665E+03  0.91612219986E+02 0.  0.
         13    1    3    3    0    0 -0.12024392975E+03  0.19857257522E+03 -0.38462493174E+03  0.44925049626E+03  0.00000000000E+00 0.  1.
        -13    1    3    3    0    0 -0.18512196427E+03  0.14167114623E+03 -0.44941303134E+03  0.50627357038E+03  0.00000000000E+00 0. -1.
         22    1    1    2    0    0  0.30536589402E+03 -0.34024372145E+03 -0.35233636520E+03  0.57719583631E+03  0.00000000000E+00 0. -1.
<mgrwt>
<rscale>  0 0.97043612E+03</rscale>
<asrwt>0</asrwt>
<pdfrwt beam="1">  1        2 0.20916110E+00 0.97043612E+03</pdfrwt>
<pdfrwt beam="2">  1       -2 0.26641967E-01 0.97043612E+03</pdfrwt>
<totfact> 0.19472654E+02</totfact>
</mgrwt>
</event>
<event>
 6    1  0.1072514E-005  0.3516995E+04  0.7818608E-02  0.8109774E-01
         -2   -1    0    0    0  501 -0.00000000000E+00  0.00000000000E+00  0.81049651640E+03  0.81049651640E+03  0.00000000000E+00 0.  1.
          2   -1    0    0  501    0  0.00000000000E+00 -0.00000000000E+00 -0.38153328266E+04  0.38153328266E+04  0.00000000000E+00 0. -1.
         23    2    1    2    0    0  0.58079389361E+03  0.16585412427E+04 -0.15040539725E+04  0.23148926875E+04  0.92028268303E+02 0.  0.
         11    1    3    3    0    0  0.26313236616E+03  0.61844825122E+03 -0.56366883229E+03  0.87717696849E+03  0.00000000000E+00 0.  1.
        -11    1    3    3    0    0  0.31766152745E+03  0.10400929914E+04 -0.94038514017E+03  0.14377157190E+04  0.00000000000E+00 0. -1.
         22    1    1    2    0    0 -0.58079389361E+03 -0.16585412427E+04 -0.15007823378E+04  0.23109366555E+04  0.00000000000E+00 0. -1.
<mgrwt>
<rscale>  0 0.35169953E+04</rscale>
<asrwt>0</asrwt>
<pdfrwt beam="1">  1        2 0.58697429E+00 0.35169953E+04</pdfrwt>
<pdfrwt beam="2">  1       -2 0.12469177E+00 0.35169953E+04</pdfrwt>
<totfact> 0.18883483E-01</totfact>
</mgrwt>
</event>
<event>
 6    1  0.1072514E-005  0.1526566E+04  0.7818608E-02  0.8866976E-01
          1   -1    0    0  501    0  0.00000000000E+00  0.00000000000E+00  0.16376449000E+04  0.16376449000E+04  0.00000000000E+00 0. -1.
         -1   -1    0    0    0  501 -0.00000000000E+00 -0.00000000000E+00 -0.35575549663E+03  0.35575549663E+03  0.00000000000E+00 0.  1.
         23    2    1    2    0    0  0.22411402577E+03  0.72572702295E+03  0.58599836753E+03  0.96326878264E+03  0.87096799427E+02 0.  0.
         13    1    3    3    0    0  0.14934100325E+03  0.39383974076E+03  0.28074990426E+03  0.50619461217E+03  0.00000000000E+00 0.  1.
        -13    1    3    3    0    0  0.74773022526E+02  0.33188728219E+03  0.30524846327E+03  0.45707417046E+03  0.00000000000E+00 0. -1.
         22    1    1    2    0    0 -0.22411402577E+03 -0.72572702295E+03  0.69589103582E+03  0.10301316140E+04  0.00000000000E+00 0. -1.
<mgrwt>
<rscale>  0 0.15265663E+04</rscale>
<asrwt>0</asrwt>
<pdfrwt beam="1">  1        1 0.25194537E+00 0.15265663E+04</pdfrwt>
<pdfrwt beam="2">  1       -1 0.54731616E-01 0.15265663E+04</pdfrwt>
<totfact> 0.17118532E+01</totfact>
</mgrwt>
</event>
<event>
 6    1  0.1072514E-005  0.2953748E+04  0.7818608E-02  0.8257063E-01
          1   -1    0    0  501    0  0.00000000000E+00  0.00000000000E+00  0.14110366767E+04  0.14110366767E+04  0.00000000000E+00 0. -1.
         -1   -1    0    0    0  501 -0.00000000000E+00 -0.00000000000E+00 -0.15457829976E+04  0.15457829976E+04  0.00000000000E+00 0.  1.
         23    2    1    2    0    0  0.86704250277E+03  0.40284074672E+03 -0.11923559836E+04  0.15311333247E+04  0.92806774675E+02 0.  0.
         11    1    3    3    0    0  0.34920537536E+03  0.21217874452E+03 -0.51905562202E+03  0.66059287958E+03  0.00000000000E+00 0.  1.
        -11    1    3    3    0    0  0.51783712742E+03  0.19066200220E+03 -0.67330036159E+03  0.87054044509E+03  0.00000000000E+00 0. -1.
         22    1    1    2    0    0 -0.86704250277E+03 -0.40284074672E+03  0.10576096627E+04  0.14256863496E+04  0.00000000000E+00 0. -1.
<mgrwt>
<rscale>  0 0.29537478E+04</rscale>
<asrwt>0</asrwt>
<pdfrwt beam="1">  1        1 0.21708257E+00 0.29537478E+04</pdfrwt>
<pdfrwt beam="2">  1       -1 0.23781277E+00 0.29537478E+04</pdfrwt>
<totfact> 0.54040903E-01</totfact>
</mgrwt>
</event>
<event>
 6    1  0.1072514E-005  0.3443831E+04  0.7818608E-02  0.8127232E-01
         -2   -1    0    0    0  501 -0.00000000000E+00  0.00000000000E+00  0.71373317850E+03  0.71373317850E+03  0.00000000000E+00 0.  1.
          2   -1    0    0  501    0  0.00000000000E+00 -0.00000000000E+00 -0.41542042013E+04  0.41542042013E+04  0.00000000000E+00 0. -1.
         23    2    1    2    0    0 -0.80209314957E+03  0.27154641610E+03 -0.38387231584E+04  0.39321512717E+04  0.94484180273E+02 0.  0.
         11    1    3    3    0    0 -0.47287540759E+03  0.16963908165E+03 -0.24827470921E+04  0.25330656707E+04  0.00000000000E+00 0.  1.
        -11    1    3    3    0    0 -0.32921774198E+03  0.10190733445E+03 -0.13559760663E+04  0.13990856010E+04  0.00000000000E+00 0. -1.
         22    1    1    2    0    0  0.80209314957E+03 -0.27154641610E+03  0.39825213554E+03  0.93578610812E+03  0.00000000000E+00 0.  1.
<mgrwt>
<rscale>  0 0.34438312E+04</rscale>
<asrwt>0</asrwt>
<pdfrwt beam="1">  1        2 0.63910834E+00 0.34438312E+04</pdfrwt>
<pdfrwt beam="2">  1       -2 0.10980510E+00 0.34438312E+04</pdfrwt>
<totfact> 0.13828486E-01</totfact>
</mgrwt>
</event>
<event>
 6    1  0.1072514E-005  0.3625935E+04  0.7818608E-02  0.8084577E-01
         -2   -1    0    0    0  501 -0.00000000000E+00  0.00000000000E+00  0.28071456459E+04  0.28071456459E+04  0.00000000000E+00 0.  1.
          2   -1    0    0  501    0  0.00000000000E+00 -0.00000000000E+00 -0.11708871175E+04  0.11708871175E+04  0.00000000000E+00 0. -1.
         23    2    1    2    0    0 -0.16166997978E+04  0.53793611708E+02  0.17139837865E+04  0.23585719875E+04  0.92246467273E+02 0.  0.
         13    1    3    3    0    0 -0.88932104309E+03 -0.14843093681E+02  0.92410534355E+03  0.12826078594E+04  0.00000000000E+00 0. -1.
        -13    1    3    3    0    0 -0.72737875474E+03  0.68636705389E+02  0.78987844295E+03  0.10759641280E+04  0.00000000000E+00 0.  1.
         22    1    1    2    0    0  0.16166997978E+04 -0.53793611708E+02 -0.77725258086E+02  0.16194607759E+04  0.00000000000E+00 0. -1.
<mgrwt>
<rscale>  0 0.36259347E+04</rscale>
<asrwt>0</asrwt>
<pdfrwt beam="1">  1        2 0.18013648E+00 0.36259347E+04</pdfrwt>
<pdfrwt beam="2">  1       -2 0.43186856E+00 0.36259347E+04</pdfrwt>
<totfact> 0.73328536E-02</totfact>
</mgrwt>
</event>
<event>
 6    1  0.1072514E-005  0.1017917E+04  0.7818608E-02  0.9289109E-01
         -2   -1    0    0    0  501 -0.00000000000E+00  0.00000000000E+00  0.15332229685E+03  0.15332229685E+03  0.00000000000E+00 0.  1.
          2   -1    0    0  501    0  0.00000000000E+00 -0.00000000000E+00 -0.16895059236E+04  0.16895059236E+04  0.00000000000E+00 0. -1.
         23    2    1    2    0    0  0.23016168400E+03  0.18720349610E+03 -0.40255100628E+02  0.31776372837E+03  0.10646015315E+03 0.  0.
         13    1    3    3    0    0  0.11276685437E+03  0.15308187876E+03 -0.45123070789E+02  0.19541370619E+03  0.00000000000E+00 0. -1.
        -13    1    3    3    0    0  0.11739482963E+03  0.34121617330E+02  0.48679701613E+01  0.12235002218E+03  0.00000000000E+00 0.  1.
         22    1    1    2    0    0 -0.23016168400E+03 -0.18720349610E+03 -0.14959285262E+04  0.15250644921E+04  0.00000000000E+00 0. -1.
<mgrwt>
<rscale>  0 0.10179173E+04</rscale>
<asrwt>0</asrwt>
<pdfrwt beam="1">  1        2 0.25992399E+00 0.10179173E+04</pdfrwt>
<pdfrwt beam="2">  1       -2 0.23588045E-01 0.10179173E+04</pdfrwt>
<totfact> 0.15803450E+02</totfact>
</mgrwt>
</event>
<event>
 6    1  0.1072514E-005  0.4177749E+04  0.7818608E-02  0.7969618E-01
         -1   -1    0    0    0  501 -0.00000000000E+00  0.00000000000E+00  0.18581139951E+04  0.18581139951E+04  0.00000000000E+00 0.  1.
          1   -1    0    0  501    0  0.00000000000E+00 -0.00000000000E+00 -0.23482934962E+04  0.23482934962E+04  0.00000000000E+00 0. -1.
         23    2    1    2    0    0  0.40885063040E+03 -0.51039848672E+03 -0.22415873005E+04  0.23368902453E+04  0.93150091229E+02 0.  0.
         11    1    3    3    0    0  0.25172227408E+02 -0.47992232911E+02 -0.11643431293E+03  0.12842836400E+03  0.00000000000E+00 0.  1.
        -11    1    3    3    0    0  0.38367840299E+03 -0.46240625381E+03 -0.21251529876E+04  0.22084618813E+04  0.00000000000E+00 0. -1.
         22    1    1    2    0    0 -0.40885063040E+03  0.51039848672E+03  0.17514077994E+04  0.18695172460E+04  0.00000000000E+00 0.  1.
<mgrwt>
<rscale>  0 0.41777492E+04</rscale>
<asrwt>0</asrwt>
<pdfrwt beam="1">  1        1 0.36127592E+00 0.41777492E+04</pdfrwt>
<pdfrwt beam="2">  1       -1 0.28586369E+00 0.41777492E+04</pdfrwt>
<totfact> 0.54248475E-02</totfact>
</mgrwt>
</event>
<event>
 6    1  0.1072514E-005  0.1429057E+04  0.7818608E-02  0.8933050E-01
          2   -1    0    0  501    0  0.00000000000E+00  0.00000000000E+00  0.20168755321E+04  0.20168755321E+04  0.00000000000E+00 0. -1.
         -2   -1    0    0    0  501 -0.00000000000E+00 -0.00000000000E+00 -0.25313956538E+03  0.25313956538E+03  0.00000000000E+00 0.  1.
         23    2    1    2    0    0 -0.38451203553E+00 -0.35051979463E+03  0.18691831997E+04  0.19039776769E+04  0.91765386299E+02 0.  0.
         11    1    3    3    0    0 -0.39955461010E+02 -0.10490485229E+03  0.65817368466E+03  0.66767811562E+03  0.00000000000E+00 0. -1.
        -11    1    3    3    0    0  0.39570948975E+02 -0.24561494234E+03  0.12110095150E+04  0.12362995613E+04  0.00000000000E+00 0.  1.
         22    1    1    2    0    0  0.38451203553E+00  0.35051979463E+03 -0.10544723296E+03  0.36603742051E+03  0.00000000000E+00 0.  1.
<mgrwt>
<rscale>  0 0.14290570E+04</rscale>
<asrwt>0</asrwt>
<pdfrwt beam="1">  1        2 0.31028853E+00 0.14290570E+04</pdfrwt>
<pdfrwt beam="2">  1       -2 0.38944550E-01 0.14290570E+04</pdfrwt>
<totfact> 0.39597751E+01</totfact>
</mgrwt>
</event>
<event>
 6    1  0.1072514E-005  0.1511470E+04  0.7818608E-02  0.8876861E-01
         -2   -1    0    0    0  501 -0.00000000000E+00  0.00000000000E+00  0.19470646996E+03  0.19470646996E+03  0.00000000000E+00 0.  1.
          2   -1    0    0  501    0  0.00000000000E+00 -0.00000000000E+00 -0.29333154445E+04  0.29333154445E+04  0.00000000000E+00 0. -1.
         23    2    1    2    0    0  0.26702238523E+03 -0.67391247282E+03 -0.17959369570E+04  0.19388669591E+04  0.91414201472E+02 0.  0.
         13    1    3    3    0    0  0.23858755902E+02 -0.13656668436E+03 -0.28616394553E+03  0.31797720552E+03  0.00000000000E+00 0.  1.
        -13    1    3    3    0    0  0.24316362933E+03 -0.53734578846E+03 -0.15097730115E+04  0.16208897536E+04  0.00000000000E+00 0. -1.
         22    1    1    2    0    0 -0.26702238523E+03  0.67391247282E+03 -0.94267201752E+03  0.11891549554E+04  0.00000000000E+00 0.  1.
<mgrwt>
<rscale>  0 0.15114701E+04</rscale>
<asrwt>0</asrwt>
<pdfrwt beam="1">  1        2 0.45127929E+00 0.15114701E+04</pdfrwt>
<pdfrwt beam="2">  1       -2 0.29954842E-01 0.15114701E+04</pdfrwt>
<totfact> 0.19144038E+01</totfact>
</mgrwt>
</event>
<event>
 6    1  0.1072514E-005  0.1659542E+04  0.7818608E-02  0.8784782E-01
         -1   -1    0    0    0  501 -0.00000000000E+00  0.00000000000E+00  0.31624862998E+03  0.31624862998E+03  0.00000000000E+00 0.  1.
          1   -1    0    0  501    0  0.00000000000E+00 -0.00000000000E+00 -0.21771468556E+04  0.21771468556E+04  0.00000000000E+00 0. -1.
         23    2    1    2    0    0 -0.59970748999E+03  0.37480504967E+03 -0.28796473416E+03  0.76879475863E+03  0.89408019616E+02 0.  0.
         11    1    3    3    0    0 -0.33513932568E+03  0.23921473312E+03 -0.20601279240E+03  0.46041647102E+03  0.00000000000E+00 0. -1.
        -11    1    3    3    0    0 -0.26456816431E+03  0.13559031655E+03 -0.81951941758E+02  0.30837828761E+03  0.00000000000E+00 0.  1.
         22    1    1    2    0    0  0.59970748999E+03 -0.37480504967E+03 -0.15729334915E+04  0.17246007269E+04  0.00000000000E+00 0. -1.
<mgrwt>
<rscale>  0 0.16595418E+04</rscale>
<asrwt>0</asrwt>
<pdfrwt beam="1">  1        1 0.33494567E+00 0.16595418E+04</pdfrwt>
<pdfrwt beam="2">  1       -1 0.48653635E-01 0.16595418E+04</pdfrwt>
<totfact> 0.91220240E+00</totfact>
</mgrwt>
</event>
<event>
 6    1  0.1072514E-005  0.3509500E+04  0.7818608E-02  0.8111542E-01
         -1   -1    0    0    0  501 -0.00000000000E+00  0.00000000000E+00  0.17684524841E+04  0.17684524841E+04  0.00000000000E+00 0.  1.
          1   -1    0    0  501    0  0.00000000000E+00 -0.00000000000E+00 -0.17411534605E+04  0.17411534605E+04  0.00000000000E+00 0. -1.
         23    2    1    2    0    0  0.14934408805E+04  0.28438803674E+03  0.88744313291E+03  0.17628689559E+04  0.94389736600E+02 0.  0.
         11    1    3    3    0    0  0.10012208580E+04  0.14621256461E+03  0.57920576580E+03  0.11658904921E+04  0.00000000000E+00 0.  1.
        -11    1    3    3    0    0  0.49222002254E+03  0.13817547213E+03  0.30823736710E+03  0.59697846374E+03  0.00000000000E+00 0. -1.
         22    1    1    2    0    0 -0.14934408805E+04 -0.28438803674E+03 -0.86014410928E+03  0.17467369887E+04  0.00000000000E+00 0. -1.
<mgrwt>
<rscale>  0 0.35094998E+04</rscale>
<asrwt>0</asrwt>
<pdfrwt beam="1">  1        1 0.26786976E+00 0.35094998E+04</pdfrwt>
<pdfrwt beam="2">  1       -1 0.27206961E+00 0.35094998E+04</pdfrwt>
<totfact> 0.18245105E-01</totfact>
</mgrwt>
</event>
<event>
 6    1  0.1072514E-005  0.1337018E+04  0.7818608E-02  0.9000714E-01
         -1   -1    0    0    0  501 -0.00000000000E+00  0.00000000000E+00  0.14043285975E+04  0.14043285975E+04  0.00000000000E+00 0.  1.
          1   -1    0    0  501    0  0.00000000000E+00 -0.00000000000E+00 -0.31823337632E+03  0.31823337632E+03  0.00000000000E+00 0. -1.
         23    2    1    2    0    0  0.22783232707E+03  0.24437084072E+03 -0.19590877420E+03  0.39773786427E+03  0.90501291778E+02 0.  0.
         13    1    3    3    0    0  0.22600293019E+03  0.20800508688E+03 -0.15890670540E+03  0.34582478460E+03  0.00000000000E+00 0. -1.
        -13    1    3    3    0    0  0.18293968791E+01  0.36365753847E+02 -0.37002068801E+02  0.51913079675E+02  0.00000000000E+00 0.  1.
         22    1    1    2    0    0 -0.22783232707E+03 -0.24437084072E+03  0.12820039954E+04  0.13248241095E+04  0.00000000000E+00 0.  1.
<mgrwt>
<rscale>  0 0.13370179E+04</rscale>
<asrwt>0</asrwt>
<pdfrwt beam="1">  1        1 0.48958982E-01 0.13370179E+04</pdfrwt>
<pdfrwt beam="2">  1       -1 0.21605055E+00 0.13370179E+04</pdfrwt>
<totfact> 0.93052279E+00</totfact>
</mgrwt>
</event>
<event>
 6    1  0.1072514E-005  0.4373014E+04  0.7818608E-02  0.7933253E-01
         -1   -1    0    0    0  501 -0.00000000000E+00  0.00000000000E+00  0.26127067776E+04  0.26127067776E+04  0.00000000000E+00 0.  1.
          1   -1    0    0  501    0  0.00000000000E+00 -0.00000000000E+00 -0.18298314135E+04  0.18298314135E+04  0.00000000000E+00 0. -1.
         23    2    1    2    0    0 -0.48204622930E+03  0.14303502512E+04 -0.12141268565E+04  0.19392826554E+04  0.91884631364E+02 0.  0.
         11    1    3    3    0    0 -0.29871344046E+03  0.83399265858E+03 -0.76598185115E+03  0.11711112972E+04  0.00000000000E+00 0. -1.
        -11    1    3    3    0    0 -0.18333278883E+03  0.59635759267E+03 -0.44814500533E+03  0.76817135822E+03  0.00000000000E+00 0.  1.
         22    1    1    2    0    0  0.48204622930E+03 -0.14303502512E+04  0.19970022205E+04  0.25032555357E+04  0.00000000000E+00 0. -1.
<mgrwt>
<rscale>  0 0.43730140E+04</rscale>
<asrwt>0</asrwt>
<pdfrwt beam="1">  1        1 0.28151252E+00 0.43730140E+04</pdfrwt>
<pdfrwt beam="2">  1       -1 0.40195489E+00 0.43730140E+04</pdfrwt>
<totfact> 0.20470936E-02</totfact>
</mgrwt>
</event>
<event>
 6    1  0.1072514E-005  0.1431730E+04  0.7818608E-02  0.8931166E-01
         -1   -1    0    0    0  501 -0.00000000000E+00  0.00000000000E+00  0.45590379088E+03  0.45590379088E+03  0.00000000000E+00 0.  1.
          1   -1    0    0  501    0  0.00000000000E+00 -0.00000000000E+00 -0.11240588136E+04  0.11240588136E+04  0.00000000000E+00 0. -1.
         23    2    1    2    0    0  0.29041498409E+03  0.50267413824E+03 -0.79194232297E+03  0.98637567071E+03  0.93499564853E+02 0.  0.
         11    1    3    3    0    0  0.11799644386E+03  0.14463360645E+03 -0.20164746619E+03  0.27477944155E+03  0.00000000000E+00 0. -1.
        -11    1    3    3    0    0  0.17241854023E+03  0.35804053179E+03 -0.59029485677E+03  0.71159622916E+03  0.00000000000E+00 0.  1.
         22    1    1    2    0    0 -0.29041498409E+03 -0.50267413824E+03  0.12378730025E+03  0.59358693377E+03  0.00000000000E+00 0.  1.
<mgrwt>
<rscale>  0 0.14317300E+04</rscale>
<asrwt>0</asrwt>
<pdfrwt beam="1">  1        1 0.17293212E+00 0.14317300E+04</pdfrwt>
<pdfrwt beam="2">  1       -1 0.70139046E-01 0.14317300E+04</pdfrwt>
<totfact> 0.24309102E+01</totfact>
</mgrwt>
</event>
<event>
 6    1  0.1072514E-005  0.9758764E+03  0.7818608E-02  0.9335406E-01
         -2   -1    0    0    0  501 -0.00000000000E+00  0.00000000000E+00  0.14374282192E+04  0.14374282192E+04  0.00000000000E+00 0.  1.
          2   -1    0    0  501    0  0.00000000000E+00 -0.00000000000E+00 -0.16563171140E+03  0.16563171140E+03  0.00000000000E+00 0. -1.
         23    2    1    2    0    0 -0.23543700903E+03  0.39846335686E+03  0.41278040286E+03  0.62729751046E+03  0.94397424071E+02 0.  0.
         11    1    3    3    0    0 -0.17189273120E+03  0.35590616016E+03  0.33354331007E+03  0.51717254913E+03  0.00000000000E+00 0. -1.
        -11    1    3    3    0    0 -0.63544277831E+02  0.42557196698E+02  0.79237092789E+02  0.11012496134E+03  0.00000000000E+00 0.  1.
         22    1    1    2    0    0  0.23543700903E+03 -0.39846335686E+03  0.85901610491E+03  0.97576242009E+03  0.00000000000E+00 0.  1.
<mgrwt>
<rscale>  0 0.97587642E+03</rscale>
<asrwt>0</asrwt>
<pdfrwt beam="1">  1        2 0.25481803E-01 0.97587642E+03</pdfrwt>
<pdfrwt beam="2">  1       -2 0.22114280E+00 0.97587642E+03</pdfrwt>
<totfact> 0.20925691E+01</totfact>
</mgrwt>
</event>
<event>
 6    1  0.1072514E-005  0.2270149E+04  0.7818608E-02  0.8489785E-01
         -2   -1    0    0    0  501 -0.00000000000E+00  0.00000000000E+00  0.59011756726E+03  0.59011756726E+03  0.00000000000E+00 0.  1.
          2   -1    0    0  501    0  0.00000000000E+00 -0.00000000000E+00 -0.21832831868E+04  0.21832831868E+04  0.00000000000E+00 0. -1.
         23    2    1    2    0    0 -0.78367183842E+03 -0.62156313621E+03 -0.14486789645E+04  0.17627778392E+04  0.90734146364E+02 0.  0.
         11    1    3    3    0    0 -0.61571769992E+03 -0.45168453365E+03 -0.11474728324E+04  0.13783399816E+04  0.00000000000E+00 0. -1.
        -11    1    3    3    0    0 -0.16795413850E+03 -0.16987860256E+03 -0.30120613215E+03  0.38443785752E+03  0.00000000000E+00 0.  1.
         22    1    1    2    0    0  0.78367183842E+03  0.62156313621E+03 -0.14448665498E+03  0.10106229149E+04  0.00000000000E+00 0.  1.
<mgrwt>
<rscale>  0 0.22701487E+04</rscale>
<asrwt>0</asrwt>
<pdfrwt beam="1">  1        2 0.33588972E+00 0.22701487E+04</pdfrwt>
<pdfrwt beam="2">  1       -2 0.90787319E-01 0.22701487E+04</pdfrwt>
<totfact> 0.49665027E+00</totfact>
</mgrwt>
</event>
<event>
 6    1  0.1072514E-005  0.2342867E+04  0.7818608E-02  0.8461208E-01
          2   -1    0    0  501    0  0.00000000000E+00  0.00000000000E+00  0.27113960203E+04  0.27113960203E+04  0.00000000000E+00 0. -1.
         -2   -1    0    0    0  501 -0.00000000000E+00 -0.00000000000E+00 -0.50610713418E+03  0.50610713418E+03  0.00000000000E+00 0.  1.
         23    2    1    2    0    0 -0.59395060263E+03 -0.25881867384E+03  0.24417256277E+04  0.25278171701E+04  0.89839746419E+02 0.  0.
         13    1    3    3    0    0 -0.75386290069E+01  0.59309379993E+01  0.57872834662E+02  0.58662355431E+02  0.00000000000E+00 0. -1.
        -13    1    3    3    0    0 -0.58641197363E+03 -0.26474961184E+03  0.23838527931E+04  0.24691548147E+04  0.00000000000E+00 0.  1.
         22    1    1    2    0    0  0.59395060263E+03  0.25881867384E+03 -0.23643674160E+03  0.68968598440E+03  0.00000000000E+00 0.  1.
<mgrwt>
<rscale>  0 0.23428674E+04</rscale>
<asrwt>0</asrwt>
<pdfrwt beam="1">  1        2 0.41713784E+00 0.23428674E+04</pdfrwt>
<pdfrwt beam="2">  1       -2 0.77862638E-01 0.23428674E+04</pdfrwt>
<totfact> 0.34698187E+00</totfact>
</mgrwt>
</event>
<event>
 6    1  0.1072514E-005  0.1563727E+04  0.7818608E-02  0.8843147E-01
         -2   -1    0    0    0  501 -0.00000000000E+00  0.00000000000E+00  0.38502907835E+03  0.38502907835E+03  0.00000000000E+00 0.  1.
          2   -1    0    0  501    0  0.00000000000E+00 -0.00000000000E+00 -0.15876989413E+04  0.15876989413E+04  0.00000000000E+00 0. -1.
         23    2    1    2    0    0 -0.47871933408E+03  0.47665037481E+02  0.17172200035E+03  0.51656966613E+03  0.76887046660E+02 0.  0.
         13    1    3    3    0    0 -0.88171011599E+02  0.22163654515E+02  0.46836438287E+01  0.91034561499E+02  0.00000000000E+00 0. -1.
        -13    1    3    3    0    0 -0.39054832248E+03  0.25501382966E+02  0.16703835652E+03  0.42553510463E+03  0.00000000000E+00 0.  1.
         22    1    1    2    0    0  0.47871933408E+03 -0.47665037481E+02 -0.13743918633E+04  0.14561583535E+04  0.00000000000E+00 0. -1.
<mgrwt>
<rscale>  0 0.15637267E+04</rscale>
<asrwt>0</asrwt>
<pdfrwt beam="1">  1        2 0.24426137E+00 0.15637267E+04</pdfrwt>
<pdfrwt beam="2">  1       -2 0.59235243E-01 0.15637267E+04</pdfrwt>
<totfact> 0.28989104E+01</totfact>
</mgrwt>
</event>
<event>
 6    1  0.1072514E-005  0.3714405E+04  0.7818608E-02  0.8064777E-01
          2   -1    0    0  501    0  0.00000000000E+00  0.00000000000E+00  0.17395507288E+04  0.17395507288E+04  0.00000000000E+00 0. -1.
         -2   -1    0    0    0  501 -0.00000000000E+00 -0.00000000000E+00 -0.19828116344E+04  0.19828116344E+04  0.00000000000E+00 0.  1.
         23    2    1    2    0    0 -0.96630908193E+03 -0.91957886512E+03 -0.14151109058E+04  0.19468030277E+04  0.90136684396E+02 0.  0.
         11    1    3    3    0    0 -0.73256145692E+03 -0.73760249047E+03 -0.11345047868E+04  0.15387673097E+04  0.00000000000E+00 0. -1.
        -11    1    3    3    0    0 -0.23374762501E+03 -0.18197637465E+03 -0.28060611892E+03  0.40803571793E+03  0.00000000000E+00 0.  1.
         22    1    1    2    0    0  0.96630908193E+03  0.91957886512E+03  0.11718500002E+04  0.17755593355E+04  0.00000000000E+00 0. -1.
<mgrwt>
<rscale>  0 0.37144052E+04</rscale>
<asrwt>0</asrwt>
<pdfrwt beam="1">  1        2 0.26762319E+00 0.37144052E+04</pdfrwt>
<pdfrwt beam="2">  1       -2 0.30504794E+00 0.37144052E+04</pdfrwt>
<totfact> 0.22277770E-01</totfact>
</mgrwt>
</event>
<event>
 6    1  0.1072514E-005  0.3725403E+04  0.7818608E-02  0.8062355E-01
          2   -1    0    0  501    0  0.00000000000E+00  0.00000000000E+00  0.16673904847E+04  0.16673904847E+04  0.00000000000E+00 0. -1.
         -2   -1    0    0    0  501 -0.00000000000E+00 -0.00000000000E+00 -0.20808903174E+04  0.20808903174E+04  0.00000000000E+00 0.  1.
         23    2    1    2    0    0 -0.48636582968E+03 -0.12389249826E+04 -0.15164573333E+04  0.20196969653E+04  0.89700363658E+02 0.  0.
         13    1    3    3    0    0 -0.16465552466E+03 -0.54064302177E+03 -0.64009440544E+03  0.85388943468E+03  0.00000000000E+00 0. -1.
        -13    1    3    3    0    0 -0.32171030502E+03 -0.69828196084E+03 -0.87636292785E+03  0.11658075306E+04  0.00000000000E+00 0.  1.
         22    1    1    2    0    0  0.48636582968E+03  0.12389249826E+04  0.11029575005E+04  0.17285838368E+04  0.00000000000E+00 0. -1.
<mgrwt>
<rscale>  0 0.37254029E+04</rscale>
<asrwt>0</asrwt>
<pdfrwt beam="1">  1        2 0.25652161E+00 0.37254029E+04</pdfrwt>
<pdfrwt beam="2">  1       -2 0.32013697E+00 0.37254029E+04</pdfrwt>
<totfact> 0.19711057E-01</totfact>
</mgrwt>
</event>
<event>
 6    1  0.1072514E-005  0.1300534E+04  0.7818608E-02  0.9029142E-01
         -1   -1    0    0    0  501 -0.00000000000E+00  0.00000000000E+00  0.14887025718E+03  0.14887025718E+03  0.00000000000E+00 0.  1.
          1   -1    0    0  501    0  0.00000000000E+00 -0.00000000000E+00 -0.28403737876E+04  0.28403737876E+04  0.00000000000E+00 0. -1.
         23    2    1    2    0    0  0.42041906793E+02 -0.56487486901E+03 -0.20713341632E+04  0.21493266777E+04  0.91262325613E+02 0.  0.
         13    1    3    3    0    0  0.31279363555E+02 -0.45413237252E+03 -0.15121660079E+04  0.15791962024E+04  0.00000000000E+00 0. -1.
        -13    1    3    3    0    0  0.10762543238E+02 -0.11074249648E+03 -0.55916815533E+03  0.57013047524E+03  0.00000000000E+00 0.  1.
         22    1    1    2    0    0 -0.42041906793E+02  0.56487486901E+03 -0.62016936721E+03  0.83991736712E+03  0.00000000000E+00 0.  1.
<mgrwt>
<rscale>  0 0.13005340E+04</rscale>
<asrwt>0</asrwt>
<pdfrwt beam="1">  1        1 0.43698057E+00 0.13005340E+04</pdfrwt>
<pdfrwt beam="2">  1       -1 0.22903117E-01 0.13005340E+04</pdfrwt>
<totfact> 0.12566643E+01</totfact>
</mgrwt>
</event>
<event>
 6    1  0.1072514E-005  0.1740583E+04  0.7818608E-02  0.8738551E-01
          1   -1    0    0  501    0  0.00000000000E+00  0.00000000000E+00  0.78382307961E+03  0.78382307961E+03  0.00000000000E+00 0. -1.
         -1   -1    0    0    0  501 -0.00000000000E+00 -0.00000000000E+00 -0.96629891306E+03  0.96629891306E+03  0.00000000000E+00 0.  1.
         23    2    1    2    0    0 -0.32867323683E+03 -0.79146880214E+03  0.46404507997E+02  0.86308469241E+03  0.91174813096E+02 0.  0.
         13    1    3    3    0    0 -0.21879626893E+03 -0.49203242450E+03 -0.12986338945E+02  0.53864307204E+03  0.00000000000E+00 0. -1.
        -13    1    3    3    0    0 -0.10987696790E+03 -0.29943637763E+03  0.59390846942E+02  0.32444162037E+03  0.00000000000E+00 0.  1.
         22    1    1    2    0    0  0.32867323683E+03  0.79146880214E+03 -0.22888034144E+03  0.88703730027E+03  0.00000000000E+00 0.  1.
<mgrwt>
<rscale>  0 0.17405831E+04</rscale>
<asrwt>0</asrwt>
<pdfrwt beam="1">  1        1 0.12058817E+00 0.17405831E+04</pdfrwt>
<pdfrwt beam="2">  1       -1 0.14866137E+00 0.17405831E+04</pdfrwt>
<totfact> 0.77445822E+00</totfact>
</mgrwt>
</event>
<event>
 6    1  0.1072514E-005  0.2032685E+04  0.7818608E-02  0.8591490E-01
          2   -1    0    0  501    0  0.00000000000E+00  0.00000000000E+00  0.12350874895E+04  0.12350874895E+04  0.00000000000E+00 0. -1.
         -2   -1    0    0    0  501 -0.00000000000E+00 -0.00000000000E+00 -0.83633917693E+03  0.83633917693E+03  0.00000000000E+00 0.  1.
         23    2    1    2    0    0  0.10044512003E+02 -0.43026584566E+03  0.11351768097E+04  0.12184574280E+04  0.10383893511E+03 0.  0.
         11    1    3    3    0    0 -0.26129350555E+02 -0.35113229153E+03  0.84239418704E+03  0.91301949348E+03  0.00000000000E+00 0. -1.
        -11    1    3    3    0    0  0.36173862557E+02 -0.79133554125E+02  0.29278262267E+03  0.30543793455E+03  0.00000000000E+00 0.  1.
         22    1    1    2    0    0 -0.10044512003E+02  0.43026584566E+03 -0.73642849718E+03  0.85296923837E+03  0.00000000000E+00 0.  1.
<mgrwt>
<rscale>  0 0.20326850E+04</rscale>
<asrwt>0</asrwt>
<pdfrwt beam="1">  1        2 0.19001346E+00 0.20326850E+04</pdfrwt>
<pdfrwt beam="2">  1       -2 0.12866757E+00 0.20326850E+04</pdfrwt>
<totfact> 0.74572303E+00</totfact>
</mgrwt>
</event>
<event>
 6    1  0.1072514E-005  0.2535662E+04  0.7818608E-02  0.8390390E-01
          2   -1    0    0  501    0  0.00000000000E+00  0.00000000000E+00  0.13110806496E+04  0.13110806496E+04  0.00000000000E+00 0. -1.
         -2   -1    0    0    0  501 -0.00000000000E+00 -0.00000000000E+00 -0.12260084615E+04  0.12260084615E+04  0.00000000000E+00 0.  1.
         23    2    1    2    0    0 -0.65970372123E+03  0.10624781684E+04  0.24038691750E+03  0.12768544015E+04  0.92208646759E+02 0.  0.
         13    1    3    3    0    0 -0.34169356561E+03  0.49766905194E+03  0.15337231744E+03  0.62285796599E+03  0.00000000000E+00 0. -1.
        -13    1    3    3    0    0 -0.31801015562E+03  0.56480911643E+03  0.87014600066E+02  0.65399643554E+03  0.00000000000E+00 0.  1.
         22    1    1    2    0    0  0.65970372123E+03 -0.10624781684E+04 -0.15531472941E+03  0.12602347096E+04  0.00000000000E+00 0. -1.
<mgrwt>
<rscale>  0 0.25356624E+04</rscale>
<asrwt>0</asrwt>
<pdfrwt beam="1">  1        2 0.20170472E+00 0.25356624E+04</pdfrwt>
<pdfrwt beam="2">  1       -2 0.18861669E+00 0.25356624E+04</pdfrwt>
<totfact> 0.22937505E+00</totfact>
</mgrwt>
</event>
<event>
 6    1  0.1072514E-005  0.9235282E+03  0.7818608E-02  0.9396639E-01
          2   -1    0    0  501    0  0.00000000000E+00  0.00000000000E+00  0.18354837630E+04  0.18354837630E+04  0.00000000000E+00 0. -1.
         -2   -1    0    0    0  501 -0.00000000000E+00 -0.00000000000E+00 -0.11616888746E+03  0.11616888746E+03  0.00000000000E+00 0.  1.
         23    2    1    2    0    0 -0.36895217542E+03  0.21093676437E+02  0.14374095242E+04  0.14868502429E+04  0.89481024648E+02 0.  0.
         13    1    3    3    0    0 -0.26546994229E+03  0.46591323121E+02  0.11220809897E+04  0.11539977422E+04  0.00000000000E+00 0. -1.
        -13    1    3    3    0    0 -0.10348223313E+03 -0.25497646684E+02  0.31532853450E+03  0.33285250071E+03  0.00000000000E+00 0.  1.
         22    1    1    2    0    0  0.36895217542E+03 -0.21093676437E+02  0.28190535139E+03  0.46480240756E+03  0.00000000000E+00 0.  1.
<mgrwt>
<rscale>  0 0.92352825E+03</rscale>
<asrwt>0</asrwt>
<pdfrwt beam="1">  1        2 0.28238210E+00 0.92352825E+03</pdfrwt>
<pdfrwt beam="2">  1       -2 0.17872138E-01 0.92352825E+03</pdfrwt>
<totfact> 0.21559798E+02</totfact>
</mgrwt>
</event>
<event>
 6    1  0.1072514E-005  0.3188454E+04  0.7818608E-02  0.8191873E-01
         -2   -1    0    0    0  501 -0.00000000000E+00  0.00000000000E+00  0.11186144871E+04  0.11186144871E+04  0.00000000000E+00 0.  1.
          2   -1    0    0  501    0  0.00000000000E+00 -0.00000000000E+00 -0.22720597370E+04  0.22720597370E+04  0.00000000000E+00 0. -1.
         23    2    1    2    0    0 -0.92237691808E+03 -0.10308303761E+04  0.26321345139E+03  0.14106963659E+04  0.85979489054E+02 0.  0.
         13    1    3    3    0    0 -0.55201796860E+03 -0.62180727495E+03  0.11538677413E+03  0.83945353206E+03  0.00000000000E+00 0. -1.
        -13    1    3    3    0    0 -0.37035894949E+03 -0.40902310113E+03  0.14782667725E+03  0.57124283386E+03  0.00000000000E+00 0.  1.
         22    1    1    2    0    0  0.92237691808E+03  0.10308303761E+04 -0.14166587012E+04  0.19799778582E+04  0.00000000000E+00 0. -1.
<mgrwt>
<rscale>  0 0.31884535E+04</rscale>
<asrwt>0</asrwt>
<pdfrwt beam="1">  1        2 0.34954765E+00 0.31884535E+04</pdfrwt>
<pdfrwt beam="2">  1       -2 0.17209454E+00 0.31884535E+04</pdfrwt>
<totfact> 0.81624288E-01</totfact>
</mgrwt>
</event>
<event>
 6    1  0.1072514E-005  0.1888148E+04  0.7818608E-02  0.8660779E-01
         -2   -1    0    0    0  501 -0.00000000000E+00  0.00000000000E+00  0.76809755035E+03  0.76809755035E+03  0.00000000000E+00 0.  1.
          2   -1    0    0  501    0  0.00000000000E+00 -0.00000000000E+00 -0.11603673521E+04  0.11603673521E+04  0.00000000000E+00 0. -1.
         23    2    1    2    0    0  0.51468573652E+03  0.75726549429E+03 -0.41863360615E+03  0.10124695496E+04  0.10718235157E+03 0.  0.
         13    1    3    3    0    0  0.87112799095E+02  0.19046055026E+03 -0.12687556373E+03  0.24486990351E+03  0.00000000000E+00 0. -1.
        -13    1    3    3    0    0  0.42757293742E+03  0.56680494403E+03 -0.29175804242E+03  0.76759964611E+03  0.00000000000E+00 0.  1.
         22    1    1    2    0    0 -0.51468573652E+03 -0.75726549429E+03  0.26363804406E+02  0.91599535283E+03  0.00000000000E+00 0.  1.
<mgrwt>
<rscale>  0 0.18881476E+04</rscale>
<asrwt>0</asrwt>
<pdfrwt beam="1">  1        2 0.17851805E+00 0.18881476E+04</pdfrwt>
<pdfrwt beam="2">  1       -2 0.11816885E+00 0.18881476E+04</pdfrwt>
<totfact> 0.10349935E+01</totfact>
</mgrwt>
</event>
<event>
 6    1  0.1072514E-005  0.2129663E+04  0.7818608E-02  0.8548288E-01
         -2   -1    0    0    0  501 -0.00000000000E+00  0.00000000000E+00  0.84335611679E+03  0.84335611679E+03  0.00000000000E+00 0.  1.
          2   -1    0    0  501    0  0.00000000000E+00 -0.00000000000E+00 -0.13444692715E+04  0.13444692715E+04  0.00000000000E+00 0. -1.
         23    2    1    2    0    0  0.77172124617E+03 -0.58977234846E+03 -0.69429283260E+03  0.11975206409E+04  0.92887260300E+02 0.  0.
         13    1    3    3    0    0  0.15317125686E+03 -0.13712774494E+03 -0.19064938915E+03  0.28037946063E+03  0.00000000000E+00 0. -1.
        -13    1    3    3    0    0  0.61854998931E+03 -0.45264460353E+03 -0.50364344345E+03  0.91714118025E+03  0.00000000000E+00 0.  1.
         22    1    1    2    0    0 -0.77172124617E+03  0.58977234846E+03  0.19317967790E+03  0.99030474741E+03  0.00000000000E+00 0.  1.
<mgrwt>
<rscale>  0 0.21296632E+04</rscale>
<asrwt>0</asrwt>
<pdfrwt beam="1">  1        2 0.20684142E+00 0.21296632E+04</pdfrwt>
<pdfrwt beam="2">  1       -2 0.12974710E+00 0.21296632E+04</pdfrwt>
<totfact> 0.62508750E+00</totfact>
</mgrwt>
</event>
<event>
 6    1  0.1072514E-005  0.3318312E+04  0.7818608E-02  0.8158251E-01
         -2   -1    0    0    0  501 -0.00000000000E+00  0.00000000000E+00  0.15074682165E+04  0.15074682165E+04  0.00000000000E+00 0. -1.
          2   -1    0    0  501    0  0.00000000000E+00 -0.00000000000E+00 -0.18261074903E+04  0.18261074903E+04  0.00000000000E+00 0.  1.
         23    2    1    2    0    0  0.29541980575E+03 -0.92033898466E+03 -0.15119173556E+04  0.17979294947E+04  0.11117404984E+03 0.  0.
         13    1    3    3    0    0  0.82128450446E+02 -0.31968922206E+03 -0.60906347071E+03  0.69275146512E+03  0.00000000000E+00 0. -1.
        -13    1    3    3    0    0  0.21329135530E+03 -0.60064976260E+03 -0.90285388492E+03  0.11051780296E+04  0.00000000000E+00 0.  1.
         22    1    1    2    0    0 -0.29541980575E+03  0.92033898466E+03  0.11932780818E+04  0.15356462122E+04  0.00000000000E+00 0. -1.
<mgrwt>
<rscale>  0 0.33183122E+04</rscale>
<asrwt>0</asrwt>
<pdfrwt beam="1">  1        2 0.28093961E+00 0.33183122E+04</pdfrwt>
<pdfrwt beam="2">  1       -2 0.23191819E+00 0.33183122E+04</pdfrwt>
<totfact> 0.57888733E-01</totfact>
</mgrwt>
</event>
<event>
 6    1  0.1072514E-005  0.2105539E+04  0.7818608E-02  0.8558807E-01
         -2   -1    0    0    0  501 -0.00000000000E+00  0.00000000000E+00  0.73610164963E+03  0.73610164963E+03  0.00000000000E+00 0.  1.
          2   -1    0    0  501    0  0.00000000000E+00 -0.00000000000E+00 -0.15056660927E+04  0.15056660927E+04  0.00000000000E+00 0. -1.
         23    2    1    2    0    0  0.24168836451E+03  0.72692737456E+03 -0.11508134493E+04  0.13860882006E+04  0.10016102664E+03 0.  0.
         13    1    3    3    0    0  0.36938111795E+02  0.20915235712E+03 -0.37812387279E+03  0.43368974598E+03  0.00000000000E+00 0. -1.
        -13    1    3    3    0    0  0.20475025271E+03  0.51777501744E+03 -0.77268957652E+03  0.95239845460E+03  0.00000000000E+00 0.  1.
         22    1    1    2    0    0 -0.24168836451E+03 -0.72692737456E+03  0.38124900623E+03  0.85567954175E+03  0.00000000000E+00 0.  1.
<mgrwt>
<rscale>  0 0.21055387E+04</rscale>
<asrwt>0</asrwt>
<pdfrwt beam="1">  1        2 0.23164093E+00 0.21055387E+04</pdfrwt>
<pdfrwt beam="2">  1       -2 0.11324641E+00 0.21055387E+04</pdfrwt>
<totfact> 0.71065184E+00</totfact>
</mgrwt>
</event>
<event>
 6    1  0.1072514E-005  0.1895745E+04  0.7818608E-02  0.8656977E-01
          1   -1    0    0  501    0  0.00000000000E+00  0.00000000000E+00  0.14042215622E+04  0.14042215622E+04  0.00000000000E+00 0. -1.
         -1   -1    0    0    0  501 -0.00000000000E+00 -0.00000000000E+00 -0.63982974363E+03  0.63982974363E+03  0.00000000000E+00 0.  1.
         23    2    1    2    0    0  0.48590504416E+03  0.77055099260E+03  0.10976250102E+03  0.92227053956E+03  0.93180455927E+02 0.  0.
         11    1    3    3    0    0  0.17790161417E+03  0.36830501697E+03  0.43309288532E+02  0.41130677641E+03  0.00000000000E+00 0.  1.
        -11    1    3    3    0    0  0.30800342999E+03  0.40224597563E+03  0.66453212488E+02  0.51096376314E+03  0.00000000000E+00 0. -1.
         22    1    1    2    0    0 -0.48590504416E+03 -0.77055099260E+03  0.65462931750E+03  0.11217807662E+04  0.00000000000E+00 0. -1.
<mgrwt>
<rscale>  0 0.18957455E+04</rscale>
<asrwt>0</asrwt>
<pdfrwt beam="1">  1        1 0.21603409E+00 0.18957455E+04</pdfrwt>
<pdfrwt beam="2">  1       -1 0.98435345E-01 0.18957455E+04</pdfrwt>
<totfact> 0.70566022E+00</totfact>
</mgrwt>
</event>
<event>
 6    1  0.1072514E-005  0.1323210E+04  0.7818608E-02  0.9011359E-01
          1   -1    0    0  501    0  0.00000000000E+00  0.00000000000E+00  0.18440496908E+04  0.18440496908E+04  0.00000000000E+00 0. -1.
         -1   -1    0    0    0  501 -0.00000000000E+00 -0.00000000000E+00 -0.23736968519E+03  0.23736968519E+03  0.00000000000E+00 0.  1.
         23    2    1    2    0    0  0.53048742942E+03  0.24834396988E+03  0.33374957781E+03  0.68019008919E+03  0.90433050287E+02 0.  0.
         11    1    3    3    0    0  0.17362843160E+03  0.12251216291E+03  0.14563908430E+03  0.25761755607E+03  0.00000000000E+00 0. -1.
        -11    1    3    3    0    0  0.35685899782E+03  0.12583180698E+03  0.18811049351E+03  0.42257253312E+03  0.00000000000E+00 0.  1.
         22    1    1    2    0    0 -0.53048742942E+03 -0.24834396988E+03  0.12729304278E+04  0.14012292868E+04  0.00000000000E+00 0. -1.
<mgrwt>
<rscale>  0 0.13232105E+04</rscale>
<asrwt>0</asrwt>
<pdfrwt beam="1">  1        1 0.28369994E+00 0.13232105E+04</pdfrwt>
<pdfrwt beam="2">  1       -1 0.36518414E-01 0.13232105E+04</pdfrwt>
<totfact> 0.26826364E+01</totfact>
</mgrwt>
</event>
<event>
 6    1  0.1072514E-005  0.4212867E+04  0.7818608E-02  0.7962929E-01
          2   -1    0    0  501    0  0.00000000000E+00  0.00000000000E+00  0.36175126249E+04  0.36175126249E+04  0.00000000000E+00 0. -1.
         -2   -1    0    0    0  501 -0.00000000000E+00 -0.00000000000E+00 -0.12265504075E+04  0.12265504075E+04  0.00000000000E+00 0.  1.
         23    2    1    2    0    0  0.15658688746E+04  0.12068593182E+04  0.36294920019E+03  0.20118745598E+04  0.86327145938E+02 0.  0.
         11    1    3    3    0    0  0.11953546719E+04  0.91011405657E+03  0.31204038136E+03  0.15344541659E+04  0.00000000000E+00 0.  1.
        -11    1    3    3    0    0  0.37051420263E+03  0.29674526161E+03  0.50908818830E+02  0.47742039386E+03  0.00000000000E+00 0. -1.
         22    1    1    2    0    0 -0.15658688746E+04 -0.12068593182E+04  0.20280130173E+04  0.28321884726E+04  0.00000000000E+00 0. -1.
<mgrwt>
<rscale>  0 0.42128668E+04</rscale>
<asrwt>0</asrwt>
<pdfrwt beam="1">  1        2 0.55654040E+00 0.42128668E+04</pdfrwt>
<pdfrwt beam="2">  1       -2 0.18870006E+00 0.42128668E+04</pdfrwt>
<totfact> 0.82059854E-02</totfact>
</mgrwt>
</event>
<event>
 6    1  0.1072514E-005  0.3436474E+04  0.7818608E-02  0.8129012E-01
         -2   -1    0    0    0  501 -0.00000000000E+00  0.00000000000E+00  0.14877094146E+04  0.14877094146E+04  0.00000000000E+00 0.  1.
          2   -1    0    0  501    0  0.00000000000E+00 -0.00000000000E+00 -0.19844858772E+04  0.19844858772E+04  0.00000000000E+00 0. -1.
         23    2    1    2    0    0  0.14569432164E+04  0.80576574071E+03  0.17525712803E+03  0.16767646718E+04  0.94248283387E+02 0.  0.
         13    1    3    3    0    0  0.79414439705E+03  0.39130195945E+03  0.11451857406E+03  0.89269090431E+03  0.00000000000E+00 0. -1.
        -13    1    3    3    0    0  0.66279881932E+03  0.41446378126E+03  0.60738553967E+02  0.78407376745E+03  0.00000000000E+00 0.  1.
         22    1    1    2    0    0 -0.14569432164E+04 -0.80576574071E+03 -0.67203359056E+03  0.17954306201E+04  0.00000000000E+00 0. -1.
<mgrwt>
<rscale>  0 0.34364740E+04</rscale>
<asrwt>0</asrwt>
<pdfrwt beam="1">  1        2 0.30530552E+00 0.34364740E+04</pdfrwt>
<pdfrwt beam="2">  1       -2 0.22887837E+00 0.34364740E+04</pdfrwt>
<totfact> 0.48919046E-01</totfact>
</mgrwt>
</event>
<event>
 6    1  0.1072514E-005  0.8750314E+03  0.7818608E-02  0.9457343E-01
         -2   -1    0    0    0  501 -0.00000000000E+00  0.00000000000E+00  0.59443571047E+03  0.59443571047E+03  0.00000000000E+00 0.  1.
          2   -1    0    0  501    0  0.00000000000E+00 -0.00000000000E+00 -0.32201968588E+03  0.32201968588E+03  0.00000000000E+00 0. -1.
         23    2    1    2    0    0 -0.39252748763E+03  0.85676007704E+02  0.30510870983E+03  0.51335861081E+03  0.95013323486E+02 0.  0.
         13    1    3    3    0    0 -0.85181707464E+02 -0.78794185475E+00  0.11021724216E+03  0.13929962171E+03  0.00000000000E+00 0.  1.
        -13    1    3    3    0    0 -0.30734578017E+03  0.86463949559E+02  0.19489146767E+03  0.37405898911E+03  0.00000000000E+00 0. -1.
         22    1    1    2    0    0  0.39252748763E+03 -0.85676007704E+02 -0.32692685241E+02  0.40309678554E+03  0.00000000000E+00 0. -1.
<mgrwt>
<rscale>  0 0.87503143E+03</rscale>
<asrwt>0</asrwt>
<pdfrwt beam="1">  1        2 0.49541490E-01 0.87503143E+03</pdfrwt>
<pdfrwt beam="2">  1       -2 0.91451648E-01 0.87503143E+03</pdfrwt>
<totfact> 0.10379192E+02</totfact>
</mgrwt>
</event>
<event>
 6    1  0.1072514E-005  0.1862891E+04  0.7818608E-02  0.8673552E-01
         -2   -1    0    0    0  501 -0.00000000000E+00  0.00000000000E+00  0.30655333628E+04  0.30655333628E+04  0.00000000000E+00 0.  1.
          2   -1    0    0  501    0  0.00000000000E+00 -0.00000000000E+00 -0.28301461835E+03  0.28301461835E+03  0.00000000000E+00 0. -1.
         23    2    1    2    0    0  0.15862942416E+03 -0.72214168421E+03  0.38293154852E+03  0.83763766473E+03  0.91369471023E+02 0.  0.
         13    1    3    3    0    0  0.64849220856E+02 -0.45462092643E+03  0.26830162065E+03  0.53185652937E+03  0.00000000000E+00 0. -1.
        -13    1    3    3    0    0  0.93780203308E+02 -0.26752075778E+03  0.11462992788E+03  0.30578113536E+03  0.00000000000E+00 0.  1.
         22    1    1    2    0    0 -0.15862942416E+03  0.72214168421E+03  0.23995871959E+04  0.25109103164E+04  0.00000000000E+00 0.  1.
<mgrwt>
<rscale>  0 0.18628910E+04</rscale>
<asrwt>0</asrwt>
<pdfrwt beam="1">  1        2 0.43540713E-01 0.18628910E+04</pdfrwt>
<pdfrwt beam="2">  1       -2 0.47162049E+00 0.18628910E+04</pdfrwt>
<totfact> 0.27573161E-01</totfact>
</mgrwt>
</event>
<event>
 6    1  0.1072514E-005  0.2250674E+04  0.7818608E-02  0.8497627E-01
          1   -1    0    0  501    0  0.00000000000E+00  0.00000000000E+00  0.57225125688E+03  0.57225125688E+03  0.00000000000E+00 0. -1.
         -1   -1    0    0    0  501 -0.00000000000E+00 -0.00000000000E+00 -0.22129857572E+04  0.22129857572E+04  0.00000000000E+00 0.  1.
         23    2    1    2    0    0  0.46763457815E+03 -0.10096455417E+04 -0.10139646967E+04  0.15081674760E+04  0.91534205718E+02 0.  0.
         11    1    3    3    0    0  0.38625635495E+03 -0.74208862924E+03 -0.74779027173E+03  0.11220872497E+04  0.00000000000E+00 0.  1.
        -11    1    3    3    0    0  0.81378223196E+02 -0.26755691243E+03 -0.26617442500E+03  0.38608022628E+03  0.00000000000E+00 0. -1.
         22    1    1    2    0    0 -0.46763457815E+03  0.10096455417E+04 -0.62676980356E+03  0.12770695381E+04  0.00000000000E+00 0. -1.
<mgrwt>
<rscale>  0 0.22506745E+04</rscale>
<asrwt>0</asrwt>
<pdfrwt beam="1">  1        1 0.88038654E-01 0.22506745E+04</pdfrwt>
<pdfrwt beam="2">  1       -1 0.34045935E+00 0.22506745E+04</pdfrwt>
<totfact> 0.59840599E-01</totfact>
</mgrwt>
</event>
<event>
 6    1  0.1072514E-005  0.1883809E+04  0.7818608E-02  0.8662958E-01
          1   -1    0    0  501    0  0.00000000000E+00  0.00000000000E+00  0.18449920435E+04  0.18449920435E+04  0.00000000000E+00 0. -1.
         -1   -1    0    0    0  501 -0.00000000000E+00 -0.00000000000E+00 -0.48086045563E+03  0.48086045563E+03  0.00000000000E+00 0.  1.
         23    2    1    2    0    0 -0.68448306151E+03 -0.21563074071E+03 -0.65032958584E+02  0.72662613033E+03  0.93501709801E+02 0.  0.
         13    1    3    3    0    0 -0.34952229219E+03 -0.62428026560E+02 -0.21074999942E+02  0.35567857240E+03  0.00000000000E+00 0.  1.
        -13    1    3    3    0    0 -0.33496076932E+03 -0.15320271415E+03 -0.43957958641E+02  0.37094755793E+03  0.00000000000E+00 0. -1.
         22    1    1    2    0    0  0.68448306151E+03  0.21563074071E+03  0.14291645465E+04  0.15992263688E+04  0.00000000000E+00 0. -1.
<mgrwt>
<rscale>  0 0.18838086E+04</rscale>
<asrwt>0</asrwt>
<pdfrwt beam="1">  1        1 0.28384493E+00 0.18838086E+04</pdfrwt>
<pdfrwt beam="2">  1       -1 0.73978532E-01 0.18838086E+04</pdfrwt>
<totfact> 0.65449781E+00</totfact>
</mgrwt>
</event>
<event>
 6    1  0.1072514E-005  0.2161754E+04  0.7818608E-02  0.8534518E-01
          1   -1    0    0  501    0  0.00000000000E+00  0.00000000000E+00  0.26295037103E+04  0.26295037103E+04  0.00000000000E+00 0. -1.
         -1   -1    0    0    0  501 -0.00000000000E+00 -0.00000000000E+00 -0.44430251015E+03  0.44430251015E+03  0.00000000000E+00 0.  1.
         23    2    1    2    0    0 -0.39578287188E+03 -0.42118744975E+03  0.23900541159E+04  0.24606115804E+04  0.90596484092E+02 0.  0.
         11    1    3    3    0    0 -0.22730513832E+03 -0.30143195861E+03  0.16045978986E+04  0.16484123476E+04  0.00000000000E+00 0. -1.
        -11    1    3    3    0    0 -0.16847773356E+03 -0.11975549114E+03  0.78545621737E+03  0.81219923281E+03  0.00000000000E+00 0.  1.
         22    1    1    2    0    0  0.39578287188E+03  0.42118744975E+03 -0.20485291579E+03  0.61319464007E+03  0.00000000000E+00 0.  1.
<mgrwt>
<rscale>  0 0.21617540E+04</rscale>
<asrwt>0</asrwt>
<pdfrwt beam="1">  1        1 0.40453902E+00 0.21617540E+04</pdfrwt>
<pdfrwt beam="2">  1       -1 0.68354234E-01 0.21617540E+04</pdfrwt>
<totfact> 0.21809426E+00</totfact>
</mgrwt>
</event>
<event>
 6    1  0.1072514E-005  0.8253160E+03  0.7818608E-02  0.9524079E-01
         -2   -1    0    0    0  501 -0.00000000000E+00  0.00000000000E+00  0.40405315839E+03  0.40405315839E+03  0.00000000000E+00 0.  1.
          2   -1    0    0  501    0  0.00000000000E+00 -0.00000000000E+00 -0.42144607967E+03  0.42144607967E+03  0.00000000000E+00 0. -1.
         23    2    1    2    0    0 -0.16043354950E+03  0.75448862112E+02  0.35845845520E+03  0.40993250238E+03  0.90115136378E+02 0.  0.
         11    1    3    3    0    0 -0.12592602493E+03  0.31191826159E+02  0.30900012339E+03  0.33512888570E+03  0.00000000000E+00 0.  1.
        -11    1    3    3    0    0 -0.34507524568E+02  0.44257035952E+02  0.49458331805E+02  0.74803616677E+02  0.00000000000E+00 0. -1.
         22    1    1    2    0    0  0.16043354950E+03 -0.75448862112E+02 -0.37585137648E+03  0.41556673567E+03  0.00000000000E+00 0. -1.
<mgrwt>
<rscale>  0 0.82531599E+03</rscale>
<asrwt>0</asrwt>
<pdfrwt beam="1">  1        2 0.64837858E-01 0.82531599E+03</pdfrwt>
<pdfrwt beam="2">  1       -2 0.62162025E-01 0.82531599E+03</pdfrwt>
<totfact> 0.18128687E+02</totfact>
</mgrwt>
</event>
<event>
 6    1  0.1072514E-005  0.1558962E+04  0.7818608E-02  0.8846163E-01
         -2   -1    0    0    0  501 -0.00000000000E+00  0.00000000000E+00  0.92031761676E+03  0.92031761676E+03  0.00000000000E+00 0.  1.
          2   -1    0    0  501    0  0.00000000000E+00 -0.00000000000E+00 -0.66019697441E+03  0.66019697441E+03  0.00000000000E+00 0. -1.
         23    2    1    2    0    0  0.36472075629E+03  0.68384437082E+03  0.18416293507E+03  0.80177591428E+03  0.90908066154E+02 0.  0.
         13    1    3    3    0    0  0.75857384685E+02  0.76221708821E+02  0.26888957477E+02  0.11084722703E+03  0.00000000000E+00 0. -1.
        -13    1    3    3    0    0  0.28886337161E+03  0.60762266200E+03  0.15727397759E+03  0.69092868725E+03  0.00000000000E+00 0.  1.
         22    1    1    2    0    0 -0.36472075629E+03 -0.68384437082E+03  0.75957707281E+02  0.77873867688E+03  0.00000000000E+00 0.  1.
<mgrwt>
<rscale>  0 0.15589624E+04</rscale>
<asrwt>0</asrwt>
<pdfrwt beam="1">  1        2 0.10156876E+00 0.15589624E+04</pdfrwt>
<pdfrwt beam="2">  1       -2 0.14158733E+00 0.15589624E+04</pdfrwt>
<totfact> 0.14787605E+01</totfact>
</mgrwt>
</event>
<event>
 6    1  0.1072514E-005  0.5346195E+04  0.7818608E-02  0.7777215E-01
         -2   -1    0    0    0  501 -0.00000000000E+00  0.00000000000E+00  0.26725993034E+04  0.26725993034E+04  0.00000000000E+00 0.  1.
          2   -1    0    0  501    0  0.00000000000E+00 -0.00000000000E+00 -0.26735961919E+04  0.26735961919E+04  0.00000000000E+00 0. -1.
         23    2    1    2    0    0  0.25458347698E+04 -0.14735795709E+03  0.79846135864E+03  0.26737205130E+04  0.90839404837E+02 0.  0.
         11    1    3    3    0    0  0.13346125099E+03 -0.13575866321E+02  0.62811766422E+02  0.14812672839E+03  0.00000000000E+00 0. -1.
        -11    1    3    3    0    0  0.24123735188E+04 -0.13378209077E+03  0.73564959221E+03  0.25255937846E+04  0.00000000000E+00 0.  1.
         22    1    1    2    0    0 -0.25458347698E+04  0.14735795709E+03 -0.79945824713E+03  0.26724749824E+04  0.00000000000E+00 0. -1.
<mgrwt>
<rscale>  0 0.53461954E+04</rscale>
<asrwt>0</asrwt>
<pdfrwt beam="1">  1        2 0.41132249E+00 0.53461954E+04</pdfrwt>
<pdfrwt beam="2">  1       -2 0.41116912E+00 0.53461954E+04</pdfrwt>
<totfact> 0.12244043E-02</totfact>
</mgrwt>
</event>
<event>
 6    1  0.1072514E-005  0.2331684E+04  0.7818608E-02  0.8465532E-01
         -1   -1    0    0    0  501 -0.00000000000E+00  0.00000000000E+00  0.19936480405E+04  0.19936480405E+04  0.00000000000E+00 0.  1.
          1   -1    0    0  501    0  0.00000000000E+00 -0.00000000000E+00 -0.68175876211E+03  0.68175876211E+03  0.00000000000E+00 0. -1.
         23    2    1    2    0    0 -0.55323848734E+03  0.48303578748E+03  0.16932460246E+04  0.18478626264E+04  0.90098781143E+02 0.  0.
         13    1    3    3    0    0 -0.53044685892E+03  0.43393749972E+03  0.15509390681E+04  0.16956083324E+04  0.00000000000E+00 0. -1.
        -13    1    3    3    0    0 -0.22791628428E+02  0.49098287755E+02  0.14230695645E+03  0.15225429400E+03  0.00000000000E+00 0.  1.
         22    1    1    2    0    0  0.55323848734E+03 -0.48303578748E+03 -0.38135674613E+03  0.82754417627E+03  0.00000000000E+00 0. -1.
<mgrwt>
<rscale>  0 0.23316835E+04</rscale>
<asrwt>0</asrwt>
<pdfrwt beam="1">  1        1 0.10488596E+00 0.23316835E+04</pdfrwt>
<pdfrwt beam="2">  1       -1 0.30671508E+00 0.23316835E+04</pdfrwt>
<totfact> 0.76375234E-01</totfact>
</mgrwt>
</event>
<event>
 6    1  0.1072514E-005  0.4326991E+04  0.7818608E-02  0.7941646E-01
         -2   -1    0    0    0  501 -0.00000000000E+00  0.00000000000E+00  0.11313017667E+04  0.11313017667E+04  0.00000000000E+00 0.  1.
          2   -1    0    0  501    0  0.00000000000E+00 -0.00000000000E+00 -0.41374567935E+04  0.41374567935E+04  0.00000000000E+00 0. -1.
         23    2    1    2    0    0 -0.15949895312E+04 -0.68363346878E+03  0.67648522921E+02  0.17389406349E+04  0.89397342174E+02 0.  0.
         13    1    3    3    0    0 -0.12425393708E+03 -0.73569040403E+02  0.21798504386E+02  0.14603636321E+03  0.00000000000E+00 0. -1.
        -13    1    3    3    0    0 -0.14707355941E+04 -0.61006442838E+03  0.45850018535E+02  0.15929042717E+04  0.00000000000E+00 0.  1.
         22    1    1    2    0    0  0.15949895312E+04  0.68363346878E+03 -0.30738035497E+04  0.35298179254E+04  0.00000000000E+00 0. -1.
<mgrwt>
<rscale>  0 0.43269907E+04</rscale>
<asrwt>0</asrwt>
<pdfrwt beam="1">  1        2 0.63653181E+00 0.43269907E+04</pdfrwt>
<pdfrwt beam="2">  1       -2 0.17404643E+00 0.43269907E+04</pdfrwt>
<totfact> 0.40145146E-02</totfact>
</mgrwt>
</event>
<event>
 6    1  0.1072514E-005  0.1966776E+04  0.7818608E-02  0.8622313E-01
         -1   -1    0    0    0  501 -0.00000000000E+00  0.00000000000E+00  0.10377706874E+04  0.10377706874E+04  0.00000000000E+00 0.  1.
          1   -1    0    0  501    0  0.00000000000E+00 -0.00000000000E+00 -0.93185531325E+03  0.93185531325E+03  0.00000000000E+00 0. -1.
         23    2    1    2    0    0 -0.13381663756E+03 -0.44283721751E+03 -0.81363647641E+03  0.94026343110E+03  0.89884984422E+02 0.  0.
         11    1    3    3    0    0 -0.12289285666E+02 -0.30921152580E+02 -0.11918403218E+03  0.12374157647E+03  0.00000000000E+00 0. -1.
        -11    1    3    3    0    0 -0.12152735189E+03 -0.41191606493E+03 -0.69445244423E+03  0.81652185464E+03  0.00000000000E+00 0.  1.
         22    1    1    2    0    0  0.13381663756E+03  0.44283721751E+03  0.91955185055E+03  0.10293625695E+04  0.00000000000E+00 0.  1.
<mgrwt>
<rscale>  0 0.19667762E+04</rscale>
<asrwt>0</asrwt>
<pdfrwt beam="1">  1        1 0.14336236E+00 0.19667762E+04</pdfrwt>
<pdfrwt beam="2">  1       -1 0.15965703E+00 0.19667762E+04</pdfrwt>
<totfact> 0.46884096E+00</totfact>
</mgrwt>
</event>
<event>
 6    1  0.1072514E-005  0.2917607E+04  0.7818608E-02  0.8267658E-01
          1   -1    0    0  501    0  0.00000000000E+00  0.00000000000E+00  0.12206603581E+04  0.12206603581E+04  0.00000000000E+00 0. -1.
         -1   -1    0    0    0  501 -0.00000000000E+00 -0.00000000000E+00 -0.17434063953E+04  0.17434063953E+04  0.00000000000E+00 0.  1.
         23    2    1    2    0    0  0.90375305902E+03 -0.68171187515E+03  0.67083571628E+03  0.13190323845E+04  0.91242538354E+02 0.  0.
         11    1    3    3    0    0  0.13496025417E+03 -0.72997804909E+02  0.11597119914E+03  0.19233374316E+03  0.00000000000E+00 0. -1.
        -11    1    3    3    0    0  0.76879280485E+03 -0.60871407024E+03  0.55486451714E+03  0.11266986414E+04  0.00000000000E+00 0.  1.
         22    1    1    2    0    0 -0.90375305902E+03  0.68171187515E+03 -0.11935817535E+04  0.16450343688E+04  0.00000000000E+00 0.  1.
<mgrwt>
<rscale>  0 0.29176066E+04</rscale>
<asrwt>0</asrwt>
<pdfrwt beam="1">  1        1 0.18779390E+00 0.29176066E+04</pdfrwt>
<pdfrwt beam="2">  1       -1 0.26821637E+00 0.29176066E+04</pdfrwt>
<totfact> 0.46935909E-01</totfact>
</mgrwt>
</event>
<event>
 6    1  0.1072514E-005  0.2433867E+04  0.7818608E-02  0.8426932E-01
         -1   -1    0    0    0  501 -0.00000000000E+00  0.00000000000E+00  0.12722452406E+04  0.12722452406E+04  0.00000000000E+00 0.  1.
          1   -1    0    0  501    0  0.00000000000E+00 -0.00000000000E+00 -0.11640260896E+04  0.11640260896E+04  0.00000000000E+00 0. -1.
         23    2    1    2    0    0  0.10085381145E+04  0.60577184281E+03 -0.25366387773E+03  0.12053903529E+04  0.67170575458E+02 0.  0.
         11    1    3    3    0    0  0.35048851512E+03  0.18684939966E+03 -0.11065377938E+03  0.41230953940E+03  0.00000000000E+00 0. -1.
        -11    1    3    3    0    0  0.65804959936E+03  0.41892244315E+03 -0.14301009835E+03  0.79308081355E+03  0.00000000000E+00 0.  1.
         22    1    1    2    0    0 -0.10085381145E+04 -0.60577184281E+03  0.36188302873E+03  0.12308809773E+04  0.00000000000E+00 0. -1.
<mgrwt>
<rscale>  0 0.24338666E+04</rscale>
<asrwt>0</asrwt>
<pdfrwt beam="1">  1        1 0.17908094E+00 0.24338666E+04</pdfrwt>
<pdfrwt beam="2">  1       -1 0.19573004E+00 0.24338666E+04</pdfrwt>
<totfact> 0.16350386E+00</totfact>
</mgrwt>
</event>
<event>
 6    1  0.1072514E-005  0.4102908E+04  0.7818608E-02  0.7984103E-01
          1   -1    0    0  501    0  0.00000000000E+00  0.00000000000E+00  0.15398861790E+04  0.15398861790E+04  0.00000000000E+00 0. -1.
         -1   -1    0    0    0  501 -0.00000000000E+00 -0.00000000000E+00 -0.27329701660E+04  0.27329701660E+04  0.00000000000E+00 0.  1.
         23    2    1    2    0    0  0.11955633703E+04  0.74063032468E+03 -0.21507455087E+04  0.25713803268E+04  0.91572329171E+02 0.  0.
         11    1    3    3    0    0  0.63638979198E+03  0.35663515211E+03 -0.11741213115E+04  0.13822957184E+04  0.00000000000E+00 0. -1.
        -11    1    3    3    0    0  0.55917357834E+03  0.38399517257E+03 -0.97662419721E+03  0.11890846084E+04  0.00000000000E+00 0.  1.
         22    1    1    2    0    0 -0.11955633703E+04 -0.74063032468E+03  0.95766152170E+03  0.17014760182E+04  0.00000000000E+00 0. -1.
<mgrwt>
<rscale>  0 0.41029077E+04</rscale>
<asrwt>0</asrwt>
<pdfrwt beam="1">  1        1 0.23690557E+00 0.41029077E+04</pdfrwt>
<pdfrwt beam="2">  1       -1 0.42045695E+00 0.41029077E+04</pdfrwt>
<totfact> 0.24648120E-02</totfact>
</mgrwt>
</event>
<event>
 6    1  0.1072514E-005  0.2753186E+04  0.7818608E-02  0.8317951E-01
          2   -1    0    0  501    0  0.00000000000E+00  0.00000000000E+00  0.22160545166E+04  0.22160545166E+04  0.00000000000E+00 0. -1.
         -2   -1    0    0    0  501 -0.00000000000E+00 -0.00000000000E+00 -0.85512741675E+03  0.85512741675E+03  0.00000000000E+00 0.  1.
         23    2    1    2    0    0  0.13780816164E+03  0.13551120050E+04  0.89099565227E+03  0.16302949839E+04  0.93106641275E+02 0.  0.
         11    1    3    3    0    0 -0.48084682188E+01  0.34356801725E+03  0.23405631243E+03  0.41574566893E+03  0.00000000000E+00 0. -1.
        -11    1    3    3    0    0  0.14261662986E+03  0.10115439878E+04  0.65693933984E+03  0.12145493150E+04  0.00000000000E+00 0.  1.
         22    1    1    2    0    0 -0.13780816164E+03 -0.13551120050E+04  0.46993144755E+03  0.14408869494E+04  0.00000000000E+00 0.  1.
<mgrwt>
<rscale>  0 0.27531865E+04</rscale>
<asrwt>0</asrwt>
<pdfrwt beam="1">  1        2 0.34093146E+00 0.27531865E+04</pdfrwt>
<pdfrwt beam="2">  1       -2 0.13155807E+00 0.27531865E+04</pdfrwt>
<totfact> 0.18612929E+00</totfact>
</mgrwt>
</event>
<event>
 6    1  0.1072514E-005  0.1169653E+04  0.7818608E-02  0.9139841E-01
          2   -1    0    0  501    0  0.00000000000E+00  0.00000000000E+00  0.21254467700E+04  0.21254467700E+04  0.00000000000E+00 0. -1.
         -2   -1    0    0    0  501 -0.00000000000E+00 -0.00000000000E+00 -0.16091784941E+03  0.16091784941E+03  0.00000000000E+00 0.  1.
         23    2    1    2    0    0 -0.18914343193E+03 -0.48274328256E+03  0.47384212082E+03  0.70808598439E+03  0.89683282316E+02 0.  0.
         11    1    3    3    0    0 -0.15295085683E+03 -0.30213530394E+03  0.34404964559E+03  0.48275238490E+03  0.00000000000E+00 0. -1.
        -11    1    3    3    0    0 -0.36192575100E+02 -0.18060797863E+03  0.12979247522E+03  0.22533359950E+03  0.00000000000E+00 0.  1.
         22    1    1    2    0    0  0.18914343193E+03  0.48274328256E+03  0.14906867997E+04  0.15782786350E+04  0.00000000000E+00 0. -1.
<mgrwt>
<rscale>  0 0.11696535E+04</rscale>
<asrwt>0</asrwt>
<pdfrwt beam="1">  1        2 0.32699179E+00 0.11696535E+04</pdfrwt>
<pdfrwt beam="2">  1       -2 0.24756594E-01 0.11696535E+04</pdfrwt>
<totfact> 0.82311332E+01</totfact>
</mgrwt>
</event>
<event>
 6    1  0.1072514E-005  0.3971926E+04  0.7818608E-02  0.8010234E-01
          2   -1    0    0  501    0  0.00000000000E+00  0.00000000000E+00  0.25260291513E+04  0.25260291513E+04  0.00000000000E+00 0.  1.
         -2   -1    0    0    0  501 -0.00000000000E+00 -0.00000000000E+00 -0.15613629671E+04  0.15613629671E+04  0.00000000000E+00 0. -1.
         23    2    1    2    0    0  0.14893271410E+04 -0.35435806547E+03 -0.81761378561E+03  0.17378843269E+04  0.89914737132E+02 0.  0.
         13    1    3    3    0    0  0.10352207599E+04 -0.23329172498E+03 -0.61092820415E+03  0.12244755291E+04  0.00000000000E+00 0. -1.
        -13    1    3    3    0    0  0.45410638105E+03 -0.12106634049E+03 -0.20668558146E+03  0.51340879784E+03  0.00000000000E+00 0.  1.
         22    1    1    2    0    0 -0.14893271410E+04  0.35435806547E+03  0.17822799698E+04  0.23495077915E+04  0.00000000000E+00 0.  1.
<mgrwt>
<rscale>  0 0.39719257E+04</rscale>
<asrwt>0</asrwt>
<pdfrwt beam="1">  1        2 0.38861987E+00 0.39719257E+04</pdfrwt>
<pdfrwt beam="2">  1       -2 0.24020969E+00 0.39719257E+04</pdfrwt>
<totfact> 0.19631658E-01</totfact>
</mgrwt>
</event>
<event>
 6    1  0.1072514E-005  0.2431482E+04  0.7818608E-02  0.8427810E-01
         -2   -1    0    0    0  501 -0.00000000000E+00  0.00000000000E+00  0.46743773333E+03  0.46743773333E+03  0.00000000000E+00 0.  1.
          2   -1    0    0  501    0  0.00000000000E+00 -0.00000000000E+00 -0.31619753694E+04  0.31619753694E+04  0.00000000000E+00 0. -1.
         23    2    1    2    0    0  0.10450446190E+04 -0.58467221287E+03 -0.10515506121E+04  0.15963449256E+04  0.92728525712E+02 0.  0.
         13    1    3    3    0    0  0.19427394741E+03 -0.14948759535E+03 -0.22974173880E+03  0.33596156678E+03  0.00000000000E+00 0. -1.
        -13    1    3    3    0    0  0.85077067154E+03 -0.43518461752E+03 -0.82180887331E+03  0.12603833588E+04  0.00000000000E+00 0.  1.
         22    1    1    2    0    0 -0.10450446190E+04  0.58467221287E+03 -0.16429870240E+04  0.20330681772E+04  0.00000000000E+00 0. -1.
<mgrwt>
<rscale>  0 0.24314823E+04</rscale>
<asrwt>0</asrwt>
<pdfrwt beam="1">  1        2 0.48645775E+00 0.24314823E+04</pdfrwt>
<pdfrwt beam="2">  1       -2 0.71913497E-01 0.24314823E+04</pdfrwt>
<totfact> 0.21588790E+00</totfact>
</mgrwt>
</event>
<event>
 6    1  0.1072514E-005  0.2919859E+04  0.7818608E-02  0.8266993E-01
          1   -1    0    0  501    0  0.00000000000E+00  0.00000000000E+00  0.14065166117E+04  0.14065166117E+04  0.00000000000E+00 0. -1.
         -1   -1    0    0    0  501 -0.00000000000E+00 -0.00000000000E+00 -0.15153707884E+04  0.15153707884E+04  0.00000000000E+00 0.  1.
         23    2    1    2    0    0 -0.12416393485E+03 -0.87477789694E+03 -0.12156429927E+04  0.15056831299E+04  0.92955635706E+02 0.  0.
         11    1    3    3    0    0 -0.44764773803E+02 -0.36845940585E+03 -0.43490883375E+03  0.57176211172E+03  0.00000000000E+00 0. -1.
        -11    1    3    3    0    0 -0.79399161045E+02 -0.50631849109E+03 -0.78073415895E+03  0.93392101816E+03  0.00000000000E+00 0.  1.
         22    1    1    2    0    0  0.12416393485E+03  0.87477789694E+03  0.11067888160E+04  0.14162042702E+04  0.00000000000E+00 0. -1.
<mgrwt>
<rscale>  0 0.29198590E+04</rscale>
<asrwt>0</asrwt>
<pdfrwt beam="1">  1        1 0.21638717E+00 0.29198590E+04</pdfrwt>
<pdfrwt beam="2">  1       -1 0.23313397E+00 0.29198590E+04</pdfrwt>
<totfact> 0.58620218E-01</totfact>
</mgrwt>
</event>
<event>
 6    1  0.1072514E-005  0.2303810E+04  0.7818608E-02  0.8476421E-01
          1   -1    0    0  501    0  0.00000000000E+00  0.00000000000E+00  0.15614210289E+04  0.15614210289E+04  0.00000000000E+00 0. -1.
         -1   -1    0    0    0  501 -0.00000000000E+00 -0.00000000000E+00 -0.84979310946E+03  0.84979310946E+03  0.00000000000E+00 0.  1.
         23    2    1    2    0    0  0.83984592926E+03  0.38007889912E+02 -0.46520056243E+03  0.96493924736E+03  0.88940447606E+02 0.  0.
         11    1    3    3    0    0  0.38535358325E+03 -0.71735157994E+01 -0.25513107301E+03  0.46221283828E+03  0.00000000000E+00 0. -1.
        -11    1    3    3    0    0  0.45449234601E+03  0.45181405711E+02 -0.21006948941E+03  0.50272640908E+03  0.00000000000E+00 0.  1.
         22    1    1    2    0    0 -0.83984592926E+03 -0.38007889912E+02  0.11768284819E+04  0.14462748910E+04  0.00000000000E+00 0. -1.
<mgrwt>
<rscale>  0 0.23038097E+04</rscale>
<asrwt>0</asrwt>
<pdfrwt beam="1">  1        1 0.24021862E+00 0.23038097E+04</pdfrwt>
<pdfrwt beam="2">  1       -1 0.13073740E+00 0.23038097E+04</pdfrwt>
<totfact> 0.26796760E+00</totfact>
</mgrwt>
</event>
<event>
 6    1  0.1072514E-005  0.8944961E+03  0.7818608E-02  0.9432488E-01
         -2   -1    0    0    0  501 -0.00000000000E+00  0.00000000000E+00  0.20472423846E+03  0.20472423846E+03  0.00000000000E+00 0.  1.
          2   -1    0    0  501    0  0.00000000000E+00 -0.00000000000E+00 -0.97707449274E+03  0.97707449274E+03  0.00000000000E+00 0. -1.
         23    2    1    2    0    0 -0.13789791731E+03 -0.39962762561E+03 -0.56874919884E+03  0.71257440902E+03  0.74622801221E+02 0.  0.
         11    1    3    3    0    0 -0.94143998442E+02 -0.20389971472E+03 -0.34943854623E+03  0.41538594548E+03  0.00000000000E+00 0. -1.
        -11    1    3    3    0    0 -0.43753918870E+02 -0.19572791089E+03 -0.21931065260E+03  0.29718846354E+03  0.00000000000E+00 0.  1.
         22    1    1    2    0    0  0.13789791731E+03  0.39962762561E+03 -0.20360105544E+03  0.46922432218E+03  0.00000000000E+00 0.  1.
<mgrwt>
<rscale>  0 0.89449613E+03</rscale>
<asrwt>0</asrwt>
<pdfrwt beam="1">  1        2 0.15031915E+00 0.89449613E+03</pdfrwt>
<pdfrwt beam="2">  1       -2 0.31496037E-01 0.89449613E+03</pdfrwt>
<totfact> 0.24430904E+02</totfact>
</mgrwt>
</event>
<event>
 6    1  0.1072514E-005  0.1894313E+04  0.7818608E-02  0.8657692E-01
          2   -1    0    0  501    0  0.00000000000E+00  0.00000000000E+00  0.23300351857E+04  0.23300351857E+04  0.00000000000E+00 0. -1.
         -2   -1    0    0    0  501 -0.00000000000E+00 -0.00000000000E+00 -0.38501794064E+03  0.38501794064E+03  0.00000000000E+00 0.  1.
         23    2    1    2    0    0 -0.74492195328E+03 -0.18159828322E+03  0.17666688207E+04  0.19278461564E+04  0.87094361669E+02 0.  0.
         13    1    3    3    0    0 -0.43240570799E+03 -0.14052006812E+03  0.97791300154E+03  0.10784407376E+04  0.00000000000E+00 0. -1.
        -13    1    3    3    0    0 -0.31251624529E+03 -0.41078215095E+02  0.78875581920E+03  0.84940541889E+03  0.00000000000E+00 0.  1.
         22    1    1    2    0    0  0.74492195328E+03  0.18159828322E+03  0.17834842429E+03  0.78720696986E+03  0.00000000000E+00 0.  1.
<mgrwt>
<rscale>  0 0.18943129E+04</rscale>
<asrwt>0</asrwt>
<pdfrwt beam="1">  1        2 0.35846694E+00 0.18943129E+04</pdfrwt>
<pdfrwt beam="2">  1       -2 0.59233531E-01 0.18943129E+04</pdfrwt>
<totfact> 0.10873440E+01</totfact>
</mgrwt>
</event>
<event>
 6    1  0.1072514E-005  0.4243661E+04  0.7818608E-02  0.7957119E-01
          2   -1    0    0  501    0  0.00000000000E+00  0.00000000000E+00  0.21753382885E+04  0.21753382885E+04  0.00000000000E+00 0. -1.
         -2   -1    0    0    0  501 -0.00000000000E+00 -0.00000000000E+00 -0.20696390173E+04  0.20696390173E+04  0.00000000000E+00 0.  1.
         23    2    1    2    0    0  0.22223059944E+03  0.54225460591E+03  0.20915859201E+04  0.21744285188E+04  0.99906081448E+02 0.  0.
         13    1    3    3    0    0  0.21676519999E+03  0.51725169216E+03  0.20522270877E+04  0.21274803135E+04  0.00000000000E+00 0.  1.
        -13    1    3    3    0    0  0.54653994511E+01  0.25002913749E+02  0.39358832402E+02  0.46948205239E+02  0.00000000000E+00 0. -1.
         22    1    1    2    0    0 -0.22223059944E+03 -0.54225460591E+03 -0.19858866490E+04  0.20705487870E+04  0.00000000000E+00 0.  1.
<mgrwt>
<rscale>  0 0.42436612E+04</rscale>
<asrwt>0</asrwt>
<pdfrwt beam="1">  1        2 0.33466743E+00 0.42436612E+04</pdfrwt>
<pdfrwt beam="2">  1       -2 0.31840600E+00 0.42436612E+04</pdfrwt>
<totfact> 0.10101032E-01</totfact>
</mgrwt>
</event>
<event>
 6    1  0.1072514E-005  0.4139759E+04  0.7818608E-02  0.7976931E-01
          2   -1    0    0  501    0  0.00000000000E+00  0.00000000000E+00  0.12976852103E+04  0.12976852103E+04  0.00000000000E+00 0. -1.
         -2   -1    0    0    0  501 -0.00000000000E+00 -0.00000000000E+00 -0.33015718521E+04  0.33015718521E+04  0.00000000000E+00 0.  1.
         23    2    1    2    0    0 -0.15356908675E+04  0.41147432510E+03 -0.24732181434E+04  0.29415690281E+04  0.91448354227E+02 0.  0.
         11    1    3    3    0    0 -0.98780757207E+03  0.27956892055E+03 -0.15193517547E+04  0.18336718178E+04  0.00000000000E+00 0. -1.
        -11    1    3    3    0    0 -0.54788329540E+03  0.13190540455E+03 -0.95386638870E+03  0.11078972103E+04  0.00000000000E+00 0.  1.
         22    1    1    2    0    0  0.15356908675E+04 -0.41147432510E+03  0.46933150155E+03  0.16576880343E+04  0.00000000000E+00 0. -1.
<mgrwt>
<rscale>  0 0.41397589E+04</rscale>
<asrwt>0</asrwt>
<pdfrwt beam="1">  1        2 0.19964388E+00 0.41397589E+04</pdfrwt>
<pdfrwt beam="2">  1       -2 0.50793413E+00 0.41397589E+04</pdfrwt>
<totfact> 0.19114477E-02</totfact>
</mgrwt>
</event>
<event>
 6    1  0.1072514E-005  0.1625832E+04  0.7818608E-02  0.8804834E-01
         -2   -1    0    0    0  501 -0.00000000000E+00  0.00000000000E+00  0.11964579306E+04  0.11964579306E+04  0.00000000000E+00 0.  1.
          2   -1    0    0  501    0  0.00000000000E+00 -0.00000000000E+00 -0.55232405886E+03  0.55232405886E+03  0.00000000000E+00 0. -1.
         23    2    1    2    0    0  0.48217361619E+03  0.35058412626E+03 -0.26736061357E+03  0.65964342046E+03  0.90813648381E+02 0.  0.
         11    1    3    3    0    0  0.31295001980E+03  0.27839320118E+03 -0.19350057969E+03  0.46139241833E+03  0.00000000000E+00 0.  1.
        -11    1    3    3    0    0  0.16922359639E+03  0.72190925081E+02 -0.73860033884E+02  0.19825100213E+03  0.00000000000E+00 0. -1.
         22    1    1    2    0    0 -0.48217361619E+03 -0.35058412626E+03  0.91149448526E+03  0.10891385690E+04  0.00000000000E+00 0.  1.
<mgrwt>
<rscale>  0 0.16258321E+04</rscale>
<asrwt>0</asrwt>
<pdfrwt beam="1">  1        2 0.84972933E-01 0.16258321E+04</pdfrwt>
<pdfrwt beam="2">  1       -2 0.18407045E+00 0.16258321E+04</pdfrwt>
<totfact> 0.89039052E+00</totfact>
</mgrwt>
</event>
<event>
 6    1  0.1072514E-005  0.2687693E+04  0.7818608E-02  0.8339009E-01
          2   -1    0    0  501    0  0.00000000000E+00  0.00000000000E+00  0.18777314007E+04  0.18777314007E+04  0.00000000000E+00 0. -1.
         -2   -1    0    0    0  501 -0.00000000000E+00 -0.00000000000E+00 -0.96175813777E+03  0.96175813777E+03  0.00000000000E+00 0.  1.
         23    2    1    2    0    0  0.22927883876E+03 -0.95502865787E+03  0.14250408653E+04  0.17332353421E+04  0.93352879967E+02 0.  0.
         11    1    3    3    0    0  0.13611776944E+03 -0.51626220094E+03  0.69490646861E+03  0.87632739738E+03  0.00000000000E+00 0.  1.
        -11    1    3    3    0    0  0.93161069319E+02 -0.43876645693E+03  0.73013439665E+03  0.85690794472E+03  0.00000000000E+00 0. -1.
         22    1    1    2    0    0 -0.22927883876E+03  0.95502865787E+03 -0.50906760232E+03  0.11062541964E+04  0.00000000000E+00 0.  1.
<mgrwt>
<rscale>  0 0.26876930E+04</rscale>
<asrwt>0</asrwt>
<pdfrwt beam="1">  1        2 0.28888175E+00 0.26876930E+04</pdfrwt>
<pdfrwt beam="2">  1       -2 0.14796279E+00 0.26876930E+04</pdfrwt>
<totfact> 0.21317272E+00</totfact>
</mgrwt>
</event>
<event>
 6    1  0.1072514E-005  0.1247121E+04  0.7818608E-02  0.9072583E-01
         -2   -1    0    0    0  501 -0.00000000000E+00  0.00000000000E+00  0.19698268021E+03  0.19698268021E+03  0.00000000000E+00 0.  1.
          2   -1    0    0  501    0  0.00000000000E+00 -0.00000000000E+00 -0.19739192571E+04  0.19739192571E+04  0.00000000000E+00 0. -1.
         23    2    1    2    0    0 -0.60271744086E+02  0.45294947702E+03 -0.16532772455E+03  0.49576641897E+03  0.98260743935E+02 0.  0.
         11    1    3    3    0    0 -0.84384631147E+02  0.29317493097E+03 -0.12114838932E+03  0.32825179109E+03  0.00000000000E+00 0.  1.
        -11    1    3    3    0    0  0.24112887061E+02  0.15977454606E+03 -0.44179335231E+02  0.16751462787E+03  0.00000000000E+00 0. -1.
         22    1    1    2    0    0  0.60271744086E+02 -0.45294947702E+03 -0.16116088524E+04  0.16751355184E+04  0.00000000000E+00 0. -1.
<mgrwt>
<rscale>  0 0.12471213E+04</rscale>
<asrwt>0</asrwt>
<pdfrwt beam="1">  1        2 0.30367988E+00 0.12471213E+04</pdfrwt>
<pdfrwt beam="2">  1       -2 0.30305029E-01 0.12471213E+04</pdfrwt>
<totfact> 0.68444016E+01</totfact>
</mgrwt>
</event>
<event>
 6    1  0.1072514E-005  0.1659001E+04  0.7818608E-02  0.8785099E-01
          1   -1    0    0  501    0  0.00000000000E+00  0.00000000000E+00  0.60586639040E+03  0.60586639040E+03  0.00000000000E+00 0. -1.
         -1   -1    0    0    0  501 -0.00000000000E+00 -0.00000000000E+00 -0.11356809526E+04  0.11356809526E+04  0.00000000000E+00 0.  1.
         23    2    1    2    0    0 -0.30785910639E+03 -0.69425228495E+03  0.77592843490E+02  0.76907255101E+03  0.93211988490E+02 0.  0.
         13    1    3    3    0    0 -0.11247401994E+03 -0.16823317720E+03 -0.16235322395E+01  0.20237451156E+03  0.00000000000E+00 0. -1.
        -13    1    3    3    0    0 -0.19538508646E+03 -0.52601910775E+03  0.79216375729E+02  0.56669803945E+03  0.00000000000E+00 0.  1.
         22    1    1    2    0    0  0.30785910639E+03  0.69425228495E+03 -0.60740740564E+03  0.97247479195E+03  0.00000000000E+00 0. -1.
<mgrwt>
<rscale>  0 0.16590008E+04</rscale>
<asrwt>0</asrwt>
<pdfrwt beam="1">  1        1 0.93210214E-01 0.16590008E+04</pdfrwt>
<pdfrwt beam="2">  1       -1 0.17472015E+00 0.16590008E+04</pdfrwt>
<totfact> 0.73268892E+00</totfact>
</mgrwt>
</event>
<event>
 6    1  0.1072514E-005  0.3613771E+04  0.7818608E-02  0.8087345E-01
         -2   -1    0    0    0  501 -0.00000000000E+00  0.00000000000E+00  0.13054407070E+04  0.13054407070E+04  0.00000000000E+00 0.  1.
          2   -1    0    0  501    0  0.00000000000E+00 -0.00000000000E+00 -0.25009445375E+04  0.25009445375E+04  0.00000000000E+00 0. -1.
         23    2    1    2    0    0  0.11138516423E+04 -0.10802717881E+04 -0.15708179892E+04  0.22099788630E+04  0.94259231197E+02 0.  0.
         13    1    3    3    0    0  0.41348379892E+03 -0.43717757442E+03 -0.66311340120E+03  0.89543981729E+03  0.00000000000E+00 0. -1.
        -13    1    3    3    0    0  0.70036784338E+03 -0.64309421369E+03 -0.90770458797E+03  0.13145390457E+04  0.00000000000E+00 0.  1.
         22    1    1    2    0    0 -0.11138516423E+04  0.10802717881E+04  0.37531415859E+03  0.15964063815E+04  0.00000000000E+00 0.  1.
<mgrwt>
<rscale>  0 0.36137708E+04</rscale>
<asrwt>0</asrwt>
<pdfrwt beam="1">  1        2 0.38476069E+00 0.36137708E+04</pdfrwt>
<pdfrwt beam="2">  1       -2 0.20083703E+00 0.36137708E+04</pdfrwt>
<totfact> 0.37168507E-01</totfact>
</mgrwt>
</event>
<event>
 6    1  0.1072514E-005  0.1741495E+04  0.7818608E-02  0.8738046E-01
         -2   -1    0    0    0  501 -0.00000000000E+00  0.00000000000E+00  0.43778801634E+03  0.43778801634E+03  0.00000000000E+00 0.  1.
          2   -1    0    0  501    0  0.00000000000E+00 -0.00000000000E+00 -0.17318919192E+04  0.17318919192E+04  0.00000000000E+00 0. -1.
         23    2    1    2    0    0  0.76711064952E+03 -0.17203392776E+03 -0.11083136057E+04  0.13618603669E+04  0.90830553634E+02 0.  0.
         13    1    3    3    0    0  0.44317791644E+03 -0.14503795114E+03 -0.64713892475E+03  0.79764118550E+03  0.00000000000E+00 0.  1.
        -13    1    3    3    0    0  0.32393273308E+03 -0.26995976626E+02 -0.46117468093E+03  0.56421918138E+03  0.00000000000E+00 0. -1.
         22    1    1    2    0    0 -0.76711064952E+03  0.17203392776E+03 -0.18579029715E+03  0.80781956860E+03  0.00000000000E+00 0.  1.
<mgrwt>
<rscale>  0 0.17414954E+04</rscale>
<asrwt>0</asrwt>
<pdfrwt beam="1">  1        2 0.26644491E+00 0.17414954E+04</pdfrwt>
<pdfrwt beam="2">  1       -2 0.67352002E-01 0.17414954E+04</pdfrwt>
<totfact> 0.18050500E+01</totfact>
</mgrwt>
</event>
<event>
 6    1  0.1072514E-005  0.1596795E+04  0.7818608E-02  0.8822519E-01
          1   -1    0    0  501    0  0.00000000000E+00  0.00000000000E+00  0.27546348660E+04  0.27546348660E+04  0.00000000000E+00 0. -1.
         -1   -1    0    0    0  501 -0.00000000000E+00 -0.00000000000E+00 -0.23140583419E+03  0.23140583419E+03  0.00000000000E+00 0.  1.
         23    2    1    2    0    0  0.63879756706E+03  0.39777635268E+03  0.17497409378E+04  0.19068872402E+04  0.91308484317E+02 0.  0.
         13    1    3    3    0    0  0.23347170471E+03  0.94947578938E+02  0.59128794030E+03  0.64276395977E+03  0.00000000000E+00 0. -1.
        -13    1    3    3    0    0  0.40532586235E+03  0.30282877375E+03  0.11584529975E+04  0.12641232805E+04  0.00000000000E+00 0.  1.
         22    1    1    2    0    0 -0.63879756706E+03 -0.39777635268E+03  0.77348809402E+03  0.10791534599E+04  0.00000000000E+00 0. -1.
<mgrwt>
<rscale>  0 0.15967950E+04</rscale>
<asrwt>0</asrwt>
<pdfrwt beam="1">  1        1 0.42378996E+00 0.15967950E+04</pdfrwt>
<pdfrwt beam="2">  1       -1 0.35600899E-01 0.15967950E+04</pdfrwt>
<totfact> 0.65064402E+00</totfact>
</mgrwt>
</event>
<event>
 6    1  0.1072514E-005  0.2076518E+04  0.7818608E-02  0.8571658E-01
          1   -1    0    0  501    0  0.00000000000E+00  0.00000000000E+00  0.83994930715E+03  0.83994930715E+03  0.00000000000E+00 0. -1.
         -1   -1    0    0    0  501 -0.00000000000E+00 -0.00000000000E+00 -0.12833890982E+04  0.12833890982E+04  0.00000000000E+00 0.  1.
         23    2    1    2    0    0  0.23235527368E+02 -0.10175813701E+04 -0.23160306781E+02  0.10221360718E+04  0.90631203888E+02 0.  0.
         11    1    3    3    0    0 -0.34802156300E+02 -0.41069366401E+03 -0.43059462597E+01  0.41218808439E+03  0.00000000000E+00 0.  1.
        -11    1    3    3    0    0  0.58037683668E+02 -0.60688770604E+03 -0.18854360521E+02  0.60994798744E+03  0.00000000000E+00 0. -1.
         22    1    1    2    0    0 -0.23235527368E+02  0.10175813701E+04 -0.42027948425E+03  0.11012023335E+04  0.00000000000E+00 0.  1.
<mgrwt>
<rscale>  0 0.20765180E+04</rscale>
<asrwt>0</asrwt>
<pdfrwt beam="1">  1        1 0.12922297E+00 0.20765180E+04</pdfrwt>
<pdfrwt beam="2">  1       -1 0.19744448E+00 0.20765180E+04</pdfrwt>
<totfact> 0.29503390E+00</totfact>
</mgrwt>
</event>
<event>
 6    1  0.1072514E-005  0.9952958E+03  0.7818608E-02  0.9313719E-01
          2   -1    0    0  501    0  0.00000000000E+00  0.00000000000E+00  0.29829566660E+04  0.29829566660E+04  0.00000000000E+00 0. -1.
         -2   -1    0    0    0  501 -0.00000000000E+00 -0.00000000000E+00 -0.83022805802E+02  0.83022805802E+02  0.00000000000E+00 0.  1.
         23    2    1    2    0    0  0.23802786121E+03 -0.41859286664E+03  0.17945139348E+04  0.18602305501E+04  0.91105360010E+02 0.  0.
         11    1    3    3    0    0  0.10946993912E+03 -0.23855646097E+03  0.82273280666E+03  0.86358677839E+03  0.00000000000E+00 0. -1.
        -11    1    3    3    0    0  0.12855792208E+03 -0.18003640567E+03  0.97178112809E+03  0.99664377167E+03  0.00000000000E+00 0.  1.
         22    1    1    2    0    0 -0.23802786121E+03  0.41859286664E+03  0.11054199254E+04  0.12057489217E+04  0.00000000000E+00 0.  1.
<mgrwt>
<rscale>  0 0.99529580E+03</rscale>
<asrwt>0</asrwt>
<pdfrwt beam="1">  1        2 0.45891633E+00 0.99529580E+03</pdfrwt>
<pdfrwt beam="2">  1       -2 0.12772742E-01 0.99529580E+03</pdfrwt>
<totfact> 0.83973945E+01</totfact>
</mgrwt>
</event>
<event>
 6    1  0.1072514E-005  0.2878776E+04  0.7818608E-02  0.8279220E-01
         -2   -1    0    0    0  501 -0.00000000000E+00  0.00000000000E+00  0.84630510474E+03  0.84630510474E+03  0.00000000000E+00 0.  1.
          2   -1    0    0  501    0  0.00000000000E+00 -0.00000000000E+00 -0.24480973625E+04  0.24480973625E+04  0.00000000000E+00 0. -1.
         23    2    1    2    0    0 -0.91486335623E+03 -0.76231340548E+03  0.12066543457E+03  0.12003735298E+04  0.90773208197E+02 0.  0.
         13    1    3    3    0    0 -0.16791098544E+03 -0.16254484978E+03 -0.79420581019E+01  0.23383328143E+03  0.00000000000E+00 0.  1.
        -13    1    3    3    0    0 -0.74695237079E+03 -0.59976855570E+03  0.12860749267E+03  0.96654024842E+03  0.00000000000E+00 0. -1.
         22    1    1    2    0    0  0.91486335623E+03  0.76231340548E+03 -0.17224576923E+04  0.20940289374E+04  0.00000000000E+00 0. -1.
<mgrwt>
<rscale>  0 0.28787756E+04</rscale>
<asrwt>0</asrwt>
<pdfrwt beam="1">  1        2 0.37663036E+00 0.28787756E+04</pdfrwt>
<pdfrwt beam="2">  1       -2 0.13020079E+00 0.28787756E+04</pdfrwt>
<totfact> 0.13948940E+00</totfact>
</mgrwt>
</event>
<event>
 6    1  0.1072514E-005  0.3185818E+04  0.7818608E-02  0.8192573E-01
         -1   -1    0    0    0  501 -0.00000000000E+00  0.00000000000E+00  0.75093725138E+03  0.75093725138E+03  0.00000000000E+00 0.  1.
          1   -1    0    0  501    0  0.00000000000E+00 -0.00000000000E+00 -0.33789219823E+04  0.33789219823E+04  0.00000000000E+00 0. -1.
         23    2    1    2    0    0  0.18466257576E+03  0.23751676607E+03 -0.33410319998E+04  0.33559400592E+04  0.96562806707E+02 0.  0.
         11    1    3    3    0    0  0.13483971038E+03  0.10818125720E+03 -0.15686083511E+04  0.15781055386E+04  0.00000000000E+00 0. -1.
        -11    1    3    3    0    0  0.49822865376E+02  0.12933550887E+03 -0.17724236487E+04  0.17778345205E+04  0.00000000000E+00 0.  1.
         22    1    1    2    0    0 -0.18466257576E+03 -0.23751676607E+03  0.71304726890E+03  0.77391917455E+03  0.00000000000E+00 0.  1.
<mgrwt>
<rscale>  0 0.31858176E+04</rscale>
<asrwt>0</asrwt>
<pdfrwt beam="1">  1        1 0.51983415E+00 0.31858176E+04</pdfrwt>
<pdfrwt beam="2">  1       -1 0.11552881E+00 0.31858176E+04</pdfrwt>
<totfact> 0.17644933E-01</totfact>
</mgrwt>
</event>
<event>
 6    1  0.1072514E-005  0.1675445E+04  0.7818608E-02  0.8775494E-01
          1   -1    0    0  501    0  0.00000000000E+00  0.00000000000E+00  0.13983865186E+04  0.13983865186E+04  0.00000000000E+00 0. -1.
         -1   -1    0    0    0  501 -0.00000000000E+00 -0.00000000000E+00 -0.50184911155E+03  0.50184911155E+03  0.00000000000E+00 0.  1.
         23    2    1    2    0    0 -0.76057016768E+03  0.85922956216E+02  0.82878553861E+03  0.11318346606E+04  0.91183855650E+02 0.  0.
         13    1    3    3    0    0 -0.44974533253E+03  0.95809200282E+02  0.49341526336E+03  0.67446933890E+03  0.00000000000E+00 0. -1.
        -13    1    3    3    0    0 -0.31082483515E+03 -0.98862440664E+01  0.33537027525E+03  0.45736532170E+03  0.00000000000E+00 0.  1.
         22    1    1    2    0    0  0.76057016768E+03 -0.85922956216E+02  0.67751868466E+02  0.76840096958E+03  0.00000000000E+00 0.  1.
<mgrwt>
<rscale>  0 0.16754451E+04</rscale>
<asrwt>0</asrwt>
<pdfrwt beam="1">  1        1 0.21513639E+00 0.16754451E+04</pdfrwt>
<pdfrwt beam="2">  1       -1 0.77207556E-01 0.16754451E+04</pdfrwt>
<totfact> 0.12355174E+01</totfact>
</mgrwt>
</event>
<event>
 6    1  0.1072514E-005  0.2347894E+04  0.7818608E-02  0.8459273E-01
          2   -1    0    0  501    0  0.00000000000E+00  0.00000000000E+00  0.13705743935E+04  0.13705743935E+04  0.00000000000E+00 0. -1.
         -2   -1    0    0    0  501 -0.00000000000E+00 -0.00000000000E+00 -0.10055284527E+04  0.10055284527E+04  0.00000000000E+00 0.  1.
         23    2    1    2    0    0 -0.85155362616E+03 -0.27262215670E+03  0.95010025935E+03  0.13075734951E+04  0.87129350018E+02 0.  0.
         11    1    3    3    0    0 -0.40205155898E+03 -0.83237530235E+02  0.43828835132E+03  0.60055859116E+03  0.00000000000E+00 0.  1.
        -11    1    3    3    0    0 -0.44950206719E+03 -0.18938462646E+03  0.51181190803E+03  0.70701490391E+03  0.00000000000E+00 0. -1.
         22    1    1    2    0    0  0.85155362616E+03  0.27262215670E+03 -0.58505431858E+03  0.10685293511E+04  0.00000000000E+00 0.  1.
<mgrwt>
<rscale>  0 0.23478940E+04</rscale>
<asrwt>0</asrwt>
<pdfrwt beam="1">  1        2 0.21085760E+00 0.23478940E+04</pdfrwt>
<pdfrwt beam="2">  1       -2 0.15469668E+00 0.23478940E+04</pdfrwt>
<totfact> 0.37500674E+00</totfact>
</mgrwt>
</event>
<event>
 6    1  0.1072514E-005  0.1154455E+04  0.7818608E-02  0.9153683E-01
         -1   -1    0    0    0  501 -0.00000000000E+00  0.00000000000E+00  0.11962844902E+04  0.11962844902E+04  0.00000000000E+00 0.  1.
          1   -1    0    0  501    0  0.00000000000E+00 -0.00000000000E+00 -0.27852214840E+03  0.27852214840E+03  0.00000000000E+00 0. -1.
         23    2    1    2    0    0 -0.48223324872E+03 -0.24689302007E+02  0.66487695119E+02  0.49612027828E+03  0.92499995203E+02 0.  0.
         11    1    3    3    0    0 -0.14122562820E+03  0.34710884715E+02  0.23595558097E+02  0.14733049223E+03  0.00000000000E+00 0. -1.
        -11    1    3    3    0    0 -0.34100762052E+03 -0.59400186721E+02  0.42892137023E+02  0.34878978605E+03  0.00000000000E+00 0.  1.
         22    1    1    2    0    0  0.48223324872E+03  0.24689302007E+02  0.85127464666E+03  0.97868636031E+03  0.00000000000E+00 0.  1.
<mgrwt>
<rscale>  0 0.11544552E+04</rscale>
<asrwt>0</asrwt>
<pdfrwt beam="1">  1        1 0.42849562E-01 0.11544552E+04</pdfrwt>
<pdfrwt beam="2">  1       -1 0.18404376E+00 0.11544552E+04</pdfrwt>
<totfact> 0.18677729E+01</totfact>
</mgrwt>
</event>
<event>
 6    1  0.1072514E-005  0.6352633E+03  0.7818608E-02  0.9834831E-01
         -2   -1    0    0    0  501 -0.00000000000E+00  0.00000000000E+00  0.24849353779E+03  0.24849353779E+03  0.00000000000E+00 0.  1.
          2   -1    0    0  501    0  0.00000000000E+00 -0.00000000000E+00 -0.40600593960E+03  0.40600593960E+03  0.00000000000E+00 0. -1.
         23    2    1    2    0    0 -0.19752103634E+03 -0.88476733228E+02  0.15013291069E+03  0.27835013148E+03  0.89978957012E+02 0.  0.
         11    1    3    3    0    0 -0.19905163774E+03 -0.63725228032E+02  0.14000552380E+03  0.25156312502E+03  0.00000000000E+00 0.  1.
        -11    1    3    3    0    0  0.15306014004E+01 -0.24751505196E+02  0.10127386891E+02  0.26787006465E+02  0.00000000000E+00 0. -1.
         22    1    1    2    0    0  0.19752103634E+03  0.88476733228E+02 -0.30764531250E+03  0.37614934590E+03  0.00000000000E+00 0. -1.
<mgrwt>
<rscale>  0 0.63526326E+03</rscale>
<asrwt>0</asrwt>
<pdfrwt beam="1">  1        2 0.62462452E-01 0.63526326E+03</pdfrwt>
<pdfrwt beam="2">  1       -2 0.38229775E-01 0.63526326E+03</pdfrwt>
<totfact> 0.50906772E+02</totfact>
</mgrwt>
</event>
<event>
 6    1  0.1072514E-005  0.2549981E+04  0.7818608E-02  0.8385393E-01
         -2   -1    0    0    0  501 -0.00000000000E+00  0.00000000000E+00  0.20635394671E+04  0.20635394671E+04  0.00000000000E+00 0.  1.
          2   -1    0    0  501    0  0.00000000000E+00 -0.00000000000E+00 -0.78777327530E+03  0.78777327530E+03  0.00000000000E+00 0. -1.
         23    2    1    2    0    0 -0.55704824663E+03  0.60068018385E+03 -0.45157506545E+03  0.93955249296E+03  0.87860201196E+02 0.  0.
         13    1    3    3    0    0 -0.55321650506E+03  0.57657891782E+03 -0.44328005720E+03  0.91377730276E+03  0.00000000000E+00 0. -1.
        -13    1    3    3    0    0 -0.38317415703E+01  0.24101266032E+02 -0.82950082562E+01  0.25775190198E+02  0.00000000000E+00 0.  1.
         22    1    1    2    0    0  0.55704824663E+03 -0.60068018385E+03  0.17273412572E+04  0.19117602494E+04  0.00000000000E+00 0.  1.
<mgrwt>
<rscale>  0 0.25499814E+04</rscale>
<asrwt>0</asrwt>
<pdfrwt beam="1">  1        2 0.12119589E+00 0.25499814E+04</pdfrwt>
<pdfrwt beam="2">  1       -2 0.31746761E+00 0.25499814E+04</pdfrwt>
<totfact> 0.77533879E-01</totfact>
</mgrwt>
</event>
<event>
 6    1  0.1072514E-005  0.1371710E+04  0.7818608E-02  0.8974555E-01
         -2   -1    0    0    0  501 -0.00000000000E+00  0.00000000000E+00  0.39426434735E+03  0.39426434735E+03  0.00000000000E+00 0.  1.
          2   -1    0    0  501    0  0.00000000000E+00 -0.00000000000E+00 -0.11931010337E+04  0.11931010337E+04  0.00000000000E+00 0. -1.
         23    2    1    2    0    0  0.17726071046E+03  0.65868604009E+03 -0.43389545688E+03  0.81375646183E+03  0.92982002502E+02 0.  0.
         13    1    3    3    0    0  0.34722217957E+02  0.27901567223E+03 -0.14961274339E+03  0.31849544856E+03  0.00000000000E+00 0.  1.
        -13    1    3    3    0    0  0.14253849250E+03  0.37967036786E+03 -0.28428271350E+03  0.49526101327E+03  0.00000000000E+00 0. -1.
         22    1    1    2    0    0 -0.17726071046E+03 -0.65868604009E+03 -0.36494122942E+03  0.77360891917E+03  0.00000000000E+00 0.  1.
<mgrwt>
<rscale>  0 0.13717102E+04</rscale>
<asrwt>0</asrwt>
<pdfrwt beam="1">  1        2 0.18355400E+00 0.13717102E+04</pdfrwt>
<pdfrwt beam="2">  1       -2 0.60656054E-01 0.13717102E+04</pdfrwt>
<totfact> 0.47199873E+01</totfact>
</mgrwt>
</event>
<event>
 6    1  0.1072514E-005  0.2338131E+03  0.7818608E-02  0.1123984E+00
         -3   -1    0    0    0  501 -0.00000000000E+00  0.00000000000E+00  0.27036482515E+03  0.27036482515E+03  0.00000000000E+00 0.  1.
          3   -1    0    0  501    0  0.00000000000E+00 -0.00000000000E+00 -0.50550752793E+02  0.50550752793E+02  0.00000000000E+00 0. -1.
         23    2    1    2    0    0  0.53665096256E+02 -0.54231183241E+01  0.11828938196E+02  0.10605011120E+03  0.90539215466E+02 0.  0.
         11    1    3    3    0    0  0.40609813822E+02 -0.38810171303E+02  0.32270781270E+02  0.64782634239E+02  0.00000000000E+00 0. -1.
        -11    1    3    3    0    0  0.13055282434E+02  0.33387052979E+02 -0.20441843074E+02  0.41267476956E+02  0.00000000000E+00 0.  1.
         22    1    1    2    0    0 -0.53665096256E+02  0.54231183241E+01  0.20798513416E+03  0.21486546674E+03  0.00000000000E+00 0.  1.
<mgrwt>
<rscale>  0 0.23381313E+03</rscale>
<asrwt>0</asrwt>
<pdfrwt beam="1">  1        3 0.77770390E-02 0.23381313E+03</pdfrwt>
<pdfrwt beam="2">  1       -3 0.41594588E-01 0.23381313E+03</pdfrwt>
<totfact> 0.16055485E+03</totfact>
</mgrwt>
</event>
<event>
 6    1  0.1072514E-005  0.3384194E+04  0.7818608E-02  0.8141796E-01
         -1   -1    0    0    0  501 -0.00000000000E+00  0.00000000000E+00  0.10701236368E+04  0.10701236368E+04  0.00000000000E+00 0.  1.
          1   -1    0    0  501    0  0.00000000000E+00 -0.00000000000E+00 -0.26755720397E+04  0.26755720397E+04  0.00000000000E+00 0. -1.
         23    2    1    2    0    0 -0.10937411051E+04 -0.87170016133E+03 -0.18549476031E+04  0.23249984437E+04  0.93039652734E+02 0.  0.
         11    1    3    3    0    0 -0.19625280293E+03 -0.16581829866E+03 -0.40178074349E+03  0.47690527012E+03  0.00000000000E+00 0. -1.
        -11    1    3    3    0    0 -0.89748830214E+03 -0.70588186266E+03 -0.14531668596E+04  0.18480931736E+04  0.00000000000E+00 0.  1.
         22    1    1    2    0    0  0.10937411051E+04  0.87170016133E+03  0.24949920015E+03  0.14206972327E+04  0.00000000000E+00 0.  1.
<mgrwt>
<rscale>  0 0.33841944E+04</rscale>
<asrwt>0</asrwt>
<pdfrwt beam="1">  1        1 0.41162646E+00 0.33841944E+04</pdfrwt>
<pdfrwt beam="2">  1       -1 0.16463441E+00 0.33841944E+04</pdfrwt>
<totfact> 0.22675350E-01</totfact>
</mgrwt>
</event>
<event>
 6    1  0.1072514E-005  0.3261911E+04  0.7818608E-02  0.8172655E-01
          1   -1    0    0  501    0  0.00000000000E+00  0.00000000000E+00  0.11809279792E+04  0.11809279792E+04  0.00000000000E+00 0. -1.
         -1   -1    0    0    0  501 -0.00000000000E+00 -0.00000000000E+00 -0.22524790193E+04  0.22524790193E+04  0.00000000000E+00 0.  1.
         23    2    1    2    0    0 -0.51682107668E+03 -0.15250153535E+04 -0.27173115992E+03  0.16354949611E+04  0.90719848165E+02 0.  0.
         13    1    3    3    0    0 -0.48475166693E+03 -0.13723680331E+04 -0.26483231725E+03  0.14793628200E+04  0.00000000000E+00 0.  1.
        -13    1    3    3    0    0 -0.32069409745E+02 -0.15264732037E+03 -0.68988426715E+01  0.15613214111E+03  0.00000000000E+00 0. -1.
         22    1    1    2    0    0  0.51682107668E+03  0.15250153535E+04 -0.79981988011E+03  0.17979120374E+04  0.00000000000E+00 0.  1.
<mgrwt>
<rscale>  0 0.32619108E+04</rscale>
<asrwt>0</asrwt>
<pdfrwt beam="1">  1        1 0.18168123E+00 0.32619108E+04</pdfrwt>
<pdfrwt beam="2">  1       -1 0.34653523E+00 0.32619108E+04</pdfrwt>
<totfact> 0.15039717E-01</totfact>
</mgrwt>
</event>
<event>
 6    1  0.1072514E-005  0.4895868E+04  0.7818608E-02  0.7844774E-01
         -2   -1    0    0    0  501 -0.00000000000E+00  0.00000000000E+00  0.19022886602E+04  0.19022886602E+04  0.00000000000E+00 0. -1.
          2   -1    0    0  501    0  0.00000000000E+00 -0.00000000000E+00 -0.31500906216E+04  0.31500906216E+04  0.00000000000E+00 0.  1.
         23    2    1    2    0    0  0.18990053486E+04 -0.15016982059E+04 -0.99194390481E+03  0.26178809433E+04  0.89605287629E+02 0.  0.
         11    1    3    3    0    0  0.12865040965E+04 -0.10669862720E+04 -0.69968356914E+03  0.18119353167E+04  0.00000000000E+00 0.  1.
        -11    1    3    3    0    0  0.61250125209E+03 -0.43471193388E+03 -0.29226033567E+03  0.80594562663E+03  0.00000000000E+00 0. -1.
         22    1    1    2    0    0 -0.18990053486E+04  0.15016982059E+04 -0.25585805659E+03  0.24344983386E+04  0.00000000000E+00 0. -1.
<mgrwt>
<rscale>  0 0.48958683E+04</rscale>
<asrwt>0</asrwt>
<pdfrwt beam="1">  1        2 0.48462932E+00 0.48958683E+04</pdfrwt>
<pdfrwt beam="2">  1       -2 0.29265980E+00 0.48958683E+04</pdfrwt>
<totfact> 0.36121048E-02</totfact>
</mgrwt>
</event>
<event>
 6    1  0.1072514E-005  0.1466646E+04  0.7818608E-02  0.8906941E-01
         -1   -1    0    0    0  501 -0.00000000000E+00  0.00000000000E+00  0.46975853568E+03  0.46975853568E+03  0.00000000000E+00 0.  1.
          1   -1    0    0  501    0  0.00000000000E+00 -0.00000000000E+00 -0.11447640388E+04  0.11447640388E+04  0.00000000000E+00 0. -1.
         23    2    1    2    0    0  0.53036207422E+03 -0.50235540588E+03 -0.32235851039E+03  0.80334763340E+03  0.88360213184E+02 0.  0.
         11    1    3    3    0    0  0.25601156878E+03 -0.28818148036E+03 -0.20111479215E+03  0.43478460023E+03  0.00000000000E+00 0. -1.
        -11    1    3    3    0    0  0.27435050543E+03 -0.21417392552E+03 -0.12124371825E+03  0.36856303317E+03  0.00000000000E+00 0.  1.
         22    1    1    2    0    0 -0.53036207422E+03  0.50235540588E+03 -0.35264699275E+03  0.81117494111E+03  0.00000000000E+00 0.  1.
<mgrwt>
<rscale>  0 0.14666461E+04</rscale>
<asrwt>0</asrwt>
<pdfrwt beam="1">  1        1 0.17611754E+00 0.14666461E+04</pdfrwt>
<pdfrwt beam="2">  1       -1 0.72270544E-01 0.14666461E+04</pdfrwt>
<totfact> 0.21991437E+01</totfact>
</mgrwt>
</event>
<event>
 6    1  0.1072514E-005  0.1318867E+04  0.7818608E-02  0.9014736E-01
         -2   -1    0    0    0  501 -0.00000000000E+00  0.00000000000E+00  0.34819647766E+03  0.34819647766E+03  0.00000000000E+00 0.  1.
          2   -1    0    0  501    0  0.00000000000E+00 -0.00000000000E+00 -0.12488709473E+04  0.12488709473E+04  0.00000000000E+00 0. -1.
         23    2    1    2    0    0 -0.22336915188E+03 -0.39517726790E+03  0.12112929532E+03  0.47897002976E+03  0.93172593313E+02 0.  0.
         11    1    3    3    0    0 -0.15858743257E+03 -0.34368305787E+03  0.81349257793E+02  0.38715077138E+03  0.00000000000E+00 0. -1.
        -11    1    3    3    0    0 -0.64781719308E+02 -0.51494210024E+02  0.39780037526E+02  0.91819258372E+02  0.00000000000E+00 0.  1.
         22    1    1    2    0    0  0.22336915188E+03  0.39517726790E+03 -0.10218037649E+04  0.11180973952E+04  0.00000000000E+00 0. -1.
<mgrwt>
<rscale>  0 0.13188669E+04</rscale>
<asrwt>0</asrwt>
<pdfrwt beam="1">  1        2 0.19213399E+00 0.13188669E+04</pdfrwt>
<pdfrwt beam="2">  1       -2 0.53568689E-01 0.13188669E+04</pdfrwt>
<totfact> 0.56937671E+01</totfact>
</mgrwt>
</event>
<event>
 6    1  0.1072514E-005  0.1298876E+04  0.7818608E-02  0.9030457E-01
         -2   -1    0    0    0  501 -0.00000000000E+00  0.00000000000E+00  0.21077741897E+03  0.21077741897E+03  0.00000000000E+00 0.  1.
          2   -1    0    0  501    0  0.00000000000E+00 -0.00000000000E+00 -0.20010190615E+04  0.20010190615E+04  0.00000000000E+00 0. -1.
         23    2    1    2    0    0 -0.48535936036E+03  0.27076987991E+03 -0.14588159300E+04  0.15647006302E+04  0.10608538001E+03 0.  0.
         13    1    3    3    0    0 -0.25142544854E+03  0.97344752572E+02 -0.59817690783E+03  0.65612984241E+03  0.00000000000E+00 0. -1.
        -13    1    3    3    0    0 -0.23393391182E+03  0.17342512734E+03 -0.86063902219E+03  0.90857078778E+03  0.00000000000E+00 0.  1.
         22    1    1    2    0    0  0.48535936036E+03 -0.27076987991E+03 -0.33142571251E+03  0.64709585029E+03  0.00000000000E+00 0.  1.
<mgrwt>
<rscale>  0 0.12988759E+04</rscale>
<asrwt>0</asrwt>
<pdfrwt beam="1">  1        2 0.30784909E+00 0.12988759E+04</pdfrwt>
<pdfrwt beam="2">  1       -2 0.32427295E-01 0.12988759E+04</pdfrwt>
<totfact> 0.57997639E+01</totfact>
</mgrwt>
</event>
<event>
 6    1  0.1072514E-005  0.2827023E+04  0.7818608E-02  0.8294928E-01
         -1   -1    0    0    0  501 -0.00000000000E+00  0.00000000000E+00  0.11389489897E+04  0.11389489897E+04  0.00000000000E+00 0.  1.
          1   -1    0    0  501    0  0.00000000000E+00 -0.00000000000E+00 -0.17542617681E+04  0.17542617681E+04  0.00000000000E+00 0. -1.
         23    2    1    2    0    0 -0.40797826960E+03  0.12906375443E+04 -0.71970165974E+03  0.15356067736E+04  0.89028899639E+02 0.  0.
         11    1    3    3    0    0 -0.21233170649E+03  0.63033624678E+03 -0.40198492561E+03  0.77717463804E+03  0.00000000000E+00 0. -1.
        -11    1    3    3    0    0 -0.19564656311E+03  0.66030129748E+03 -0.31771673412E+03  0.75843213557E+03  0.00000000000E+00 0.  1.
         22    1    1    2    0    0  0.40797826960E+03 -0.12906375443E+04  0.10438888133E+03  0.13576039841E+04  0.00000000000E+00 0.  1.
<mgrwt>
<rscale>  0 0.28270229E+04</rscale>
<asrwt>0</asrwt>
<pdfrwt beam="1">  1        1 0.26988642E+00 0.28270229E+04</pdfrwt>
<pdfrwt beam="2">  1       -1 0.17522292E+00 0.28270229E+04</pdfrwt>
<totfact> 0.85189923E-01</totfact>
</mgrwt>
</event>
<event>
 6    1  0.1072514E-005  0.3133470E+04  0.7818608E-02  0.8206612E-01
         -1   -1    0    0    0  501 -0.00000000000E+00  0.00000000000E+00  0.14763237618E+04  0.14763237618E+04  0.00000000000E+00 0.  1.
          1   -1    0    0  501    0  0.00000000000E+00 -0.00000000000E+00 -0.16626829491E+04  0.16626829491E+04  0.00000000000E+00 0. -1.
         23    2    1    2    0    0  0.13617530994E+04 -0.38248294311E+03  0.57839972777E+03  0.15310512065E+04  0.94376089694E+02 0.  0.
         11    1    3    3    0    0  0.69746907094E+03 -0.15423933360E+03  0.26478682811E+03  0.76181686860E+03  0.00000000000E+00 0. -1.
        -11    1    3    3    0    0  0.66428402850E+03 -0.22824360951E+03  0.31361289965E+03  0.76923433792E+03  0.00000000000E+00 0.  1.
         22    1    1    2    0    0 -0.13617530994E+04  0.38248294311E+03 -0.76475891508E+03  0.16079555043E+04  0.00000000000E+00 0. -1.
<mgrwt>
<rscale>  0 0.31334699E+04</rscale>
<asrwt>0</asrwt>
<pdfrwt beam="1">  1        1 0.25579738E+00 0.31334699E+04</pdfrwt>
<pdfrwt beam="2">  1       -1 0.22712673E+00 0.31334699E+04</pdfrwt>
<totfact> 0.41948261E-01</totfact>
</mgrwt>
</event>
<event>
 6    1  0.1072514E-005  0.2907864E+04  0.7818608E-02  0.8270541E-01
          1   -1    0    0  501    0  0.00000000000E+00  0.00000000000E+00  0.11132058314E+04  0.11132058314E+04  0.00000000000E+00 0. -1.
         -1   -1    0    0    0  501 -0.00000000000E+00 -0.00000000000E+00 -0.18989467434E+04  0.18989467434E+04  0.00000000000E+00 0.  1.
         23    2    1    2    0    0 -0.84866071295E+03  0.10061680822E+04  0.24301338991E+03  0.13415435154E+04  0.89912628607E+02 0.  0.
         11    1    3    3    0    0 -0.76288252126E+03  0.85771731635E+03  0.21091251703E+03  0.11671130305E+04  0.00000000000E+00 0. -1.
        -11    1    3    3    0    0 -0.85778191694E+02  0.14845076586E+03  0.32100872886E+02  0.17443048499E+03  0.00000000000E+00 0.  1.
         22    1    1    2    0    0  0.84866071295E+03 -0.10061680822E+04 -0.10287543019E+04  0.16706090593E+04  0.00000000000E+00 0.  1.
<mgrwt>
<rscale>  0 0.29078642E+04</rscale>
<asrwt>0</asrwt>
<pdfrwt beam="1">  1        1 0.17126244E+00 0.29078642E+04</pdfrwt>
<pdfrwt beam="2">  1       -1 0.29214565E+00 0.29078642E+04</pdfrwt>
<totfact> 0.39466658E-01</totfact>
</mgrwt>
</event>
<event>
 6    1  0.1072514E-005  0.8844421E+03  0.7818608E-02  0.9445241E-01
          1   -1    0    0  501    0  0.00000000000E+00  0.00000000000E+00  0.22887945209E+04  0.22887945209E+04  0.00000000000E+00 0. -1.
         -1   -1    0    0    0  501 -0.00000000000E+00 -0.00000000000E+00 -0.85442116649E+02  0.85442116649E+02  0.00000000000E+00 0.  1.
         23    2    1    2    0    0 -0.36375018526E+03  0.22377195615E+03  0.13681632869E+04  0.14361913575E+04  0.91579201585E+02 0.  0.
         13    1    3    3    0    0 -0.87158629824E+02  0.99405246502E+02  0.36587601443E+03  0.38902864640E+03  0.00000000000E+00 0. -1.
        -13    1    3    3    0    0 -0.27659155544E+03  0.12436670965E+03  0.10022872725E+04  0.10471627111E+04  0.00000000000E+00 0.  1.
         22    1    1    2    0    0  0.36375018526E+03 -0.22377195615E+03  0.83518911734E+03  0.93804528001E+03  0.00000000000E+00 0.  1.
<mgrwt>
<rscale>  0 0.88444208E+03</rscale>
<asrwt>0</asrwt>
<pdfrwt beam="1">  1        1 0.35212219E+00 0.88444208E+03</pdfrwt>
<pdfrwt beam="2">  1       -1 0.13144943E-01 0.88444208E+03</pdfrwt>
<totfact> 0.78994930E+01</totfact>
</mgrwt>
</event>
<event>
 6    1  0.1072514E-005  0.2987686E+04  0.7818608E-02  0.8247256E-01
         -2   -1    0    0    0  501 -0.00000000000E+00  0.00000000000E+00  0.98128606459E+03  0.98128606459E+03  0.00000000000E+00 0. -1.
          2   -1    0    0  501    0  0.00000000000E+00 -0.00000000000E+00 -0.22741251763E+04  0.22741251763E+04  0.00000000000E+00 0.  1.
         23    2    1    2    0    0  0.85894088747E+03  0.85972063448E+03  0.29664132986E+03  0.12545746430E+04  0.95196841844E+02 0.  0.
         13    1    3    3    0    0  0.36024237121E+03  0.29539044689E+03  0.11759338220E+03  0.48047714375E+03  0.00000000000E+00 0. -1.
        -13    1    3    3    0    0  0.49869851625E+03  0.56433018759E+03  0.17904794766E+03  0.77409749922E+03  0.00000000000E+00 0.  1.
         22    1    1    2    0    0 -0.85894088747E+03 -0.85972063448E+03 -0.15894804416E+04  0.20008365980E+04  0.00000000000E+00 0.  1.
<mgrwt>
<rscale>  0 0.29876863E+04</rscale>
<asrwt>0</asrwt>
<pdfrwt beam="1">  1        2 0.34986541E+00 0.29876863E+04</pdfrwt>
<pdfrwt beam="2">  1       -2 0.15096709E+00 0.29876863E+04</pdfrwt>
<totfact> 0.11834877E+00</totfact>
</mgrwt>
</event>
<event>
 6    1  0.1072514E-005  0.5109793E+04  0.7818608E-02  0.7811790E-01
          2   -1    0    0  501    0  0.00000000000E+00  0.00000000000E+00  0.22419857278E+04  0.22419857278E+04  0.00000000000E+00 0. -1.
         -2   -1    0    0    0  501 -0.00000000000E+00 -0.00000000000E+00 -0.29114800216E+04  0.29114800216E+04  0.00000000000E+00 0.  1.
         23    2    1    2    0    0 -0.18491807525E+04 -0.29920896395E+03  0.14160827836E+04  0.23501414361E+04  0.94227705143E+02 0.  0.
         13    1    3    3    0    0 -0.10213190374E+04 -0.21267713431E+03  0.78817100899E+03  0.13074928983E+04  0.00000000000E+00 0.  1.
        -13    1    3    3    0    0 -0.82786171501E+03 -0.86531829639E+02  0.62791177463E+03  0.10426485378E+04  0.00000000000E+00 0. -1.
         22    1    1    2    0    0  0.18491807525E+04  0.29920896395E+03 -0.20855770774E+04  0.28033243132E+04  0.00000000000E+00 0.  1.
<mgrwt>
<rscale>  0 0.51097932E+04</rscale>
<asrwt>0</asrwt>
<pdfrwt beam="1">  1        2 0.34492088E+00 0.51097932E+04</pdfrwt>
<pdfrwt beam="2">  1       -2 0.44792001E+00 0.51097932E+04</pdfrwt>
<totfact> 0.12680114E-02</totfact>
</mgrwt>
</event>
<event>
 6    1  0.1072514E-005  0.1315207E+04  0.7818608E-02  0.9017592E-01
          1   -1    0    0  501    0  0.00000000000E+00  0.00000000000E+00  0.31371256249E+03  0.31371256249E+03  0.00000000000E+00 0. -1.
         -1   -1    0    0    0  501 -0.00000000000E+00 -0.00000000000E+00 -0.13784661261E+04  0.13784661261E+04  0.00000000000E+00 0.  1.
         23    2    1    2    0    0 -0.56431429649E+02  0.39741860914E+03 -0.11999148616E+04  0.12686286519E+04  0.92178762160E+02 0.  0.
         13    1    3    3    0    0 -0.27254427511E+02  0.23165623347E+03 -0.83133111523E+03  0.86343432725E+03  0.00000000000E+00 0. -1.
        -13    1    3    3    0    0 -0.29177002138E+02  0.16576237567E+03 -0.36858374638E+03  0.40519432466E+03  0.00000000000E+00 0.  1.
         22    1    1    2    0    0  0.56431429649E+02 -0.39741860914E+03  0.13516129796E+03  0.42355003673E+03  0.00000000000E+00 0. -1.
<mgrwt>
<rscale>  0 0.13152067E+04</rscale>
<asrwt>0</asrwt>
<pdfrwt beam="1">  1        1 0.48263470E-01 0.13152067E+04</pdfrwt>
<pdfrwt beam="2">  1       -1 0.21207172E+00 0.13152067E+04</pdfrwt>
<totfact> 0.10103398E+01</totfact>
</mgrwt>
</event>
<event>
 6    1  0.1072514E-005  0.3164763E+04  0.7818608E-02  0.8198186E-01
          2   -1    0    0  501    0  0.00000000000E+00  0.00000000000E+00  0.32223542058E+04  0.32223542058E+04  0.00000000000E+00 0.  1.
         -2   -1    0    0    0  501 -0.00000000000E+00 -0.00000000000E+00 -0.77705050758E+03  0.77705050758E+03  0.00000000000E+00 0. -1.
         23    2    1    2    0    0 -0.15774523563E+04  0.32327501433E+02  0.13550533829E+04  0.20815812716E+04  0.86080867987E+02 0.  0.
         11    1    3    3    0    0 -0.99768238166E+03  0.49943817527E+02  0.89546751935E+03  0.13415388916E+04  0.00000000000E+00 0.  1.
        -11    1    3    3    0    0 -0.57976997467E+03 -0.17616316094E+02  0.45958586355E+03  0.74004237993E+03  0.00000000000E+00 0. -1.
         22    1    1    2    0    0  0.15774523563E+04 -0.32327501433E+02  0.10902503153E+04  0.19178234418E+04  0.00000000000E+00 0. -1.
<mgrwt>
<rscale>  0 0.31647635E+04</rscale>
<asrwt>0</asrwt>
<pdfrwt beam="1">  1        2 0.49574679E+00 0.31647635E+04</pdfrwt>
<pdfrwt beam="2">  1       -2 0.11954623E+00 0.31647635E+04</pdfrwt>
<totfact> 0.56703979E-01</totfact>
</mgrwt>
</event>
<event>
 6    1  0.1072514E-005  0.3285749E+04  0.7818608E-02  0.8166531E-01
         -2   -1    0    0    0  501 -0.00000000000E+00  0.00000000000E+00  0.17293759334E+04  0.17293759334E+04  0.00000000000E+00 0.  1.
          2   -1    0    0  501    0  0.00000000000E+00 -0.00000000000E+00 -0.15606998136E+04  0.15606998136E+04  0.00000000000E+00 0. -1.
         23    2    1    2    0    0 -0.12287963919E+04  0.10788654442E+04  0.22450761766E+03  0.16539191605E+04  0.10561107754E+03 0.  0.
         11    1    3    3    0    0 -0.52022821676E+03  0.44799690053E+03  0.42138730095E+02  0.68783304149E+03  0.00000000000E+00 0. -1.
        -11    1    3    3    0    0 -0.70856817513E+03  0.63086854369E+03  0.18236888756E+03  0.96608611903E+03  0.00000000000E+00 0.  1.
         22    1    1    2    0    0  0.12287963919E+04 -0.10788654442E+04 -0.55831497806E+02  0.16361565865E+04  0.00000000000E+00 0.  1.
<mgrwt>
<rscale>  0 0.32857490E+04</rscale>
<asrwt>0</asrwt>
<pdfrwt beam="1">  1        2 0.24010766E+00 0.32857490E+04</pdfrwt>
<pdfrwt beam="2">  1       -2 0.26605784E+00 0.32857490E+04</pdfrwt>
<totfact> 0.50260547E-01</totfact>
</mgrwt>
</event>
<event>
 6    1  0.1072514E-005  0.1901068E+04  0.7818608E-02  0.8654325E-01
          1   -1    0    0  501    0  0.00000000000E+00  0.00000000000E+00  0.28995561532E+04  0.28995561532E+04  0.00000000000E+00 0. -1.
         -1   -1    0    0    0  501 -0.00000000000E+00 -0.00000000000E+00 -0.31160454819E+03  0.31160454819E+03  0.00000000000E+00 0.  1.
         23    2    1    2    0    0  0.62112849404E+03 -0.27556468245E+03  0.17941156028E+03  0.70860168162E+03  0.90505993736E+02 0.  0.
         11    1    3    3    0    0  0.27462095015E+03 -0.17119871762E+03  0.82297410853E+02  0.33391395750E+03  0.00000000000E+00 0.  1.
        -11    1    3    3    0    0  0.34650754389E+03 -0.10436596483E+03  0.97114149430E+02  0.37468772412E+03  0.00000000000E+00 0. -1.
         22    1    1    2    0    0 -0.62112849404E+03  0.27556468245E+03  0.24085400447E+04  0.25025590197E+04  0.00000000000E+00 0. -1.
<mgrwt>
<rscale>  0 0.19010680E+04</rscale>
<asrwt>0</asrwt>
<pdfrwt beam="1">  1        1 0.44608554E+00 0.19010680E+04</pdfrwt>
<pdfrwt beam="2">  1       -1 0.47939163E-01 0.19010680E+04</pdfrwt>
<totfact> 0.28816741E+00</totfact>
</mgrwt>
</event>
<event>
 6    1  0.1072514E-005  0.1781973E+04  0.7818608E-02  0.8715945E-01
         -1   -1    0    0    0  501 -0.00000000000E+00  0.00000000000E+00  0.61884455394E+03  0.61884455394E+03  0.00000000000E+00 0.  1.
          1   -1    0    0  501    0  0.00000000000E+00 -0.00000000000E+00 -0.12828055009E+04  0.12828055009E+04  0.00000000000E+00 0. -1.
         23    2    1    2    0    0 -0.37678160868E+03 -0.79911978871E+03 -0.43493562530E+03  0.98895656015E+03  0.91155155400E+02 0.  0.
         11    1    3    3    0    0 -0.66562320807E+02 -0.18896067749E+03 -0.13532905473E+03  0.24176565769E+03  0.00000000000E+00 0. -1.
        -11    1    3    3    0    0 -0.31021928787E+03 -0.61015911122E+03 -0.29960657057E+03  0.74719090245E+03  0.00000000000E+00 0.  1.
         22    1    1    2    0    0  0.37678160868E+03  0.79911978871E+03 -0.22902532170E+03  0.91269349473E+03  0.00000000000E+00 0.  1.
<mgrwt>
<rscale>  0 0.17819733E+04</rscale>
<asrwt>0</asrwt>
<pdfrwt beam="1">  1        1 0.19735469E+00 0.17819733E+04</pdfrwt>
<pdfrwt beam="2">  1       -1 0.95206854E-01 0.17819733E+04</pdfrwt>
<totfact> 0.93716866E+00</totfact>
</mgrwt>
</event>
<event>
 6    1  0.1072514E-005  0.3811365E+04  0.7818608E-02  0.8043720E-01
         -1   -1    0    0    0  501 -0.00000000000E+00  0.00000000000E+00  0.14549152976E+04  0.14549152976E+04  0.00000000000E+00 0.  1.
          1   -1    0    0  501    0  0.00000000000E+00 -0.00000000000E+00 -0.24961084427E+04  0.24961084427E+04  0.00000000000E+00 0. -1.
         23    2    1    2    0    0  0.18478515264E+04  0.22260803127E+02 -0.43511382247E+02  0.18509238125E+04  0.94736014703E+02 0.  0.
         13    1    3    3    0    0  0.10978484398E+04  0.19314549664E+02 -0.71977368096E+02  0.11003749316E+04  0.00000000000E+00 0. -1.
        -13    1    3    3    0    0  0.75000308655E+03  0.29462534634E+01  0.28465985849E+02  0.75054888088E+03  0.00000000000E+00 0.  1.
         22    1    1    2    0    0 -0.18478515264E+04 -0.22260803127E+02 -0.99768176288E+03  0.21000999278E+04  0.00000000000E+00 0. -1.
<mgrwt>
<rscale>  0 0.38113653E+04</rscale>
<asrwt>0</asrwt>
<pdfrwt beam="1">  1        1 0.38401668E+00 0.38113653E+04</pdfrwt>
<pdfrwt beam="2">  1       -1 0.22383312E+00 0.38113653E+04</pdfrwt>
<totfact> 0.11241380E-01</totfact>
</mgrwt>
</event>
<event>
 6    1  0.1072514E-005  0.1543735E+04  0.7818608E-02  0.8855879E-01
         -1   -1    0    0    0  501 -0.00000000000E+00  0.00000000000E+00  0.33068570860E+03  0.33068570860E+03  0.00000000000E+00 0.  1.
          1   -1    0    0  501    0  0.00000000000E+00 -0.00000000000E+00 -0.18016486501E+04  0.18016486501E+04  0.00000000000E+00 0. -1.
         23    2    1    2    0    0  0.28170141752E+03 -0.12147582075E+03  0.23643797694E+03  0.39759231450E+03  0.89803496308E+02 0.  0.
         13    1    3    3    0    0  0.21308294409E+03 -0.12728763428E+03  0.16314453585E+03  0.29702293259E+03  0.00000000000E+00 0. -1.
        -13    1    3    3    0    0  0.68618473424E+02  0.58118135259E+01  0.73293441088E+02  0.10056938191E+03  0.00000000000E+00 0.  1.
         22    1    1    2    0    0 -0.28170141752E+03  0.12147582075E+03 -0.17074009184E+04  0.17347420442E+04  0.00000000000E+00 0. -1.
<mgrwt>
<rscale>  0 0.15437350E+04</rscale>
<asrwt>0</asrwt>
<pdfrwt beam="1">  1        1 0.27717672E+00 0.15437350E+04</pdfrwt>
<pdfrwt beam="2">  1       -1 0.50874723E-01 0.15437350E+04</pdfrwt>
<totfact> 0.15212351E+01</totfact>
</mgrwt>
</event>
<event>
 6    1  0.1072514E-005  0.2400880E+04  0.7818608E-02  0.8439174E-01
         -1   -1    0    0    0  501 -0.00000000000E+00  0.00000000000E+00  0.12532893179E+04  0.12532893179E+04  0.00000000000E+00 0.  1.
          1   -1    0    0  501    0  0.00000000000E+00 -0.00000000000E+00 -0.11498190355E+04  0.11498190355E+04  0.00000000000E+00 0. -1.
         23    2    1    2    0    0  0.11681643579E+03  0.58865227429E+03 -0.98679789715E+03  0.11585834308E+04  0.91585461214E+02 0.  0.
         13    1    3    3    0    0  0.78418534912E+02  0.38570604416E+03 -0.56061854402E+03  0.68499034374E+03  0.00000000000E+00 0.  1.
        -13    1    3    3    0    0  0.38397900876E+02  0.20294623013E+03 -0.42617935313E+03  0.47359308710E+03  0.00000000000E+00 0. -1.
         22    1    1    2    0    0 -0.11681643579E+03 -0.58865227429E+03  0.10902681795E+04  0.12445249226E+04  0.00000000000E+00 0.  1.
<mgrwt>
<rscale>  0 0.24008798E+04</rscale>
<asrwt>0</asrwt>
<pdfrwt beam="1">  1        1 0.17689524E+00 0.24008798E+04</pdfrwt>
<pdfrwt beam="2">  1       -1 0.19281374E+00 0.24008798E+04</pdfrwt>
<totfact> 0.17605657E+00</totfact>
</mgrwt>
</event>
<event>
 6    1  0.1072514E-005  0.4063172E+04  0.7818608E-02  0.7991923E-01
         -1   -1    0    0    0  501 -0.00000000000E+00  0.00000000000E+00  0.32142441209E+04  0.32142441209E+04  0.00000000000E+00 0.  1.
          1   -1    0    0  501    0  0.00000000000E+00 -0.00000000000E+00 -0.12840781572E+04  0.12840781572E+04  0.00000000000E+00 0. -1.
         23    2    1    2    0    0 -0.10350031067E+04 -0.17086122808E+04  0.56246005344E+03  0.20773293385E+04  0.91370191254E+02 0.  0.
         13    1    3    3    0    0 -0.73891825908E+03 -0.11933949161E+04  0.43595045712E+03  0.14697769968E+04  0.00000000000E+00 0. -1.
        -13    1    3    3    0    0 -0.29608484757E+03 -0.51521736477E+03  0.12650959632E+03  0.60755234168E+03  0.00000000000E+00 0.  1.
         22    1    1    2    0    0  0.10350031067E+04  0.17086122808E+04  0.13677059102E+04  0.24209929396E+04  0.00000000000E+00 0. -1.
<mgrwt>
<rscale>  0 0.40631715E+04</rscale>
<asrwt>0</asrwt>
<pdfrwt beam="1">  1        1 0.19755049E+00 0.40631715E+04</pdfrwt>
<pdfrwt beam="2">  1       -1 0.49449909E+00 0.40631715E+04</pdfrwt>
<totfact> 0.11714253E-02</totfact>
</mgrwt>
</event>
<event>
 6    1  0.1072514E-005  0.4996264E+04  0.7818608E-02  0.7829084E-01
         -2   -1    0    0    0  501 -0.00000000000E+00  0.00000000000E+00  0.14579905630E+04  0.14579905630E+04  0.00000000000E+00 0.  1.
          2   -1    0    0  501    0  0.00000000000E+00 -0.00000000000E+00 -0.42803174666E+04  0.42803174666E+04  0.00000000000E+00 0. -1.
         23    2    1    2    0    0  0.24633842686E+04 -0.11109631903E+03 -0.95802468515E+03  0.26469932271E+04  0.90318324978E+02 0.  0.
         11    1    3    3    0    0  0.23959991432E+04 -0.11275678423E+03 -0.94634168285E+03  0.25785826663E+04  0.00000000000E+00 0. -1.
        -11    1    3    3    0    0  0.67385125471E+02  0.16604652035E+01 -0.11683002301E+02  0.68410560750E+02  0.00000000000E+00 0.  1.
         22    1    1    2    0    0 -0.24633842686E+04  0.11109631903E+03 -0.18643022184E+04  0.30913148026E+04  0.00000000000E+00 0. -1.
<mgrwt>
<rscale>  0 0.49962636E+04</rscale>
<asrwt>0</asrwt>
<pdfrwt beam="1">  1        2 0.65851037E+00 0.49962636E+04</pdfrwt>
<pdfrwt beam="2">  1       -2 0.22430624E+00 0.49962636E+04</pdfrwt>
<totfact> 0.13260610E-02</totfact>
</mgrwt>
</event>
<event>
 6    1  0.1072514E-005  0.9154308E+03  0.7818608E-02  0.9406495E-01
          1   -1    0    0  501    0  0.00000000000E+00  0.00000000000E+00  0.12694986116E+04  0.12694986116E+04  0.00000000000E+00 0. -1.
         -1   -1    0    0    0  501 -0.00000000000E+00 -0.00000000000E+00 -0.16502843571E+03  0.16502843571E+03  0.00000000000E+00 0.  1.
         23    2    1    2    0    0  0.75373931840E+02 -0.42825688680E+03  0.75008467006E+03  0.87356869106E+03  0.10681785923E+03 0.  0.
         13    1    3    3    0    0  0.60571300883E+02 -0.29857428835E+03  0.42205576226E+03  0.52052526799E+03  0.00000000000E+00 0. -1.
        -13    1    3    3    0    0  0.14802630957E+02 -0.12968259845E+03  0.32802890780E+03  0.35304342307E+03  0.00000000000E+00 0.  1.
         22    1    1    2    0    0 -0.75373931840E+02  0.42825688680E+03  0.35438550580E+03  0.56095835622E+03  0.00000000000E+00 0.  1.
<mgrwt>
<rscale>  0 0.91543076E+03</rscale>
<asrwt>0</asrwt>
<pdfrwt beam="1">  1        1 0.19530747E+00 0.91543076E+03</pdfrwt>
<pdfrwt beam="2">  1       -1 0.25388991E-01 0.91543076E+03</pdfrwt>
<totfact> 0.13056474E+02</totfact>
</mgrwt>
</event>
<event>
 6    1  0.1072514E-005  0.1842250E+04  0.7818608E-02  0.8684149E-01
         -1   -1    0    0    0  501 -0.00000000000E+00  0.00000000000E+00  0.69568599731E+03  0.69568599731E+03  0.00000000000E+00 0.  1.
          1   -1    0    0  501    0  0.00000000000E+00 -0.00000000000E+00 -0.12196180714E+04  0.12196180714E+04  0.00000000000E+00 0. -1.
         23    2    1    2    0    0 -0.78886868339E+03 -0.12922377503E+02 -0.75365122868E+03  0.10935670807E+04  0.73607051642E+02 0.  0.
         13    1    3    3    0    0 -0.34029527447E+03 -0.37104167633E+02 -0.35132905404E+03  0.49051982355E+03  0.00000000000E+00 0.  1.
        -13    1    3    3    0    0 -0.44857340892E+03  0.24181790130E+02 -0.40232217465E+03  0.60304725716E+03  0.00000000000E+00 0. -1.
         22    1    1    2    0    0  0.78886868339E+03  0.12922377503E+02  0.22971915459E+03  0.82173698800E+03  0.00000000000E+00 0.  1.
<mgrwt>
<rscale>  0 0.18422499E+04</rscale>
<asrwt>0</asrwt>
<pdfrwt beam="1">  1        1 0.18763355E+00 0.18422499E+04</pdfrwt>
<pdfrwt beam="2">  1       -1 0.10702862E+00 0.18422499E+04</pdfrwt>
<totfact> 0.79141365E+00</totfact>
</mgrwt>
</event>
<event>
 6    1  0.1072514E-005  0.9928308E+03  0.7818608E-02  0.9316443E-01
          2   -1    0    0  501    0  0.00000000000E+00  0.00000000000E+00  0.11536976302E+04  0.11536976302E+04  0.00000000000E+00 0. -1.
         -2   -1    0    0    0  501 -0.00000000000E+00 -0.00000000000E+00 -0.21359863710E+03  0.21359863710E+03  0.00000000000E+00 0.  1.
         23    2    1    2    0    0  0.28369002761E+03  0.20706585072E+03 -0.12434814440E+01  0.36256647642E+03  0.89981138430E+02 0.  0.
         11    1    3    3    0    0  0.14535735346E+03  0.79972723327E+02  0.39055834154E+02  0.17043988636E+03  0.00000000000E+00 0.  1.
        -11    1    3    3    0    0  0.13833267416E+03  0.12709312739E+03 -0.40299315598E+02  0.19212659006E+03  0.00000000000E+00 0. -1.
         22    1    1    2    0    0 -0.28369002761E+03 -0.20706585072E+03  0.94134247459E+03  0.10047297909E+04  0.00000000000E+00 0. -1.
<mgrwt>
<rscale>  0 0.99283078E+03</rscale>
<asrwt>0</asrwt>
<pdfrwt beam="1">  1        2 0.17749194E+00 0.99283078E+03</pdfrwt>
<pdfrwt beam="2">  1       -2 0.32861329E-01 0.99283078E+03</pdfrwt>
<totfact> 0.17402135E+02</totfact>
</mgrwt>
</event>
<event>
 6    1  0.1072514E-005  0.3282664E+04  0.7818608E-02  0.8167321E-01
          2   -1    0    0  501    0  0.00000000000E+00  0.00000000000E+00  0.24665014399E+04  0.24665014399E+04  0.00000000000E+00 0. -1.
         -2   -1    0    0    0  501 -0.00000000000E+00 -0.00000000000E+00 -0.10922235853E+04  0.10922235853E+04  0.00000000000E+00 0.  1.
         23    2    1    2    0    0  0.61638727428E+03  0.12332785299E+04  0.16505215658E+04  0.21525885480E+04  0.92232390619E+02 0.  0.
         13    1    3    3    0    0  0.45143504340E+03  0.98431091757E+03  0.13109734381E+04  0.17003861139E+04  0.00000000000E+00 0.  1.
        -13    1    3    3    0    0  0.16495223088E+03  0.24896761234E+03  0.33954812769E+03  0.45220243419E+03  0.00000000000E+00 0. -1.
         22    1    1    2    0    0 -0.61638727428E+03 -0.12332785299E+04 -0.27624371115E+03  0.14061364771E+04  0.00000000000E+00 0.  1.
<mgrwt>
<rscale>  0 0.32826642E+04</rscale>
<asrwt>0</asrwt>
<pdfrwt beam="1">  1        2 0.37946176E+00 0.32826642E+04</pdfrwt>
<pdfrwt beam="2">  1       -2 0.16803440E+00 0.32826642E+04</pdfrwt>
<totfact> 0.67012157E-01</totfact>
</mgrwt>
</event>
<event>
 6    1  0.1072514E-005  0.3497241E+04  0.7818608E-02  0.8114444E-01
         -1   -1    0    0    0  501 -0.00000000000E+00  0.00000000000E+00  0.91558366904E+03  0.91558366904E+03  0.00000000000E+00 0.  1.
          1   -1    0    0  501    0  0.00000000000E+00 -0.00000000000E+00 -0.33395900435E+04  0.33395900435E+04  0.00000000000E+00 0. -1.
         23    2    1    2    0    0 -0.47144114052E+03  0.14999507230E+04 -0.28485773579E+03  0.16003543555E+04  0.88776196574E+02 0.  0.
         11    1    3    3    0    0 -0.21937216635E+03  0.59941748687E+03 -0.14817334192E+03  0.65527155454E+03  0.00000000000E+00 0. -1.
        -11    1    3    3    0    0 -0.25206897417E+03  0.90053323611E+03 -0.13668439387E+03  0.94508280092E+03  0.00000000000E+00 0.  1.
         22    1    1    2    0    0  0.47144114052E+03 -0.14999507230E+04 -0.21391486387E+04  0.26548193571E+04  0.00000000000E+00 0. -1.
<mgrwt>
<rscale>  0 0.34972413E+04</rscale>
<asrwt>0</asrwt>
<pdfrwt beam="1">  1        1 0.51378308E+00 0.34972413E+04</pdfrwt>
<pdfrwt beam="2">  1       -1 0.14085903E+00 0.34972413E+04</pdfrwt>
<totfact> 0.11197224E-01</totfact>
</mgrwt>
</event>
<event>
 6    1  0.1121749E-005  0.2743992E+04  0.7818608E-02  0.8320871E-01
          1   -1    0    0  501    0  0.00000000000E+00  0.00000000000E+00  0.19662965167E+04  0.19662965167E+04  0.00000000000E+00 0. -1.
         -1   -1    0    0    0  501 -0.00000000000E+00 -0.00000000000E+00 -0.95731891843E+03  0.95731891843E+03  0.00000000000E+00 0.  1.
         23    2    1    2    0    0  0.11308382203E+03  0.12485531291E+04  0.10949918343E+04  0.16670043912E+04  0.90684375359E+02 0.  0.
         13    1    3    3    0    0  0.40760911958E+02  0.69315272117E+03  0.55362085155E+03  0.88804177496E+03  0.00000000000E+00 0. -1.
        -13    1    3    3    0    0  0.72322910070E+02  0.55540040793E+03  0.54137098276E+03  0.77896261619E+03  0.00000000000E+00 0.  1.
         22    1    1    2    0    0 -0.11308382203E+03 -0.12485531291E+04 -0.86014236050E+02  0.12566110440E+04  0.00000000000E+00 0.  1.
<mgrwt>
<rscale>  0 0.27439919E+04</rscale>
<asrwt>0</asrwt>
<pdfrwt beam="1">  1        1 0.30250716E+00 0.27439919E+04</pdfrwt>
<pdfrwt beam="2">  1       -1 0.14727983E+00 0.27439919E+04</pdfrwt>
<totfact> 0.10013441E+00</totfact>
</mgrwt>
</event>
<event>
 6    1  0.1072514E-005  0.4461864E+04  0.7818608E-02  0.7917347E-01
          2   -1    0    0  501    0  0.00000000000E+00  0.00000000000E+00  0.36013731203E+04  0.36013731203E+04  0.00000000000E+00 0. -1.
         -2   -1    0    0    0  501 -0.00000000000E+00 -0.00000000000E+00 -0.13819888647E+04  0.13819888647E+04  0.00000000000E+00 0.  1.
         23    2    1    2    0    0 -0.16411095096E+04 -0.76215891266E+01 -0.57599846180E+03  0.17418402671E+04  0.94523949621E+02 0.  0.
         11    1    3    3    0    0 -0.28996314822E+03 -0.10511614139E+02 -0.65407132552E+02  0.29743438662E+03  0.00000000000E+00 0.  1.
        -11    1    3    3    0    0 -0.13511463613E+04  0.28900250126E+01 -0.51059132925E+03  0.14444058805E+04  0.00000000000E+00 0. -1.
         22    1    1    2    0    0  0.16411095096E+04  0.76215891266E+01  0.27953827174E+04  0.32415217179E+04  0.00000000000E+00 0. -1.
<mgrwt>
<rscale>  0 0.44618640E+04</rscale>
<asrwt>0</asrwt>
<pdfrwt beam="1">  1        2 0.55405740E+00 0.44618640E+04</pdfrwt>
<pdfrwt beam="2">  1       -2 0.21261367E+00 0.44618640E+04</pdfrwt>
<totfact> 0.57542208E-02</totfact>
</mgrwt>
</event>
<event>
 6    1  0.1072514E-005  0.2645034E+04  0.7818608E-02  0.8353063E-01
         -1   -1    0    0    0  501 -0.00000000000E+00  0.00000000000E+00  0.13803664275E+04  0.13803664275E+04  0.00000000000E+00 0.  1.
          1   -1    0    0  501    0  0.00000000000E+00 -0.00000000000E+00 -0.12670917718E+04  0.12670917718E+04  0.00000000000E+00 0. -1.
         23    2    1    2    0    0 -0.11895161857E+04  0.48983196026E+03 -0.24371701816E+03  0.13124199374E+04  0.90354866757E+02 0.  0.
         11    1    3    3    0    0 -0.59193035822E+03  0.25172553307E+03 -0.76493723327E+02  0.64776429563E+03  0.00000000000E+00 0.  1.
        -11    1    3    3    0    0 -0.59758582747E+03  0.23810642719E+03 -0.16722329483E+03  0.66465564182E+03  0.00000000000E+00 0. -1.
         22    1    1    2    0    0  0.11895161857E+04 -0.48983196026E+03  0.35699167393E+03  0.13350382618E+04  0.00000000000E+00 0. -1.
<mgrwt>
<rscale>  0 0.26450338E+04</rscale>
<asrwt>0</asrwt>
<pdfrwt beam="1">  1        1 0.19493719E+00 0.26450338E+04</pdfrwt>
<pdfrwt beam="2">  1       -1 0.21236407E+00 0.26450338E+04</pdfrwt>
<totfact> 0.10382290E+00</totfact>
</mgrwt>
</event>
<event>
 6    1  0.1072514E-005  0.4069023E+03  0.7818608E-02  0.1041416E+00
          2   -1    0    0  501    0  0.00000000000E+00  0.00000000000E+00  0.59335606572E+02  0.59335606572E+02  0.00000000000E+00 0. -1.
         -2   -1    0    0    0  501 -0.00000000000E+00 -0.00000000000E+00 -0.69759735696E+03  0.69759735696E+03  0.00000000000E+00 0.  1.
         23    2    1    2    0    0 -0.38716622409E+02  0.15424085436E+03 -0.53941692314E+03  0.56969109354E+03  0.91039041553E+02 0.  0.
         13    1    3    3    0    0 -0.39126232923E+02  0.42736495429E+02 -0.93115716153E+02  0.10967135788E+03  0.00000000000E+00 0. -1.
        -13    1    3    3    0    0  0.40961051397E+00  0.11150435893E+03 -0.44630120699E+03  0.46001973566E+03  0.00000000000E+00 0.  1.
         22    1    1    2    0    0  0.38716622409E+02 -0.15424085436E+03 -0.98844827249E+02  0.18724186999E+03  0.00000000000E+00 0. -1.
<mgrwt>
<rscale>  0 0.40690226E+03</rscale>
<asrwt>0</asrwt>
<pdfrwt beam="1">  1        2 0.91285545E-02 0.40690226E+03</pdfrwt>
<pdfrwt beam="2">  1       -2 0.10732267E+00 0.40690226E+03</pdfrwt>
<totfact> 0.52479824E+02</totfact>
</mgrwt>
</event>
<event>
 6    1  0.1072514E-005  0.1182358E+04  0.7818608E-02  0.9128440E-01
         -2   -1    0    0    0  501 -0.00000000000E+00  0.00000000000E+00  0.21343863984E+03  0.21343863984E+03  0.00000000000E+00 0.  1.
          2   -1    0    0  501    0  0.00000000000E+00 -0.00000000000E+00 -0.16374379382E+04  0.16374379382E+04  0.00000000000E+00 0. -1.
         23    2    1    2    0    0 -0.17513923399E+03  0.44251143995E+03 -0.17778226181E+03  0.51687994088E+03  0.95227175186E+02 0.  0.
         13    1    3    3    0    0 -0.31060658193E+02  0.20541649381E+03 -0.69719844810E+02  0.21913821478E+03  0.00000000000E+00 0.  1.
        -13    1    3    3    0    0 -0.14407857580E+03  0.23709494614E+03 -0.10806241700E+03  0.29774172610E+03  0.00000000000E+00 0. -1.
         22    1    1    2    0    0  0.17513923399E+03 -0.44251143995E+03 -0.12462170365E+04  0.13339966371E+04  0.00000000000E+00 0. -1.
<mgrwt>
<rscale>  0 0.11823579E+04</rscale>
<asrwt>0</asrwt>
<pdfrwt beam="1">  1        2 0.25191355E+00 0.11823579E+04</pdfrwt>
<pdfrwt beam="2">  1       -2 0.32836712E-01 0.11823579E+04</pdfrwt>
<totfact> 0.90790052E+01</totfact>
</mgrwt>
</event>
<event>
 6    1  0.1072514E-005  0.2304789E+04  0.7818608E-02  0.8476035E-01
         -1   -1    0    0    0  501 -0.00000000000E+00  0.00000000000E+00  0.36007590440E+03  0.36007590440E+03  0.00000000000E+00 0.  1.
          1   -1    0    0  501    0  0.00000000000E+00 -0.00000000000E+00 -0.36881468401E+04  0.36881468401E+04  0.00000000000E+00 0. -1.
         23    2    1    2    0    0 -0.41566675511E+02 -0.90153399958E+03 -0.41334250769E+03  0.99697166504E+03  0.92785404646E+02 0.  0.
         13    1    3    3    0    0  0.25509971760E+01 -0.63341095446E+03 -0.25775362407E+03  0.68385150108E+03  0.00000000000E+00 0. -1.
        -13    1    3    3    0    0 -0.44117672687E+02 -0.26812304512E+03 -0.15558888362E+03  0.31312016395E+03  0.00000000000E+00 0.  1.
         22    1    1    2    0    0  0.41566675511E+02  0.90153399958E+03 -0.29147284280E+04  0.30512510794E+04  0.00000000000E+00 0. -1.
<mgrwt>
<rscale>  0 0.23047888E+04</rscale>
<asrwt>0</asrwt>
<pdfrwt beam="1">  1        1 0.56740719E+00 0.23047888E+04</pdfrwt>
<pdfrwt beam="2">  1       -1 0.55396295E-01 0.23047888E+04</pdfrwt>
<totfact> 0.52669749E-01</totfact>
</mgrwt>
</event>
<event>
 6    1  0.1072514E-005  0.3735512E+04  0.7818608E-02  0.8060137E-01
         -2   -1    0    0    0  501 -0.00000000000E+00  0.00000000000E+00  0.17851026506E+04  0.17851026506E+04  0.00000000000E+00 0.  1.
          2   -1    0    0  501    0  0.00000000000E+00 -0.00000000000E+00 -0.19542358837E+04  0.19542358837E+04  0.00000000000E+00 0. -1.
         23    2    1    2    0    0  0.14308693590E+04 -0.86681991954E+03 -0.91346538020E+03  0.19082748432E+04  0.91268730286E+02 0.  0.
         11    1    3    3    0    0  0.46003568315E+03 -0.24483005186E+03 -0.24956520316E+03  0.57780392409E+03  0.00000000000E+00 0.  1.
        -11    1    3    3    0    0  0.97083367581E+03 -0.62198986768E+03 -0.66390017703E+03  0.13304709191E+04  0.00000000000E+00 0. -1.
         22    1    1    2    0    0 -0.14308693590E+04  0.86681991954E+03  0.74433214708E+03  0.18310636910E+04  0.00000000000E+00 0.  1.
<mgrwt>
<rscale>  0 0.37355116E+04</rscale>
<asrwt>0</asrwt>
<pdfrwt beam="1">  1        2 0.30065167E+00 0.37355116E+04</pdfrwt>
<pdfrwt beam="2">  1       -2 0.27463118E+00 0.37355116E+04</pdfrwt>
<totfact> 0.25933700E-01</totfact>
</mgrwt>
</event>
<event>
 6    1  0.1072514E-005  0.1727758E+04  0.7818608E-02  0.8745689E-01
         -1   -1    0    0    0  501 -0.00000000000E+00  0.00000000000E+00  0.12705239995E+04  0.12705239995E+04  0.00000000000E+00 0.  1.
          1   -1    0    0  501    0  0.00000000000E+00 -0.00000000000E+00 -0.58738527228E+03  0.58738527228E+03  0.00000000000E+00 0. -1.
         23    2    1    2    0    0 -0.83875487891E+03 -0.12148271881E+03  0.50863145733E+03  0.99262285385E+03  0.91248960180E+02 0.  0.
         13    1    3    3    0    0 -0.37376064929E+03 -0.26916555912E+02  0.18222940589E+03  0.41668822915E+03  0.00000000000E+00 0.  1.
        -13    1    3    3    0    0 -0.46499422962E+03 -0.94566162894E+02  0.32640205144E+03  0.57593462470E+03  0.00000000000E+00 0. -1.
         22    1    1    2    0    0  0.83875487891E+03  0.12148271881E+03  0.17450726993E+03  0.86528641797E+03  0.00000000000E+00 0.  1.
<mgrwt>
<rscale>  0 0.17277582E+04</rscale>
<asrwt>0</asrwt>
<pdfrwt beam="1">  1        1 0.90366965E-01 0.17277582E+04</pdfrwt>
<pdfrwt beam="2">  1       -1 0.19546523E+00 0.17277582E+04</pdfrwt>
<totfact> 0.54241525E+00</totfact>
</mgrwt>
</event>
<event>
 6    1  0.1072514E-005  0.5343888E+04  0.7818608E-02  0.7777543E-01
          1   -1    0    0  501    0  0.00000000000E+00  0.00000000000E+00  0.19753903887E+04  0.19753903887E+04  0.00000000000E+00 0. -1.
         -1   -1    0    0    0  501 -0.00000000000E+00 -0.00000000000E+00 -0.36141132253E+04  0.36141132253E+04  0.00000000000E+00 0.  1.
         23    2    1    2    0    0 -0.22262413835E+04  0.70369320243E+03  0.53762902195E+03  0.23976636692E+04  0.91713056038E+02 0.  0.
         13    1    3    3    0    0 -0.13026575590E+04  0.42323868447E+03  0.27034974178E+03  0.13961148531E+04  0.00000000000E+00 0. -1.
        -13    1    3    3    0    0 -0.92358382449E+03  0.28045451795E+03  0.26727928017E+03  0.10015488161E+04  0.00000000000E+00 0.  1.
         22    1    1    2    0    0  0.22262413835E+04 -0.70369320243E+03 -0.21763518586E+04  0.31918399448E+04  0.00000000000E+00 0.  1.
<mgrwt>
<rscale>  0 0.53438879E+04</rscale>
<asrwt>0</asrwt>
<pdfrwt beam="1">  1        1 0.30390621E+00 0.53438879E+04</pdfrwt>
<pdfrwt beam="2">  1       -1 0.55601742E+00 0.53438879E+04</pdfrwt>
<totfact> 0.15392928E-03</totfact>
</mgrwt>
</event>
<event>
 6    1  0.1072514E-005  0.1763769E+04  0.7818608E-02  0.8725807E-01
         -1   -1    0    0    0  501 -0.00000000000E+00  0.00000000000E+00  0.26934163111E+03  0.26934163111E+03  0.00000000000E+00 0.  1.
          1   -1    0    0  501    0  0.00000000000E+00 -0.00000000000E+00 -0.28874879315E+04  0.28874879315E+04  0.00000000000E+00 0. -1.
         23    2    1    2    0    0  0.45875571917E+03 -0.22067773324E+03 -0.25962567644E+04  0.26472860183E+04  0.91752950807E+02 0.  0.
         11    1    3    3    0    0  0.14400925388E+03 -0.30074981743E+02 -0.85652079542E+03  0.86906331341E+03  0.00000000000E+00 0. -1.
        -11    1    3    3    0    0  0.31474646529E+03 -0.19060275150E+03 -0.17397359690E+04  0.17782227049E+04  0.00000000000E+00 0.  1.
         22    1    1    2    0    0 -0.45875571917E+03  0.22067773324E+03 -0.21889535999E+02  0.50954354436E+03  0.00000000000E+00 0.  1.
<mgrwt>
<rscale>  0 0.17637695E+04</rscale>
<asrwt>0</asrwt>
<pdfrwt beam="1">  1        1 0.44422892E+00 0.17637695E+04</pdfrwt>
<pdfrwt beam="2">  1       -1 0.41437173E-01 0.17637695E+04</pdfrwt>
<totfact> 0.39082328E+00</totfact>
</mgrwt>
</event>
<event>
 6    1  0.1072514E-005  0.3487852E+04  0.7818608E-02  0.8116675E-01
         -1   -1    0    0    0  501 -0.00000000000E+00  0.00000000000E+00  0.15180209572E+04  0.15180209572E+04  0.00000000000E+00 0.  1.
          1   -1    0    0  501    0  0.00000000000E+00 -0.00000000000E+00 -0.20034490240E+04  0.20034490240E+04  0.00000000000E+00 0. -1.
         23    2    1    2    0    0  0.70118999899E+03  0.38934087424E+02 -0.18532195462E+04  0.19839275235E+04  0.91446454985E+02 0.  0.
         11    1    3    3    0    0  0.48326136513E+03 -0.99226521476E+01 -0.13260831692E+04  0.14114306847E+04  0.00000000000E+00 0.  1.
        -11    1    3    3    0    0  0.21792863386E+03  0.48856739572E+02 -0.52713637698E+03  0.57249683877E+03  0.00000000000E+00 0. -1.
         22    1    1    2    0    0 -0.70118999899E+03 -0.38934087424E+02  0.13677914795E+04  0.15375424577E+04  0.00000000000E+00 0.  1.
<mgrwt>
<rscale>  0 0.34878518E+04</rscale>
<asrwt>0</asrwt>
<pdfrwt beam="1">  1        1 0.30822293E+00 0.34878518E+04</pdfrwt>
<pdfrwt beam="2">  1       -1 0.23354168E+00 0.34878518E+04</pdfrwt>
<totfact> 0.21648370E-01</totfact>
</mgrwt>
</event>
<event>
 6    1  0.1072514E-005  0.1427317E+04  0.7818608E-02  0.8934279E-01
         -2   -1    0    0    0  501 -0.00000000000E+00  0.00000000000E+00  0.26501004929E+03  0.26501004929E+03  0.00000000000E+00 0.  1.
          2   -1    0    0  501    0  0.00000000000E+00 -0.00000000000E+00 -0.19218462957E+04  0.19218462957E+04  0.00000000000E+00 0. -1.
         23    2    1    2    0    0 -0.12324729990E+03  0.62895125627E+03 -0.36044272684E+03  0.74068701284E+03  0.89043315116E+02 0.  0.
         13    1    3    3    0    0 -0.44012763784E+02  0.32717656787E+03 -0.23089594218E+03  0.40285799738E+03  0.00000000000E+00 0. -1.
        -13    1    3    3    0    0 -0.79234536118E+02  0.30177468840E+03 -0.12954678466E+03  0.33782901546E+03  0.00000000000E+00 0.  1.
         22    1    1    2    0    0  0.12324729990E+03 -0.62895125627E+03 -0.12963935196E+04  0.14461693322E+04  0.00000000000E+00 0.  1.
<mgrwt>
<rscale>  0 0.14273172E+04</rscale>
<asrwt>0</asrwt>
<pdfrwt beam="1">  1        2 0.29566866E+00 0.14273172E+04</pdfrwt>
<pdfrwt beam="2">  1       -2 0.40770777E-01 0.14273172E+04</pdfrwt>
<totfact> 0.40874327E+01</totfact>
</mgrwt>
</event>
<event>
 6    1  0.1072514E-005  0.1295026E+04  0.7818608E-02  0.9033519E-01
          1   -1    0    0  501    0  0.00000000000E+00  0.00000000000E+00  0.39470070183E+03  0.39470070183E+03  0.00000000000E+00 0. -1.
         -1   -1    0    0    0  501 -0.00000000000E+00 -0.00000000000E+00 -0.10622551427E+04  0.10622551427E+04  0.00000000000E+00 0.  1.
         23    2    1    2    0    0 -0.33372362927E+03  0.38178738096E+03 -0.78259898610E+03  0.93698631432E+03  0.91373492800E+02 0.  0.
         11    1    3    3    0    0 -0.86661149649E+02  0.76669716709E+02 -0.24847069409E+03  0.27409138283E+03  0.00000000000E+00 0.  1.
        -11    1    3    3    0    0 -0.24706247963E+03  0.30511766425E+03 -0.53412829201E+03  0.66289493150E+03  0.00000000000E+00 0. -1.
         22    1    1    2    0    0  0.33372362927E+03 -0.38178738096E+03  0.11504454521E+03  0.51996953024E+03  0.00000000000E+00 0. -1.
<mgrwt>
<rscale>  0 0.12950256E+04</rscale>
<asrwt>0</asrwt>
<pdfrwt beam="1">  1        1 0.60723187E-01 0.12950256E+04</pdfrwt>
<pdfrwt beam="2">  1       -1 0.16342386E+00 0.12950256E+04</pdfrwt>
<totfact> 0.16529330E+01</totfact>
</mgrwt>
</event>
<event>
 6    1  0.1072514E-005  0.1921681E+04  0.7818608E-02  0.8644139E-01
         -2   -1    0    0    0  501 -0.00000000000E+00  0.00000000000E+00  0.78331076337E+03  0.78331076337E+03  0.00000000000E+00 0. -1.
          2   -1    0    0  501    0  0.00000000000E+00 -0.00000000000E+00 -0.11786050682E+04  0.11786050682E+04  0.00000000000E+00 0.  1.
         23    2    1    2    0    0 -0.24385321179E+03 -0.75472988879E+03 -0.74737796472E+03  0.10941344665E+04  0.97338659805E+02 0.  0.
         13    1    3    3    0    0 -0.88120114438E+00 -0.10627634199E+03 -0.11048919853E+03  0.15330786142E+03  0.00000000000E+00 0.  1.
        -13    1    3    3    0    0 -0.24297201065E+03 -0.64845354680E+03 -0.63688876619E+03  0.94082660507E+03  0.00000000000E+00 0. -1.
         22    1    1    2    0    0  0.24385321179E+03  0.75472988879E+03  0.35208365993E+03  0.86778136504E+03  0.00000000000E+00 0. -1.
<mgrwt>
<rscale>  0 0.19216806E+04</rscale>
<asrwt>0</asrwt>
<pdfrwt beam="1">  1        2 0.18132386E+00 0.19216806E+04</pdfrwt>
<pdfrwt beam="2">  1       -2 0.12050935E+00 0.19216806E+04</pdfrwt>
<totfact> 0.95854162E+00</totfact>
</mgrwt>
</event>
<event>
 6    1  0.1072514E-005  0.2272205E+04  0.7818608E-02  0.8488962E-01
          1   -1    0    0  501    0  0.00000000000E+00  0.00000000000E+00  0.12913725522E+04  0.12913725522E+04  0.00000000000E+00 0. -1.
         -1   -1    0    0    0  501 -0.00000000000E+00 -0.00000000000E+00 -0.99950174561E+03  0.99950174561E+03  0.00000000000E+00 0.  1.
         23    2    1    2    0    0 -0.44146039301E+03  0.58454105483E+03  0.10193770156E+04  0.12584786336E+04  0.89796702642E+02 0.  0.
         13    1    3    3    0    0 -0.29537229877E+03  0.33207370594E+03  0.57100069883E+03  0.72357414211E+03  0.00000000000E+00 0.  1.
        -13    1    3    3    0    0 -0.14608809424E+03  0.25246734889E+03  0.44837631681E+03  0.53490449149E+03  0.00000000000E+00 0. -1.
         22    1    1    2    0    0  0.44146039301E+03 -0.58454105483E+03 -0.72750620902E+03  0.10323956642E+04  0.00000000000E+00 0.  1.
<mgrwt>
<rscale>  0 0.22722052E+04</rscale>
<asrwt>0</asrwt>
<pdfrwt beam="1">  1        1 0.19867270E+00 0.22722052E+04</pdfrwt>
<pdfrwt beam="2">  1       -1 0.15376950E+00 0.22722052E+04</pdfrwt>
<totfact> 0.27116822E+00</totfact>
</mgrwt>
</event>
<event>
 6    1  0.1072514E-005  0.1545941E+04  0.7818608E-02  0.8854465E-01
         -1   -1    0    0    0  501 -0.00000000000E+00  0.00000000000E+00  0.48161720478E+03  0.48161720478E+03  0.00000000000E+00 0.  1.
          1   -1    0    0  501    0  0.00000000000E+00 -0.00000000000E+00 -0.12405775035E+04  0.12405775035E+04  0.00000000000E+00 0. -1.
         23    2    1    2    0    0  0.22635406338E+03  0.39137559148E+03  0.31386627544E+03  0.55799203097E+03  0.91826206247E+02 0.  0.
         13    1    3    3    0    0  0.31251199875E+02  0.13755923959E+03  0.10253933984E+03  0.17439466192E+03  0.00000000000E+00 0.  1.
        -13    1    3    3    0    0  0.19510286351E+03  0.25381635189E+03  0.21132693560E+03  0.38359736905E+03  0.00000000000E+00 0. -1.
         22    1    1    2    0    0 -0.22635406338E+03 -0.39137559148E+03 -0.10728265741E+04  0.11642026773E+04  0.00000000000E+00 0. -1.
<mgrwt>
<rscale>  0 0.15459411E+04</rscale>
<asrwt>0</asrwt>
<pdfrwt beam="1">  1        1 0.19085807E+00 0.15459411E+04</pdfrwt>
<pdfrwt beam="2">  1       -1 0.74094956E-01 0.15459411E+04</pdfrwt>
<totfact> 0.17644171E+01</totfact>
</mgrwt>
</event>
<event>
 6    1  0.1072514E-005  0.1454512E+04  0.7818608E-02  0.8915278E-01
          1   -1    0    0  501    0  0.00000000000E+00  0.00000000000E+00  0.41168956005E+03  0.41168956005E+03  0.00000000000E+00 0. -1.
         -1   -1    0    0    0  501 -0.00000000000E+00 -0.00000000000E+00 -0.12847097064E+04  0.12847097064E+04  0.00000000000E+00 0.  1.
         23    2    1    2    0    0  0.35183573326E+03  0.22195282620E+03  0.25468636605E+03  0.49441198767E+03  0.80787549995E+02 0.  0.
         13    1    3    3    0    0  0.24192029878E+03  0.13475739228E+03  0.20873138940E+03  0.34677626600E+03  0.00000000000E+00 0. -1.
        -13    1    3    3    0    0  0.10991543448E+03  0.87195433921E+02  0.45954976653E+02  0.14763572167E+03  0.00000000000E+00 0.  1.
         22    1    1    2    0    0 -0.35183573326E+03 -0.22195282620E+03 -0.11277065124E+04  0.12019872788E+04  0.00000000000E+00 0.  1.
<mgrwt>
<rscale>  0 0.14545124E+04</rscale>
<asrwt>0</asrwt>
<pdfrwt beam="1">  1        1 0.63336855E-01 0.14545124E+04</pdfrwt>
<pdfrwt beam="2">  1       -1 0.19764765E+00 0.14545124E+04</pdfrwt>
<totfact> 0.87565328E+00</totfact>
</mgrwt>
</event>
<event>
 6    1  0.1072514E-005  0.1831891E+04  0.7818608E-02  0.8689522E-01
          1   -1    0    0  501    0  0.00000000000E+00  0.00000000000E+00  0.73214920479E+03  0.73214920479E+03  0.00000000000E+00 0. -1.
         -1   -1    0    0    0  501 -0.00000000000E+00 -0.00000000000E+00 -0.11458808855E+04  0.11458808855E+04  0.00000000000E+00 0.  1.
         23    2    1    2    0    0 -0.39295731346E+03 -0.81584772943E+03 -0.33188726921E+03  0.96878783681E+03  0.91530024948E+02 0.  0.
         13    1    3    3    0    0 -0.15775456640E+03 -0.42682338939E+03 -0.14961277514E+03  0.47900802857E+03  0.00000000000E+00 0. -1.
        -13    1    3    3    0    0 -0.23520274706E+03 -0.38902434004E+03 -0.18227449407E+03  0.48977980824E+03  0.00000000000E+00 0.  1.
         22    1    1    2    0    0  0.39295731346E+03  0.81584772943E+03 -0.81844411499E+02  0.90924225348E+03  0.00000000000E+00 0.  1.
<mgrwt>
<rscale>  0 0.18318906E+04</rscale>
<asrwt>0</asrwt>
<pdfrwt beam="1">  1        1 0.11263834E+00 0.18318906E+04</pdfrwt>
<pdfrwt beam="2">  1       -1 0.17628937E+00 0.18318906E+04</pdfrwt>
<totfact> 0.52965533E+00</totfact>
</mgrwt>
</event>
<event>
 6    1  0.1072514E-005  0.2542883E+04  0.7818608E-02  0.8387866E-01
         -2   -1    0    0    0  501 -0.00000000000E+00  0.00000000000E+00  0.16161643809E+04  0.16161643809E+04  0.00000000000E+00 0.  1.
          2   -1    0    0  501    0  0.00000000000E+00 -0.00000000000E+00 -0.10002469971E+04  0.10002469971E+04  0.00000000000E+00 0. -1.
         23    2    1    2    0    0 -0.34501031231E+03  0.17955609264E+03 -0.93537122739E+03  0.10171087608E+04  0.91205220124E+02 0.  0.
         13    1    3    3    0    0 -0.15326160797E+03  0.12904796384E+03 -0.43707798160E+03  0.48081145936E+03  0.00000000000E+00 0.  1.
        -13    1    3    3    0    0 -0.19174870434E+03  0.50508128796E+02 -0.49829324579E+03  0.53629730140E+03  0.00000000000E+00 0. -1.
         22    1    1    2    0    0  0.34501031231E+03 -0.17955609264E+03  0.15512886112E+04  0.15993026172E+04  0.00000000000E+00 0.  1.
<mgrwt>
<rscale>  0 0.25428831E+04</rscale>
<asrwt>0</asrwt>
<pdfrwt beam="1">  1        2 0.15388415E+00 0.25428831E+04</pdfrwt>
<pdfrwt beam="2">  1       -2 0.24864067E+00 0.25428831E+04</pdfrwt>
<totfact> 0.14658575E+00</totfact>
</mgrwt>
</event>
<event>
 6    1  0.1072514E-005  0.2457978E+04  0.7818608E-02  0.8418111E-01
         -1   -1    0    0    0  501 -0.00000000000E+00  0.00000000000E+00  0.66787402812E+03  0.66787402812E+03  0.00000000000E+00 0.  1.
          1   -1    0    0  501    0  0.00000000000E+00 -0.00000000000E+00 -0.22615254620E+04  0.22615254620E+04  0.00000000000E+00 0. -1.
         23    2    1    2    0    0 -0.81761194581E+03 -0.42001511154E+03  0.17125824978E+03  0.93947281324E+03  0.91530272848E+02 0.  0.
         13    1    3    3    0    0 -0.54545960721E+03 -0.23772458613E+03  0.87886696936E+02  0.60146756641E+03  0.00000000000E+00 0.  1.
        -13    1    3    3    0    0 -0.27215233861E+03 -0.18229052541E+03  0.83371552848E+02  0.33800524683E+03  0.00000000000E+00 0. -1.
         22    1    1    2    0    0  0.81761194581E+03  0.42001511154E+03 -0.17649096837E+04  0.19899266769E+04  0.00000000000E+00 0. -1.
<mgrwt>
<rscale>  0 0.24579781E+04</rscale>
<asrwt>0</asrwt>
<pdfrwt beam="1">  1        1 0.34792699E+00 0.24579781E+04</pdfrwt>
<pdfrwt beam="2">  1       -1 0.10274985E+00 0.24579781E+04</pdfrwt>
<totfact> 0.15782805E+00</totfact>
</mgrwt>
</event>
<event>
 6    1  0.1072514E-005  0.1028498E+04  0.7818608E-02  0.9277829E-01
         -1   -1    0    0    0  501 -0.00000000000E+00  0.00000000000E+00  0.12172539938E+04  0.12172539938E+04  0.00000000000E+00 0.  1.
          1   -1    0    0  501    0  0.00000000000E+00 -0.00000000000E+00 -0.21725304147E+03  0.21725304147E+03  0.00000000000E+00 0. -1.
         23    2    1    2    0    0  0.14353649692E+03  0.10861833875E+03  0.11707826518E+04  0.11863799341E+04  0.66065580237E+02 0.  0.
         13    1    3    3    0    0  0.46790485991E+02  0.69326630192E+02  0.63819135798E+03  0.64364877118E+03  0.00000000000E+00 0. -1.
        -13    1    3    3    0    0  0.96746010929E+02  0.39291708557E+02  0.53259129381E+03  0.54273116295E+03  0.00000000000E+00 0.  1.
         22    1    1    2    0    0 -0.14353649692E+03 -0.10861833875E+03 -0.17078169945E+03  0.24812710116E+03  0.00000000000E+00 0. -1.
<mgrwt>
<rscale>  0 0.10284982E+04</rscale>
<asrwt>0</asrwt>
<pdfrwt beam="1">  1        1 0.33423546E-01 0.10284982E+04</pdfrwt>
<pdfrwt beam="2">  1       -1 0.18726984E+00 0.10284982E+04</pdfrwt>
<totfact> 0.24713675E+01</totfact>
</mgrwt>
</event>
<event>
 6    1  0.1567555E-005  0.4385715E+04  0.7818608E-02  0.7930956E-01
          1   -1    0    0  501    0  0.00000000000E+00  0.00000000000E+00  0.22019007466E+04  0.22019007466E+04  0.00000000000E+00 0. -1.
         -1   -1    0    0    0  501 -0.00000000000E+00 -0.00000000000E+00 -0.21838512673E+04  0.21838512673E+04  0.00000000000E+00 0.  1.
         23    2    1    2    0    0  0.48557337892E+03  0.23343775562E+03  0.21337073788E+04  0.22025701526E+04  0.91287494581E+02 0.  0.
         11    1    3    3    0    0  0.29653261671E+03  0.18397387001E+03  0.14576133892E+04  0.14988044468E+04  0.00000000000E+00 0. -1.
        -11    1    3    3    0    0  0.18904076221E+03  0.49463885613E+02  0.67609398963E+03  0.70376570573E+03  0.00000000000E+00 0.  1.
         22    1    1    2    0    0 -0.48557337892E+03 -0.23343775562E+03 -0.21156578995E+04  0.21831818614E+04  0.00000000000E+00 0.  1.
<mgrwt>
<rscale>  0 0.43857149E+04</rscale>
<asrwt>0</asrwt>
<pdfrwt beam="1">  1        1 0.33875396E+00 0.43857149E+04</pdfrwt>
<pdfrwt beam="2">  1       -1 0.33597712E+00 0.43857149E+04</pdfrwt>
<totfact> 0.31680128E-02</totfact>
</mgrwt>
</event>
<event>
 6    1  0.1072514E-005  0.4380500E+04  0.7818608E-02  0.7931898E-01
         -2   -1    0    0    0  501 -0.00000000000E+00  0.00000000000E+00  0.14830826944E+04  0.14830826944E+04  0.00000000000E+00 0.  1.
          2   -1    0    0  501    0  0.00000000000E+00 -0.00000000000E+00 -0.32346104449E+04  0.32346104449E+04  0.00000000000E+00 0. -1.
         23    2    1    2    0    0 -0.47957442600E+02 -0.17427460427E+04 -0.23022843604E+04  0.28893615148E+04  0.91831375744E+02 0.  0.
         13    1    3    3    0    0  0.26090057079E+02 -0.54149981138E+03 -0.73364664225E+03  0.91221715204E+03  0.00000000000E+00 0.  1.
        -13    1    3    3    0    0 -0.74047499679E+02 -0.12012462314E+04 -0.15686377181E+04  0.19771443628E+04  0.00000000000E+00 0. -1.
         22    1    1    2    0    0  0.47957442600E+02  0.17427460427E+04  0.55075660992E+03  0.18283316245E+04  0.00000000000E+00 0.  1.
<mgrwt>
<rscale>  0 0.43804999E+04</rscale>
<asrwt>0</asrwt>
<pdfrwt beam="1">  1        2 0.49763236E+00 0.43804999E+04</pdfrwt>
<pdfrwt beam="2">  1       -2 0.22816657E+00 0.43804999E+04</pdfrwt>
<totfact> 0.82574567E-02</totfact>
</mgrwt>
</event>
<event>
 6    1  0.1072514E-005  0.1750272E+04  0.7818608E-02  0.8733201E-01
         -2   -1    0    0    0  501 -0.00000000000E+00  0.00000000000E+00  0.24970633075E+03  0.24970633075E+03  0.00000000000E+00 0.  1.
          2   -1    0    0  501    0  0.00000000000E+00 -0.00000000000E+00 -0.30670548839E+04  0.30670548839E+04  0.00000000000E+00 0. -1.
         23    2    1    2    0    0  0.61062677349E+03  0.38347375244E+03 -0.23442815889E+04  0.24543752639E+04  0.91567422459E+02 0.  0.
         13    1    3    3    0    0  0.18876478776E+03  0.72165766152E+02 -0.69219010525E+03  0.72108750142E+03  0.00000000000E+00 0.  1.
        -13    1    3    3    0    0  0.42186198572E+03  0.31130798629E+03 -0.16520914836E+04  0.17332877625E+04  0.00000000000E+00 0. -1.
         22    1    1    2    0    0 -0.61062677349E+03 -0.38347375244E+03 -0.47306696424E+03  0.86238595070E+03  0.00000000000E+00 0.  1.
<mgrwt>
<rscale>  0 0.17502720E+04</rscale>
<asrwt>0</asrwt>
<pdfrwt beam="1">  1        2 0.47185462E+00 0.17502720E+04</pdfrwt>
<pdfrwt beam="2">  1       -2 0.38416357E-01 0.17502720E+04</pdfrwt>
<totfact> 0.96271788E+00</totfact>
</mgrwt>
</event>
<event>
 6    1  0.1072514E-005  0.1206836E+04  0.7818608E-02  0.9106894E-01
         -1   -1    0    0    0  501 -0.00000000000E+00  0.00000000000E+00  0.16606585758E+03  0.16606585758E+03  0.00000000000E+00 0.  1.
          1   -1    0    0  501    0  0.00000000000E+00 -0.00000000000E+00 -0.21925852860E+04  0.21925852860E+04  0.00000000000E+00 0. -1.
         23    2    1    2    0    0  0.27920258038E+03  0.19365032363E+03 -0.52873413666E+02  0.35596966110E+03  0.92001483766E+02 0.  0.
         11    1    3    3    0    0  0.11048007863E+03  0.11808419273E+03 -0.55827703478E+02  0.17107441896E+03  0.00000000000E+00 0. -1.
        -11    1    3    3    0    0  0.16872250176E+03  0.75566130904E+02  0.29542898117E+01  0.18489524214E+03  0.00000000000E+00 0.  1.
         22    1    1    2    0    0 -0.27920258038E+03 -0.19365032363E+03 -0.19736460148E+04  0.20026814825E+04  0.00000000000E+00 0. -1.
<mgrwt>
<rscale>  0 0.12068365E+04</rscale>
<asrwt>0</asrwt>
<pdfrwt beam="1">  1        1 0.33732080E+00 0.12068365E+04</pdfrwt>
<pdfrwt beam="2">  1       -1 0.25548594E-01 0.12068365E+04</pdfrwt>
<totfact> 0.29517162E+01</totfact>
</mgrwt>
</event>
<event>
 6    1  0.1072514E-005  0.2007662E+04  0.7818608E-02  0.8603047E-01
         -1   -1    0    0    0  501 -0.00000000000E+00  0.00000000000E+00  0.27329046032E+04  0.27329046032E+04  0.00000000000E+00 0. -1.
          1   -1    0    0  501    0  0.00000000000E+00 -0.00000000000E+00 -0.36872019381E+03  0.36872019381E+03  0.00000000000E+00 0.  1.
         23    2    1    2    0    0  0.32546188600E+03  0.15492785630E+03  0.26285103070E+04  0.26546390478E+04  0.90077522899E+02 0.  0.
         11    1    3    3    0    0  0.17756381160E+03  0.35294874714E+02  0.12305918779E+04  0.12438372102E+04  0.00000000000E+00 0.  1.
        -11    1    3    3    0    0  0.14789807440E+03  0.11963298159E+03  0.13979184291E+04  0.14108018376E+04  0.00000000000E+00 0. -1.
         22    1    1    2    0    0 -0.32546188600E+03 -0.15492785630E+03 -0.26432589759E+03  0.44698574925E+03  0.00000000000E+00 0.  1.
<mgrwt>
<rscale>  0 0.20076624E+04</rscale>
<asrwt>0</asrwt>
<pdfrwt beam="1">  1        1 0.56726186E-01 0.20076624E+04</pdfrwt>
<pdfrwt beam="2">  1       -1 0.42044685E+00 0.20076624E+04</pdfrwt>
<totfact> 0.32135317E-01</totfact>
</mgrwt>
</event>
<event>
 6    1  0.1072514E-005  0.1947042E+04  0.7818608E-02  0.8631789E-01
         -2   -1    0    0    0  501 -0.00000000000E+00  0.00000000000E+00  0.63345047872E+03  0.63345047872E+03  0.00000000000E+00 0.  1.
          2   -1    0    0  501    0  0.00000000000E+00 -0.00000000000E+00 -0.14961596593E+04  0.14961596593E+04  0.00000000000E+00 0. -1.
         23    2    1    2    0    0 -0.17881072665E+03  0.38032478768E+03 -0.13897185507E+04  0.14555484967E+04  0.10336128927E+03 0.  0.
         11    1    3    3    0    0 -0.40265037136E+02  0.15583899914E+03 -0.66837614047E+03  0.68748362309E+03  0.00000000000E+00 0. -1.
        -11    1    3    3    0    0 -0.13854568951E+03  0.22448578854E+03 -0.72134241019E+03  0.76806487361E+03  0.00000000000E+00 0.  1.
         22    1    1    2    0    0  0.17881072665E+03 -0.38032478768E+03  0.52700937010E+03  0.67406164130E+03  0.00000000000E+00 0.  1.
<mgrwt>
<rscale>  0 0.19470419E+04</rscale>
<asrwt>0</asrwt>
<pdfrwt beam="1">  1        2 0.23017841E+00 0.19470419E+04</pdfrwt>
<pdfrwt beam="2">  1       -2 0.97453920E-01 0.19470419E+04</pdfrwt>
<totfact> 0.10450486E+01</totfact>
</mgrwt>
</event>
<event>
 6    1  0.1072514E-005  0.3447871E+04  0.7818608E-02  0.8126256E-01
          1   -1    0    0  501    0  0.00000000000E+00  0.00000000000E+00  0.15513291057E+04  0.15513291057E+04  0.00000000000E+00 0. -1.
         -1   -1    0    0    0  501 -0.00000000000E+00 -0.00000000000E+00 -0.19157462818E+04  0.19157462818E+04  0.00000000000E+00 0.  1.
         23    2    1    2    0    0 -0.50032366013E+03  0.70683638493E+03  0.13152549301E+04  0.15773029610E+04  0.89708749438E+02 0.  0.
         11    1    3    3    0    0 -0.46357902339E+02  0.93452468926E+02  0.11764701575E+03  0.15723625337E+03  0.00000000000E+00 0.  1.
        -11    1    3    3    0    0 -0.45396575779E+03  0.61338391601E+03  0.11976079143E+04  0.14200667076E+04  0.00000000000E+00 0. -1.
         22    1    1    2    0    0  0.50032366013E+03 -0.70683638493E+03 -0.16796721061E+04  0.18897724265E+04  0.00000000000E+00 0.  1.
<mgrwt>
<rscale>  0 0.34478706E+04</rscale>
<asrwt>0</asrwt>
<pdfrwt beam="1">  1        1 0.23866602E+00 0.34478706E+04</pdfrwt>
<pdfrwt beam="2">  1       -1 0.29473020E+00 0.34478706E+04</pdfrwt>
<totfact> 0.17645009E-01</totfact>
</mgrwt>
</event>
<event>
 6    1  0.1072514E-005  0.1743912E+04  0.7818608E-02  0.8736709E-01
         -2   -1    0    0    0  501 -0.00000000000E+00  0.00000000000E+00  0.68916298933E+03  0.68916298933E+03  0.00000000000E+00 0.  1.
          2   -1    0    0  501    0  0.00000000000E+00 -0.00000000000E+00 -0.11032326068E+04  0.11032326068E+04  0.00000000000E+00 0. -1.
         23    2    1    2    0    0 -0.62277499170E+03 -0.38604909252E+03 -0.68868564988E+03  0.10099017895E+04  0.93440397541E+02 0.  0.
         11    1    3    3    0    0 -0.31036347743E+03 -0.16190371899E+03 -0.27530498612E+03  0.44534384214E+03  0.00000000000E+00 0. -1.
        -11    1    3    3    0    0 -0.31241151427E+03 -0.22414537352E+03 -0.41338066376E+03  0.56455794733E+03  0.00000000000E+00 0.  1.
         22    1    1    2    0    0  0.62277499170E+03  0.38604909252E+03  0.27461603245E+03  0.78249380662E+03  0.00000000000E+00 0.  1.
<mgrwt>
<rscale>  0 0.17439118E+04</rscale>
<asrwt>0</asrwt>
<pdfrwt beam="1">  1        2 0.16972809E+00 0.17439118E+04</pdfrwt>
<pdfrwt beam="2">  1       -2 0.10602508E+00 0.17439118E+04</pdfrwt>
<totfact> 0.14770051E+01</totfact>
</mgrwt>
</event>
<event>
 6    1  0.1284900E-005  0.4831864E+04  0.7818608E-02  0.7854980E-01
         -2   -1    0    0    0  501 -0.00000000000E+00  0.00000000000E+00  0.20496058172E+04  0.20496058172E+04  0.00000000000E+00 0.  1.
          2   -1    0    0  501    0  0.00000000000E+00 -0.00000000000E+00 -0.28477318824E+04  0.28477318824E+04  0.00000000000E+00 0. -1.
         23    2    1    2    0    0 -0.39402276866E+03  0.43691228872E+03  0.19748196713E+04  0.20626641121E+04  0.92326674688E+02 0.  0.
         11    1    3    3    0    0 -0.11608454872E+03  0.18780164674E+03  0.66404586124E+03  0.69978710105E+03  0.00000000000E+00 0.  1.
        -11    1    3    3    0    0 -0.27793821994E+03  0.24911064198E+03  0.13107738101E+04  0.13628770111E+04  0.00000000000E+00 0. -1.
         22    1    1    2    0    0  0.39402276866E+03 -0.43691228872E+03 -0.27729457365E+04  0.28346735875E+04  0.00000000000E+00 0. -1.
<mgrwt>
<rscale>  0 0.48318642E+04</rscale>
<asrwt>0</asrwt>
<pdfrwt beam="1">  1        2 0.43811260E+00 0.48318642E+04</pdfrwt>
<pdfrwt beam="2">  1       -2 0.31532397E+00 0.48318642E+04</pdfrwt>
<totfact> 0.40825096E-02</totfact>
</mgrwt>
</event>
<event>
 6    1  0.1072514E-005  0.6167943E+04  0.7818608E-02  0.7669921E-01
         -2   -1    0    0    0  501 -0.00000000000E+00  0.00000000000E+00  0.27017462993E+04  0.27017462993E+04  0.00000000000E+00 0.  1.
          2   -1    0    0  501    0  0.00000000000E+00 -0.00000000000E+00 -0.35202711684E+04  0.35202711684E+04  0.00000000000E+00 0. -1.
         23    2    1    2    0    0  0.11195941156E+04 -0.28411811873E+04  0.19649399105E+02  0.30552624051E+04  0.91873512527E+02 0.  0.
         11    1    3    3    0    0  0.88101289765E+03 -0.23324647494E+04  0.13120257544E+02  0.24933406655E+04  0.00000000000E+00 0. -1.
        -11    1    3    3    0    0  0.23858121793E+03 -0.50871643796E+03  0.65291415610E+01  0.56192173965E+03  0.00000000000E+00 0.  1.
         22    1    1    2    0    0 -0.11195941156E+04  0.28411811873E+04 -0.83817426814E+03  0.31667550626E+04  0.00000000000E+00 0. -1.
<mgrwt>
<rscale>  0 0.61679428E+04</rscale>
<asrwt>0</asrwt>
<pdfrwt beam="1">  1        2 0.54158018E+00 0.61679428E+04</pdfrwt>
<pdfrwt beam="2">  1       -2 0.41565328E+00 0.61679428E+04</pdfrwt>
<totfact> 0.30618945E-03</totfact>
</mgrwt>
</event>
<event>
 6    1  0.1072514E-005  0.2364623E+04  0.7818608E-02  0.8452868E-01
         -2   -1    0    0    0  501 -0.00000000000E+00  0.00000000000E+00  0.41432820231E+03  0.41432820231E+03  0.00000000000E+00 0.  1.
          2   -1    0    0  501    0  0.00000000000E+00 -0.00000000000E+00 -0.33738006585E+04  0.33738006585E+04  0.00000000000E+00 0. -1.
         23    2    1    2    0    0  0.43609606345E+03  0.36060174602E+03  0.17761890802E+03  0.60040935884E+03  0.93431931884E+02 0.  0.
         13    1    3    3    0    0  0.34774429925E+03  0.24337785224E+03  0.10816352588E+03  0.43801623823E+03  0.00000000000E+00 0. -1.
        -13    1    3    3    0    0  0.88351764202E+02  0.11722389378E+03  0.69455382142E+02  0.16239312060E+03  0.00000000000E+00 0.  1.
         22    1    1    2    0    0 -0.43609606345E+03 -0.36060174602E+03 -0.31370913642E+04  0.31877195019E+04  0.00000000000E+00 0. -1.
<mgrwt>
<rscale>  0 0.23646232E+04</rscale>
<asrwt>0</asrwt>
<pdfrwt beam="1">  1        2 0.51904625E+00 0.23646232E+04</pdfrwt>
<pdfrwt beam="2">  1       -2 0.63742801E-01 0.23646232E+04</pdfrwt>
<totfact> 0.20431428E+00</totfact>
</mgrwt>
</event>
<event>
 6    1  0.1072514E-005  0.1659405E+04  0.7818608E-02  0.8784862E-01
         -1   -1    0    0    0  501 -0.00000000000E+00  0.00000000000E+00  0.49062227972E+03  0.49062227972E+03  0.00000000000E+00 0.  1.
          1   -1    0    0  501    0  0.00000000000E+00 -0.00000000000E+00 -0.14031288752E+04  0.14031288752E+04  0.00000000000E+00 0. -1.
         23    2    1    2    0    0  0.58041110267E+03  0.46524554342E+03 -0.87052728001E+03  0.11487057022E+04  0.91523664613E+02 0.  0.
         13    1    3    3    0    0  0.28371537733E+03  0.17606033767E+03 -0.35563480991E+03  0.48781940906E+03  0.00000000000E+00 0. -1.
        -13    1    3    3    0    0  0.29669572534E+03  0.28918520575E+03 -0.51489247011E+03  0.66088629312E+03  0.00000000000E+00 0.  1.
         22    1    1    2    0    0 -0.58041110267E+03 -0.46524554342E+03 -0.41979315504E+02  0.74504545278E+03  0.00000000000E+00 0. -1.
<mgrwt>
<rscale>  0 0.16594051E+04</rscale>
<asrwt>0</asrwt>
<pdfrwt beam="1">  1        1 0.21586598E+00 0.16594051E+04</pdfrwt>
<pdfrwt beam="2">  1       -1 0.75480351E-01 0.16594051E+04</pdfrwt>
<totfact> 0.12875905E+01</totfact>
</mgrwt>
</event>
<event>
 6    1  0.1072514E-005  0.1236745E+04  0.7818608E-02  0.9081288E-01
          2   -1    0    0  501    0  0.00000000000E+00  0.00000000000E+00  0.13971836955E+04  0.13971836955E+04  0.00000000000E+00 0. -1.
         -2   -1    0    0    0  501 -0.00000000000E+00 -0.00000000000E+00 -0.27368251245E+03  0.27368251245E+03  0.00000000000E+00 0.  1.
         23    2    1    2    0    0 -0.52503909967E+03 -0.27323764588E+03  0.34100046962E+03  0.68972797414E+03  0.95490788675E+02 0.  0.
         11    1    3    3    0    0 -0.21770141681E+03 -0.10361807746E+03  0.86536777798E+02  0.25616250070E+03  0.00000000000E+00 0.  1.
        -11    1    3    3    0    0 -0.30733768286E+03 -0.16961956843E+03  0.25446369182E+03  0.43356547343E+03  0.00000000000E+00 0. -1.
         22    1    1    2    0    0  0.52503909967E+03  0.27323764588E+03  0.78250071339E+03  0.98113823377E+03  0.00000000000E+00 0. -1.
<mgrwt>
<rscale>  0 0.12367453E+04</rscale>
<asrwt>0</asrwt>
<pdfrwt beam="1">  1        2 0.21495133E+00 0.12367453E+04</pdfrwt>
<pdfrwt beam="2">  1       -2 0.42105003E-01 0.12367453E+04</pdfrwt>
<totfact> 0.76395849E+01</totfact>
</mgrwt>
</event>
<event>
 6    1  0.1072514E-005  0.2026504E+04  0.7818608E-02  0.8594328E-01
          1   -1    0    0  501    0  0.00000000000E+00  0.00000000000E+00  0.18242011872E+04  0.18242011872E+04  0.00000000000E+00 0. -1.
         -1   -1    0    0    0  501 -0.00000000000E+00 -0.00000000000E+00 -0.56281056971E+03  0.56281056971E+03  0.00000000000E+00 0.  1.
         23    2    1    2    0    0 -0.40121321818E+03 -0.17390943687E+03  0.17056739600E+04  0.17636304713E+04  0.99258465800E+02 0.  0.
         13    1    3    3    0    0 -0.12129852837E+03 -0.10183399376E+03  0.66071776397E+03  0.67943466125E+03  0.00000000000E+00 0.  1.
        -13    1    3    3    0    0 -0.27991468981E+03 -0.72075443108E+02  0.10449561960E+04  0.10841958101E+04  0.00000000000E+00 0. -1.
         22    1    1    2    0    0  0.40121321818E+03  0.17390943687E+03 -0.44428334253E+03  0.62338128551E+03  0.00000000000E+00 0.  1.
<mgrwt>
<rscale>  0 0.20265041E+04</rscale>
<asrwt>0</asrwt>
<pdfrwt beam="1">  1        1 0.28064633E+00 0.20265041E+04</pdfrwt>
<pdfrwt beam="2">  1       -1 0.86586242E-01 0.20265041E+04</pdfrwt>
<totfact> 0.47737206E+00</totfact>
</mgrwt>
</event>
<event>
 6    1  0.1072514E-005  0.1543197E+04  0.7818608E-02  0.8856225E-01
         -2   -1    0    0    0  501 -0.00000000000E+00  0.00000000000E+00  0.99366277590E+03  0.99366277590E+03  0.00000000000E+00 0.  1.
          2   -1    0    0  501    0  0.00000000000E+00 -0.00000000000E+00 -0.59916104135E+03  0.59916104135E+03  0.00000000000E+00 0. -1.
         23    2    1    2    0    0  0.28507821704E+03  0.67942071619E+03 -0.28656620632E+02  0.74315029586E+03  0.92569222275E+02 0.  0.
         13    1    3    3    0    0  0.64329103538E+02  0.25901679602E+03  0.69958581405E+01  0.26697729531E+03  0.00000000000E+00 0. -1.
        -13    1    3    3    0    0  0.22074911350E+03  0.42040392017E+03 -0.35652478772E+02  0.47617300054E+03  0.00000000000E+00 0.  1.
         22    1    1    2    0    0 -0.28507821704E+03 -0.67942071619E+03  0.42315835518E+03  0.84967352140E+03  0.00000000000E+00 0.  1.
<mgrwt>
<rscale>  0 0.15431967E+04</rscale>
<asrwt>0</asrwt>
<pdfrwt beam="1">  1        2 0.92178622E-01 0.15431967E+04</pdfrwt>
<pdfrwt beam="2">  1       -2 0.15287120E+00 0.15431967E+04</pdfrwt>
<totfact> 0.13619529E+01</totfact>
</mgrwt>
</event>
<event>
 6    1  0.1072514E-005  0.8264748E+03  0.7818608E-02  0.9522467E-01
         -1   -1    0    0    0  501 -0.00000000000E+00  0.00000000000E+00  0.88854660913E+02  0.88854660913E+02  0.00000000000E+00 0.  1.
          1   -1    0    0  501    0  0.00000000000E+00 -0.00000000000E+00 -0.19218477757E+04  0.19218477757E+04  0.00000000000E+00 0. -1.
         23    2    1    2    0    0 -0.33187815768E+03 -0.14367088818E+03 -0.13888721813E+04  0.14379652899E+04  0.89408072213E+02 0.  0.
         13    1    3    3    0    0 -0.31481557053E+03 -0.15374346146E+03 -0.12693785987E+04  0.13168401278E+04  0.00000000000E+00 0. -1.
        -13    1    3    3    0    0 -0.17062587147E+02  0.10072573275E+02 -0.11949358260E+03  0.12112516211E+03  0.00000000000E+00 0.  1.
         22    1    1    2    0    0  0.33187815768E+03  0.14367088818E+03 -0.44412093357E+03  0.57273714678E+03  0.00000000000E+00 0.  1.
<mgrwt>
<rscale>  0 0.82647476E+03</rscale>
<asrwt>0</asrwt>
<pdfrwt beam="1">  1        1 0.29566887E+00 0.82647476E+03</pdfrwt>
<pdfrwt beam="2">  1       -1 0.13669949E-01 0.82647476E+03</pdfrwt>
<totfact> 0.13151496E+02</totfact>
</mgrwt>
</event>
<event>
 6    1  0.1072514E-005  0.1536969E+04  0.7818608E-02  0.8860234E-01
          2   -1    0    0  501    0  0.00000000000E+00  0.00000000000E+00  0.10296886473E+04  0.10296886473E+04  0.00000000000E+00 0. -1.
         -2   -1    0    0    0  501 -0.00000000000E+00 -0.00000000000E+00 -0.57354110962E+03  0.57354110962E+03  0.00000000000E+00 0.  1.
         23    2    1    2    0    0  0.28861968222E+03  0.70223732537E+03  0.33272768955E+03  0.83402819623E+03  0.91960505678E+02 0.  0.
         13    1    3    3    0    0  0.21242083377E+03  0.46037100031E+03  0.18009024253E+03  0.53804884908E+03  0.00000000000E+00 0. -1.
        -13    1    3    3    0    0  0.76198848445E+02  0.24186632506E+03  0.15263744703E+03  0.29597934715E+03  0.00000000000E+00 0.  1.
         22    1    1    2    0    0 -0.28861968222E+03 -0.70223732537E+03  0.12341984817E+03  0.76920156073E+03  0.00000000000E+00 0.  1.
<mgrwt>
<rscale>  0 0.15369694E+04</rscale>
<asrwt>0</asrwt>
<pdfrwt beam="1">  1        2 0.15841364E+00 0.15369694E+04</pdfrwt>
<pdfrwt beam="2">  1       -2 0.88237094E-01 0.15369694E+04</pdfrwt>
<totfact> 0.25702303E+01</totfact>
</mgrwt>
</event>
<event>
 6    1  0.1072514E-005  0.1071016E+04  0.7818608E-02  0.9233912E-01
          2   -1    0    0  501    0  0.00000000000E+00  0.00000000000E+00  0.32198190249E+04  0.32198190249E+04  0.00000000000E+00 0. -1.
         -2   -1    0    0    0  501 -0.00000000000E+00 -0.00000000000E+00 -0.89063592362E+02  0.89063592362E+02  0.00000000000E+00 0.  1.
         23    2    1    2    0    0 -0.21037388577E+03  0.45118139035E+03  0.10020814653E+04  0.11227731329E+04  0.92900086406E+02 0.  0.
         11    1    3    3    0    0 -0.11901701736E+03  0.17729230758E+03  0.35631887563E+03  0.41540432578E+03  0.00000000000E+00 0.  1.
        -11    1    3    3    0    0 -0.91356868401E+02  0.27388908277E+03  0.64576258965E+03  0.70736880710E+03  0.00000000000E+00 0. -1.
         22    1    1    2    0    0  0.21037388577E+03 -0.45118139035E+03  0.21286739673E+04  0.21861094844E+04  0.00000000000E+00 0. -1.
<mgrwt>
<rscale>  0 0.10710157E+04</rscale>
<asrwt>0</asrwt>
<pdfrwt beam="1">  1        2 0.49535668E+00 0.10710157E+04</pdfrwt>
<pdfrwt beam="2">  1       -2 0.13702094E-01 0.10710157E+04</pdfrwt>
<totfact> 0.52538542E+01</totfact>
</mgrwt>
</event>
<event>
 6    1  0.1072514E-005  0.2152852E+04  0.7818608E-02  0.8538313E-01
          1   -1    0    0  501    0  0.00000000000E+00  0.00000000000E+00  0.56716452859E+03  0.56716452859E+03  0.00000000000E+00 0. -1.
         -1   -1    0    0    0  501 -0.00000000000E+00 -0.00000000000E+00 -0.20429564113E+04  0.20429564113E+04  0.00000000000E+00 0.  1.
         23    2    1    2    0    0 -0.94788302726E+03  0.12291014428E+02 -0.13521560161E+04  0.16541297632E+04  0.95844036044E+02 0.  0.
         11    1    3    3    0    0 -0.71711894389E+03  0.43238292951E+00 -0.94942235935E+03  0.11898161972E+04  0.00000000000E+00 0.  1.
        -11    1    3    3    0    0 -0.23076408337E+03  0.11858631498E+02 -0.40273365677E+03  0.46431356604E+03  0.00000000000E+00 0. -1.
         22    1    1    2    0    0  0.94788302726E+03 -0.12291014428E+02 -0.12363586661E+03  0.95599117670E+03  0.00000000000E+00 0. -1.
<mgrwt>
<rscale>  0 0.21528515E+04</rscale>
<asrwt>0</asrwt>
<pdfrwt beam="1">  1        1 0.87256081E-01 0.21528515E+04</pdfrwt>
<pdfrwt beam="2">  1       -1 0.31430099E+00 0.21528515E+04</pdfrwt>
<totfact> 0.90691193E-01</totfact>
</mgrwt>
</event>
<event>
 6    1  0.1072514E-005  0.3533674E+04  0.7818608E-02  0.8105856E-01
         -2   -1    0    0    0  501 -0.00000000000E+00  0.00000000000E+00  0.74468612682E+03  0.74468612682E+03  0.00000000000E+00 0.  1.
          2   -1    0    0  501    0  0.00000000000E+00 -0.00000000000E+00 -0.41919839671E+04  0.41919839671E+04  0.00000000000E+00 0. -1.
         23    2    1    2    0    0  0.13688342886E+04  0.96439509589E+03 -0.25072671407E+04  0.30164037252E+04  0.92399720280E+02 0.  0.
         13    1    3    3    0    0  0.61019760211E+03  0.47507515416E+03 -0.12064658255E+04  0.14330377887E+04  0.00000000000E+00 0. -1.
        -13    1    3    3    0    0  0.75863668645E+03  0.48931994173E+03 -0.13008013152E+04  0.15833659366E+04  0.00000000000E+00 0.  1.
         22    1    1    2    0    0 -0.13688342886E+04 -0.96439509589E+03 -0.94003069958E+03  0.19202663687E+04  0.00000000000E+00 0.  1.
<mgrwt>
<rscale>  0 0.35336736E+04</rscale>
<asrwt>0</asrwt>
<pdfrwt beam="1">  1        2 0.64492061E+00 0.35336736E+04</pdfrwt>
<pdfrwt beam="2">  1       -2 0.11456710E+00 0.35336736E+04</pdfrwt>
<totfact> 0.11482898E-01</totfact>
</mgrwt>
</event>
<event>
 6    1  0.1072514E-005  0.3473462E+04  0.7818608E-02  0.8120108E-01
          1   -1    0    0  501    0  0.00000000000E+00  0.00000000000E+00  0.21358923657E+04  0.21358923657E+04  0.00000000000E+00 0. -1.
         -1   -1    0    0    0  501 -0.00000000000E+00 -0.00000000000E+00 -0.14121659638E+04  0.14121659638E+04  0.00000000000E+00 0.  1.
         23    2    1    2    0    0 -0.12317860950E+04  0.96746298875E+03  0.11258718267E+04  0.19309613748E+04  0.87993421515E+02 0.  0.
         13    1    3    3    0    0 -0.70636091792E+03  0.60122219850E+03  0.69444356665E+03  0.11587345449E+04  0.00000000000E+00 0. -1.
        -13    1    3    3    0    0 -0.52542517710E+03  0.36624079024E+03  0.43142826003E+03  0.77222682984E+03  0.00000000000E+00 0.  1.
         22    1    1    2    0    0  0.12317860950E+04 -0.96746298875E+03 -0.40214542479E+03  0.16170969548E+04  0.00000000000E+00 0.  1.
<mgrwt>
<rscale>  0 0.34734620E+04</rscale>
<asrwt>0</asrwt>
<pdfrwt beam="1">  1        1 0.32859883E+00 0.34734620E+04</pdfrwt>
<pdfrwt beam="2">  1       -1 0.21725630E+00 0.34734620E+04</pdfrwt>
<totfact> 0.22618893E-01</totfact>
</mgrwt>
</event>
<event>
 6    1  0.1072514E-005  0.3946550E+04  0.7818608E-02  0.8015417E-01
          3   -1    0    0  501    0  0.00000000000E+00  0.00000000000E+00  0.20174915882E+04  0.20174915882E+04  0.00000000000E+00 0. -1.
         -3   -1    0    0    0  501 -0.00000000000E+00 -0.00000000000E+00 -0.19300276185E+04  0.19300276185E+04  0.00000000000E+00 0.  1.
         23    2    1    2    0    0 -0.21381189727E+03 -0.17990676038E+04  0.82387782867E+03  0.19918440952E+04  0.79425768097E+02 0.  0.
         13    1    3    3    0    0 -0.11774147829E+03 -0.10559660080E+04  0.52514623773E+03  0.11852028673E+04  0.00000000000E+00 0.  1.
        -13    1    3    3    0    0 -0.96070418981E+02 -0.74310159580E+03  0.29873159094E+03  0.80664122787E+03  0.00000000000E+00 0. -1.
         22    1    1    2    0    0  0.21381189727E+03  0.17990676038E+04 -0.73641385897E+03  0.19556751116E+04  0.00000000000E+00 0. -1.
<mgrwt>
<rscale>  0 0.39465501E+04</rscale>
<asrwt>0</asrwt>
<pdfrwt beam="1">  1        3 0.31038332E+00 0.39465501E+04</pdfrwt>
<pdfrwt beam="2">  1       -3 0.29692732E+00 0.39465501E+04</pdfrwt>
<totfact> 0.27340345E-03</totfact>
</mgrwt>
</event>
<event>
 6    1  0.1072514E-005  0.2300650E+04  0.7818608E-02  0.8477665E-01
         -2   -1    0    0    0  501 -0.00000000000E+00  0.00000000000E+00  0.37962925345E+03  0.37962925345E+03  0.00000000000E+00 0.  1.
          2   -1    0    0  501    0  0.00000000000E+00 -0.00000000000E+00 -0.34856311941E+04  0.34856311941E+04  0.00000000000E+00 0. -1.
         23    2    1    2    0    0  0.63875743836E+03 -0.42152568216E+03 -0.11673444316E+03  0.77958140765E+03  0.91789297528E+02 0.  0.
         13    1    3    3    0    0  0.33472673052E+03 -0.25317042661E+03 -0.26480756752E+02  0.42052167544E+03  0.00000000000E+00 0. -1.
        -13    1    3    3    0    0  0.30403070784E+03 -0.16835525556E+03 -0.90253686411E+02  0.35905973221E+03  0.00000000000E+00 0.  1.
         22    1    1    2    0    0 -0.63875743836E+03  0.42152568216E+03 -0.29892674974E+04  0.30856790399E+04  0.00000000000E+00 0. -1.
<mgrwt>
<rscale>  0 0.23006500E+04</rscale>
<asrwt>0</asrwt>
<pdfrwt beam="1">  1        2 0.53625094E+00 0.23006500E+04</pdfrwt>
<pdfrwt beam="2">  1       -2 0.58404501E-01 0.23006500E+04</pdfrwt>
<totfact> 0.20733206E+00</totfact>
</mgrwt>
</event>
<event>
 6    1  0.1072514E-005  0.2990775E+04  0.7818608E-02  0.8246370E-01
          1   -1    0    0  501    0  0.00000000000E+00  0.00000000000E+00  0.31403889165E+04  0.31403889165E+04  0.00000000000E+00 0. -1.
         -1   -1    0    0    0  501 -0.00000000000E+00 -0.00000000000E+00 -0.71207205004E+03  0.71207205004E+03  0.00000000000E+00 0.  1.
         23    2    1    2    0    0  0.57969143807E+02 -0.12654952753E+04  0.19545164653E+03  0.12852590259E+04  0.94078180554E+02 0.  0.
         11    1    3    3    0    0  0.79394915559E+02 -0.71637778676E+03  0.11360384032E+03  0.72966192069E+03  0.00000000000E+00 0. -1.
        -11    1    3    3    0    0 -0.21425771752E+02 -0.54911748859E+03  0.81847806216E+02  0.55559710524E+03  0.00000000000E+00 0.  1.
         22    1    1    2    0    0 -0.57969143807E+02  0.12654952753E+04  0.22328652199E+04  0.25672019406E+04  0.00000000000E+00 0. -1.
<mgrwt>
<rscale>  0 0.29907746E+04</rscale>
<asrwt>0</asrwt>
<pdfrwt beam="1">  1        1 0.48313675E+00 0.29907746E+04</pdfrwt>
<pdfrwt beam="2">  1       -1 0.10954955E+00 0.29907746E+04</pdfrwt>
<totfact> 0.30889910E-01</totfact>
</mgrwt>
</event>
<event>
 6    1  0.1072514E-005  0.4946972E+04  0.7818608E-02  0.7836740E-01
          1   -1    0    0  501    0  0.00000000000E+00  0.00000000000E+00  0.33877363915E+04  0.33877363915E+04  0.00000000000E+00 0. -1.
         -1   -1    0    0    0  501 -0.00000000000E+00 -0.00000000000E+00 -0.18059651312E+04  0.18059651312E+04  0.00000000000E+00 0.  1.
         23    2    1    2    0    0 -0.10230897975E+04  0.17104326493E+04 -0.74537737233E+03  0.21297313302E+04  0.88744184223E+02 0.  0.
         13    1    3    3    0    0 -0.64138028050E+03  0.11295156480E+04 -0.51789685348E+03  0.13983531078E+04  0.00000000000E+00 0. -1.
        -13    1    3    3    0    0 -0.38170951696E+03  0.58091700137E+03 -0.22748051885E+03  0.73137822245E+03  0.00000000000E+00 0.  1.
         22    1    1    2    0    0  0.10230897975E+04 -0.17104326493E+04  0.23271486327E+04  0.30639701924E+04  0.00000000000E+00 0. -1.
<mgrwt>
<rscale>  0 0.49469723E+04</rscale>
<asrwt>0</asrwt>
<pdfrwt beam="1">  1        1 0.52119021E+00 0.49469723E+04</pdfrwt>
<pdfrwt beam="2">  1       -1 0.27784079E+00 0.49469723E+04</pdfrwt>
<totfact> 0.10181970E-02</totfact>
</mgrwt>
</event>
<event>
 6    1  0.1072514E-005  0.3172221E+04  0.7818608E-02  0.8196192E-01
         -1   -1    0    0    0  501 -0.00000000000E+00  0.00000000000E+00  0.11864718666E+04  0.11864718666E+04  0.00000000000E+00 0.  1.
          1   -1    0    0  501    0  0.00000000000E+00 -0.00000000000E+00 -0.21203595860E+04  0.21203595860E+04  0.00000000000E+00 0. -1.
         23    2    1    2    0    0 -0.12976979333E+04  0.11970204887E+03  0.47219486836E+03  0.13896938075E+04  0.99661318309E+02 0.  0.
         13    1    3    3    0    0 -0.63950470303E+02  0.65868227365E+01  0.47752853339E+02  0.80083605611E+02  0.00000000000E+00 0.  1.
        -13    1    3    3    0    0 -0.12337474630E+04  0.11311522613E+03  0.42444201502E+03  0.13096102019E+04  0.00000000000E+00 0. -1.
         22    1    1    2    0    0  0.12976979333E+04 -0.11970204887E+03 -0.14060825878E+04  0.19171376451E+04  0.00000000000E+00 0.  1.
<mgrwt>
<rscale>  0 0.31722213E+04</rscale>
<asrwt>0</asrwt>
<pdfrwt beam="1">  1        1 0.32620916E+00 0.31722213E+04</pdfrwt>
<pdfrwt beam="2">  1       -1 0.18253414E+00 0.31722213E+04</pdfrwt>
<totfact> 0.41315977E-01</totfact>
</mgrwt>
</event>
<event>
 6    1  0.1072514E-005  0.1176272E+04  0.7818608E-02  0.9133883E-01
         -2   -1    0    0    0  501 -0.00000000000E+00  0.00000000000E+00  0.65731802588E+03  0.65731802588E+03  0.00000000000E+00 0. -1.
          2   -1    0    0  501    0  0.00000000000E+00 -0.00000000000E+00 -0.52623515551E+03  0.52623515551E+03  0.00000000000E+00 0.  1.
         23    2    1    2    0    0  0.39059464654E+03 -0.15662121272E+03  0.47412961449E+03  0.64062091045E+03  0.92205625576E+02 0.  0.
         11    1    3    3    0    0  0.47161530676E+01  0.32716126132E+01  0.31524910200E+02  0.32043181989E+02  0.00000000000E+00 0. -1.
        -11    1    3    3    0    0  0.38587849347E+03 -0.15989282533E+03  0.44260470429E+03  0.60857772846E+03  0.00000000000E+00 0.  1.
         22    1    1    2    0    0 -0.39059464654E+03  0.15662121272E+03 -0.34304674412E+03  0.54293227094E+03  0.00000000000E+00 0.  1.
<mgrwt>
<rscale>  0 0.11762718E+04</rscale>
<asrwt>0</asrwt>
<pdfrwt beam="1">  1        2 0.80959254E-01 0.11762718E+04</pdfrwt>
<pdfrwt beam="2">  1       -2 0.10112585E+00 0.11762718E+04</pdfrwt>
<totfact> 0.46111361E+01</totfact>
</mgrwt>
</event>
<event>
 6    1  0.1072514E-005  0.6116475E+04  0.7818608E-02  0.7676126E-01
         -2   -1    0    0    0  501 -0.00000000000E+00  0.00000000000E+00  0.31910902533E+04  0.31910902533E+04  0.00000000000E+00 0.  1.
          2   -1    0    0  501    0  0.00000000000E+00 -0.00000000000E+00 -0.29309155533E+04  0.29309155533E+04  0.00000000000E+00 0. -1.
         23    2    1    2    0    0 -0.24327617688E+04 -0.71773114722E+03 -0.15787311261E+04  0.29891089904E+04  0.94407441677E+02 0.  0.
         13    1    3    3    0    0 -0.12465648727E+04 -0.33226727757E+03 -0.76419577557E+03  0.14994401319E+04  0.00000000000E+00 0.  1.
        -13    1    3    3    0    0 -0.11861968960E+04 -0.38546386965E+03 -0.81453535050E+03  0.14896688586E+04  0.00000000000E+00 0. -1.
         22    1    1    2    0    0  0.24327617688E+04  0.71773114722E+03  0.18389058262E+04  0.31328968162E+04  0.00000000000E+00 0.  1.
<mgrwt>
<rscale>  0 0.61164748E+04</rscale>
<asrwt>0</asrwt>
<pdfrwt beam="1">  1        2 0.45091009E+00 0.61164748E+04</pdfrwt>
<pdfrwt beam="2">  1       -2 0.49093696E+00 0.61164748E+04</pdfrwt>
<totfact> 0.24359340E-03</totfact>
</mgrwt>
</event>
<event>
 6    1  0.1072514E-005  0.1382929E+04  0.7818608E-02  0.8966269E-01
          2   -1    0    0  501    0  0.00000000000E+00  0.00000000000E+00  0.28490514659E+04  0.28490514659E+04  0.00000000000E+00 0.  1.
         -2   -1    0    0    0  501 -0.00000000000E+00 -0.00000000000E+00 -0.16781838614E+03  0.16781838614E+03  0.00000000000E+00 0. -1.
         23    2    1    2    0    0  0.49658859793E+03  0.29294616697E+02  0.23847000451E+04  0.24377409797E+04  0.91259896738E+02 0.  0.
         11    1    3    3    0    0  0.35259854489E+03  0.23823391917E+02  0.14780675889E+04  0.15197292802E+04  0.00000000000E+00 0.  1.
        -11    1    3    3    0    0  0.14399005304E+03  0.54712247802E+01  0.90663245622E+03  0.91801169946E+03  0.00000000000E+00 0. -1.
         22    1    1    2    0    0 -0.49658859793E+03 -0.29294616697E+02  0.29653303467E+03  0.57912887237E+03  0.00000000000E+00 0. -1.
<mgrwt>
<rscale>  0 0.13829291E+04</rscale>
<asrwt>0</asrwt>
<pdfrwt beam="1">  1        2 0.43831557E+00 0.13829291E+04</pdfrwt>
<pdfrwt beam="2">  1       -2 0.25818215E-01 0.13829291E+04</pdfrwt>
<totfact> 0.28679278E+01</totfact>
</mgrwt>
</event>
<event>
 6    1  0.1072514E-005  0.2334994E+04  0.7818608E-02  0.8464250E-01
         -2   -1    0    0    0  501 -0.00000000000E+00  0.00000000000E+00  0.52680336370E+03  0.52680336370E+03  0.00000000000E+00 0.  1.
          2   -1    0    0  501    0  0.00000000000E+00 -0.00000000000E+00 -0.25873967652E+04  0.25873967652E+04  0.00000000000E+00 0. -1.
         23    2    1    2    0    0  0.10031028033E+04 -0.41377402490E+03 -0.46371098535E+03  0.11835376445E+04  0.91155362873E+02 0.  0.
         13    1    3    3    0    0  0.77845816028E+03 -0.35799599380E+03 -0.34861857058E+03  0.92503683529E+03  0.00000000000E+00 0. -1.
        -13    1    3    3    0    0  0.22464464305E+03 -0.55778031107E+02 -0.11509241477E+03  0.25850080918E+03  0.00000000000E+00 0.  1.
         22    1    1    2    0    0 -0.10031028033E+04  0.41377402490E+03 -0.15968824161E+04  0.19306624844E+04  0.00000000000E+00 0.  1.
<mgrwt>
<rscale>  0 0.23349941E+04</rscale>
<asrwt>0</asrwt>
<pdfrwt beam="1">  1        2 0.39806103E+00 0.23349941E+04</pdfrwt>
<pdfrwt beam="2">  1       -2 0.81046673E-01 0.23349941E+04</pdfrwt>
<totfact> 0.37566181E+00</totfact>
</mgrwt>
</event>
<event>
 6    1  0.1072514E-005  0.2632475E+04  0.7818608E-02  0.8357253E-01
          3   -1    0    0  501    0  0.00000000000E+00  0.00000000000E+00  0.16953240415E+04  0.16953240415E+04  0.00000000000E+00 0. -1.
         -3   -1    0    0    0  501 -0.00000000000E+00 -0.00000000000E+00 -0.10219172262E+04  0.10219172262E+04  0.00000000000E+00 0.  1.
         23    2    1    2    0    0 -0.82594904362E+03 -0.40487213303E+03 -0.63246180653E+03  0.11199291116E+04  0.90111106207E+02 0.  0.
         11    1    3    3    0    0 -0.27583687532E+03 -0.15988041175E+03 -0.26410141362E+03  0.41400155136E+03  0.00000000000E+00 0. -1.
        -11    1    3    3    0    0 -0.55011216830E+03 -0.24499172128E+03 -0.36836039291E+03  0.70592756021E+03  0.00000000000E+00 0.  1.
         22    1    1    2    0    0  0.82594904362E+03  0.40487213303E+03  0.13058686219E+04  0.15973121562E+04  0.00000000000E+00 0. -1.
<mgrwt>
<rscale>  0 0.26324748E+04</rscale>
<asrwt>0</asrwt>
<pdfrwt beam="1">  1        3 0.26081908E+00 0.26324748E+04</pdfrwt>
<pdfrwt beam="2">  1       -3 0.15721803E+00 0.26324748E+04</pdfrwt>
<totfact> 0.41938926E-02</totfact>
</mgrwt>
</event>
<event>
 6    1  0.1072514E-005  0.1168657E+04  0.7818608E-02  0.9140743E-01
         -1   -1    0    0    0  501 -0.00000000000E+00  0.00000000000E+00  0.16278789905E+03  0.16278789905E+03  0.00000000000E+00 0.  1.
          1   -1    0    0  501    0  0.00000000000E+00 -0.00000000000E+00 -0.20974501950E+04  0.20974501950E+04  0.00000000000E+00 0. -1.
         23    2    1    2    0    0  0.56778895214E+02 -0.57816836428E+03 -0.96287172137E+03  0.11280369541E+04  0.88560248932E+02 0.  0.
         13    1    3    3    0    0  0.67010379709E+02 -0.42113607977E+03 -0.75780882808E+03  0.86955172852E+03  0.00000000000E+00 0. -1.
        -13    1    3    3    0    0 -0.10231484495E+02 -0.15703228451E+03 -0.20506289330E+03  0.25848522562E+03  0.00000000000E+00 0.  1.
         22    1    1    2    0    0 -0.56778895214E+02  0.57816836428E+03 -0.97179057460E+03  0.11322011399E+04  0.00000000000E+00 0. -1.
<mgrwt>
<rscale>  0 0.11686565E+04</rscale>
<asrwt>0</asrwt>
<pdfrwt beam="1">  1        1 0.32268465E+00 0.11686565E+04</pdfrwt>
<pdfrwt beam="2">  1       -1 0.25044292E-01 0.11686565E+04</pdfrwt>
<totfact> 0.35545130E+01</totfact>
</mgrwt>
</event>
<event>
 6    1  0.1072514E-005  0.2676195E+04  0.7818608E-02  0.8342770E-01
          1   -1    0    0  501    0  0.00000000000E+00  0.00000000000E+00  0.24421343441E+04  0.24421343441E+04  0.00000000000E+00 0. -1.
         -1   -1    0    0    0  501 -0.00000000000E+00 -0.00000000000E+00 -0.73317217334E+03  0.73317217334E+03  0.00000000000E+00 0.  1.
         23    2    1    2    0    0 -0.95029670471E+03  0.59536204271E+03 -0.71865265715E+01  0.11252611179E+04  0.92957777423E+02 0.  0.
         13    1    3    3    0    0 -0.30510215328E+03  0.23449785205E+03 -0.26862316964E+02  0.38574363330E+03  0.00000000000E+00 0. -1.
        -13    1    3    3    0    0 -0.64519455143E+03  0.36086419066E+03  0.19675790393E+02  0.73951748460E+03  0.00000000000E+00 0.  1.
         22    1    1    2    0    0  0.95029670471E+03 -0.59536204271E+03  0.17161486974E+04  0.20500453996E+04  0.00000000000E+00 0.  1.
<mgrwt>
<rscale>  0 0.26761950E+04</rscale>
<asrwt>0</asrwt>
<pdfrwt beam="1">  1        1 0.37571297E+00 0.26761950E+04</pdfrwt>
<pdfrwt beam="2">  1       -1 0.11279572E+00 0.26761950E+04</pdfrwt>
<totfact> 0.93424403E-01</totfact>
</mgrwt>
</event>
<event>
 6    1  0.1072514E-005  0.1086476E+04  0.7818608E-02  0.9218474E-01
          2   -1    0    0  501    0  0.00000000000E+00  0.00000000000E+00  0.79877559439E+03  0.79877559439E+03  0.00000000000E+00 0.  1.
         -2   -1    0    0    0  501 -0.00000000000E+00 -0.00000000000E+00 -0.36945009491E+03  0.36945009491E+03  0.00000000000E+00 0. -1.
         23    2    1    2    0    0 -0.21532420052E+03  0.44827853838E+03 -0.79549147448E+01  0.50600796077E+03  0.93073177616E+02 0.  0.
         11    1    3    3    0    0 -0.92365519227E+02  0.19093797894E+03  0.42637646287E+02  0.21634849162E+03  0.00000000000E+00 0.  1.
        -11    1    3    3    0    0 -0.12295868129E+03  0.25734055944E+03 -0.50592561032E+02  0.28965946916E+03  0.00000000000E+00 0. -1.
         22    1    1    2    0    0  0.21532420052E+03 -0.44827853838E+03  0.43728041423E+03  0.66221772852E+03  0.00000000000E+00 0. -1.
<mgrwt>
<rscale>  0 0.10864764E+04</rscale>
<asrwt>0</asrwt>
<pdfrwt beam="1">  1        2 0.12288855E+00 0.10864764E+04</pdfrwt>
<pdfrwt beam="2">  1       -2 0.56838476E-01 0.10864764E+04</pdfrwt>
<totfact> 0.99579635E+01</totfact>
</mgrwt>
</event>
<event>
 6    1  0.1072514E-005  0.1931890E+04  0.7818608E-02  0.8639144E-01
         -2   -1    0    0    0  501 -0.00000000000E+00  0.00000000000E+00  0.58867380260E+03  0.58867380260E+03  0.00000000000E+00 0.  1.
          2   -1    0    0  501    0  0.00000000000E+00 -0.00000000000E+00 -0.15850029706E+04  0.15850029706E+04  0.00000000000E+00 0. -1.
         23    2    1    2    0    0  0.77933508606E+03  0.28722931453E+03  0.50473716742E+02  0.83739082514E+03  0.93871947124E+02 0.  0.
         11    1    3    3    0    0  0.25098592254E+03  0.10270153668E+03 -0.26496911362E+02  0.27247683436E+03  0.00000000000E+00 0.  1.
        -11    1    3    3    0    0  0.52834916352E+03  0.18452777785E+03  0.76970628104E+02  0.56491399078E+03  0.00000000000E+00 0. -1.
         22    1    1    2    0    0 -0.77933508606E+03 -0.28722931453E+03 -0.10468028847E+04  0.13362859481E+04  0.00000000000E+00 0. -1.
<mgrwt>
<rscale>  0 0.19318900E+04</rscale>
<asrwt>0</asrwt>
<pdfrwt beam="1">  1        2 0.24384660E+00 0.19318900E+04</pdfrwt>
<pdfrwt beam="2">  1       -2 0.90565203E-01 0.19318900E+04</pdfrwt>
<totfact> 0.11063807E+01</totfact>
</mgrwt>
</event>
<event>
 6    1  0.1072514E-005  0.2687636E+04  0.7818608E-02  0.8339028E-01
         -2   -1    0    0    0  501 -0.00000000000E+00  0.00000000000E+00  0.22578779208E+04  0.22578779208E+04  0.00000000000E+00 0.  1.
          2   -1    0    0  501    0  0.00000000000E+00 -0.00000000000E+00 -0.79979844485E+03  0.79979844485E+03  0.00000000000E+00 0. -1.
         23    2    1    2    0    0 -0.67729466812E+03  0.31921954055E+03 -0.53767956810E+03  0.92608462603E+03  0.88905759591E+02 0.  0.
         11    1    3    3    0    0 -0.22607018178E+03  0.13342403420E+03 -0.23150568802E+03  0.35000654791E+03  0.00000000000E+00 0. -1.
        -11    1    3    3    0    0 -0.45122448634E+03  0.18579550635E+03 -0.30617388007E+03  0.57607807812E+03  0.00000000000E+00 0.  1.
         22    1    1    2    0    0  0.67729466812E+03 -0.31921954055E+03  0.19957590441E+04  0.21315917396E+04  0.00000000000E+00 0.  1.
<mgrwt>
<rscale>  0 0.26876363E+04</rscale>
<asrwt>0</asrwt>
<pdfrwt beam="1">  1        2 0.12304592E+00 0.26876363E+04</pdfrwt>
<pdfrwt beam="2">  1       -2 0.34736583E+00 0.26876363E+04</pdfrwt>
<totfact> 0.48918952E-01</totfact>
</mgrwt>
</event>
<event>
 6    1  0.1072514E-005  0.1565813E+04  0.7818608E-02  0.8841830E-01
         -4   -1    0    0    0  501 -0.00000000000E+00  0.00000000000E+00  0.91168863600E+03  0.91168863600E+03  0.00000000000E+00 0.  1.
          4   -1    0    0  501    0  0.00000000000E+00 -0.00000000000E+00 -0.67231580523E+03  0.67231580523E+03  0.00000000000E+00 0. -1.
         23    2    1    2    0    0  0.60878427749E+03 -0.26950768811E+03 -0.29167700456E+03  0.73237857381E+03  0.89722962011E+02 0.  0.
         11    1    3    3    0    0  0.44041967192E+03 -0.23737364390E+03 -0.22189103851E+03  0.54731286044E+03  0.00000000000E+00 0.  1.
        -11    1    3    3    0    0  0.16836460557E+03 -0.32134044207E+02 -0.69785966057E+02  0.18506571337E+03  0.00000000000E+00 0. -1.
         22    1    1    2    0    0 -0.60878427749E+03  0.26950768811E+03  0.53104983533E+03  0.85162586743E+03  0.00000000000E+00 0.  1.
<mgrwt>
<rscale>  0 0.15658131E+04</rscale>
<asrwt>0</asrwt>
<pdfrwt beam="1">  1        4 0.10343320E+00 0.15658131E+04</pdfrwt>
<pdfrwt beam="2">  1       -4 0.14025979E+00 0.15658131E+04</pdfrwt>
<totfact> 0.52070943E-01</totfact>
</mgrwt>
</event>
<event>
 6    1  0.1072514E-005  0.1615763E+04  0.7818608E-02  0.8810922E-01
          2   -1    0    0  501    0  0.00000000000E+00  0.00000000000E+00  0.28832113282E+04  0.28832113282E+04  0.00000000000E+00 0. -1.
         -2   -1    0    0    0  501 -0.00000000000E+00 -0.00000000000E+00 -0.22637001660E+03  0.22637001660E+03  0.00000000000E+00 0.  1.
         23    2    1    2    0    0  0.80290840356E+03 -0.45624149360E+02  0.14204552517E+04  0.16346596667E+04  0.87610708165E+02 0.  0.
         13    1    3    3    0    0  0.50016347022E+03  0.11070789790E+02  0.91115438689E+03  0.10394654280E+04  0.00000000000E+00 0. -1.
        -13    1    3    3    0    0  0.30274493334E+03 -0.56694939150E+02  0.50930086483E+03  0.59519423864E+03  0.00000000000E+00 0.  1.
         22    1    1    2    0    0 -0.80290840356E+03  0.45624149360E+02  0.12363860598E+04  0.14749216781E+04  0.00000000000E+00 0. -1.
<mgrwt>
<rscale>  0 0.16157631E+04</rscale>
<asrwt>0</asrwt>
<pdfrwt beam="1">  1        2 0.44357095E+00 0.16157631E+04</pdfrwt>
<pdfrwt beam="2">  1       -2 0.34826158E-01 0.16157631E+04</pdfrwt>
<totfact> 0.15312983E+01</totfact>
</mgrwt>
</event>
<event>
 6    1  0.1072514E-005  0.2946141E+04  0.7818608E-02  0.8259280E-01
          2   -1    0    0  501    0  0.00000000000E+00  0.00000000000E+00  0.13045025650E+04  0.13045025650E+04  0.00000000000E+00 0. -1.
         -2   -1    0    0    0  501 -0.00000000000E+00 -0.00000000000E+00 -0.16634204717E+04  0.16634204717E+04  0.00000000000E+00 0.  1.
         23    2    1    2    0    0 -0.47107987825E+01 -0.65595294486E+03 -0.15066984090E+04  0.16459182943E+04  0.92792662690E+02 0.  0.
         11    1    3    3    0    0  0.54034627364E+01 -0.27353997617E+03 -0.74285833335E+03  0.79163869246E+03  0.00000000000E+00 0. -1.
        -11    1    3    3    0    0 -0.10114261519E+02 -0.38241296868E+03 -0.76384007566E+03  0.85427960182E+03  0.00000000000E+00 0.  1.
         22    1    1    2    0    0  0.47107987825E+01  0.65595294486E+03  0.11477805023E+04  0.13220047424E+04  0.00000000000E+00 0. -1.
<mgrwt>
<rscale>  0 0.29461407E+04</rscale>
<asrwt>0</asrwt>
<pdfrwt beam="1">  1        2 0.20069270E+00 0.29461407E+04</pdfrwt>
<pdfrwt beam="2">  1       -2 0.25591084E+00 0.29461407E+04</pdfrwt>
<totfact> 0.83505626E-01</totfact>
</mgrwt>
</event>
<event>
 6    1  0.1072514E-005  0.4674761E+04  0.7818608E-02  0.7880736E-01
         -1   -1    0    0    0  501 -0.00000000000E+00  0.00000000000E+00  0.19875008654E+04  0.19875008654E+04  0.00000000000E+00 0.  1.
          1   -1    0    0  501    0  0.00000000000E+00 -0.00000000000E+00 -0.27488526555E+04  0.27488526555E+04  0.00000000000E+00 0. -1.
         23    2    1    2    0    0 -0.22474952065E+04  0.63379741726E+03 -0.46073993765E+03  0.23819318604E+04  0.91565431982E+02 0.  0.
         11    1    3    3    0    0 -0.14131463893E+04  0.36732762505E+03 -0.25468766764E+03  0.14821532005E+04  0.00000000000E+00 0. -1.
        -11    1    3    3    0    0 -0.83434881716E+03  0.26646979221E+03 -0.20605227001E+03  0.89977865991E+03  0.00000000000E+00 0.  1.
         22    1    1    2    0    0  0.22474952065E+04 -0.63379741726E+03 -0.30061185240E+03  0.23544216604E+04  0.00000000000E+00 0.  1.
<mgrwt>
<rscale>  0 0.46747608E+04</rscale>
<asrwt>0</asrwt>
<pdfrwt beam="1">  1        1 0.42290041E+00 0.46747608E+04</pdfrwt>
<pdfrwt beam="2">  1       -1 0.30576937E+00 0.46747608E+04</pdfrwt>
<totfact> 0.20341572E-02</totfact>
</mgrwt>
</event>
<event>
 6    1  0.1072514E-005  0.1377384E+04  0.7818608E-02  0.8970354E-01
         -2   -1    0    0    0  501 -0.00000000000E+00  0.00000000000E+00  0.16407760901E+03  0.16407760901E+03  0.00000000000E+00 0.  1.
          2   -1    0    0  501    0  0.00000000000E+00 -0.00000000000E+00 -0.28906852617E+04  0.28906852617E+04  0.00000000000E+00 0. -1.
         23    2    1    2    0    0  0.50573132400E+03  0.45285724664E+03 -0.15861427818E+04  0.17275462420E+04  0.87881943068E+02 0.  0.
         11    1    3    3    0    0  0.27561344575E+03  0.22199611637E+03 -0.92573220051E+03  0.99107272903E+03  0.00000000000E+00 0.  1.
        -11    1    3    3    0    0  0.23011787825E+03  0.23086113027E+03 -0.66041058130E+03  0.73647351294E+03  0.00000000000E+00 0. -1.
         22    1    1    2    0    0 -0.50573132400E+03 -0.45285724664E+03 -0.11404648708E+04  0.13272166287E+04  0.00000000000E+00 0. -1.
<mgrwt>
<rscale>  0 0.13773841E+04</rscale>
<asrwt>0</asrwt>
<pdfrwt beam="1">  1        2 0.44472074E+00 0.13773841E+04</pdfrwt>
<pdfrwt beam="2">  1       -2 0.25242713E-01 0.13773841E+04</pdfrwt>
<totfact> 0.28205323E+01</totfact>
</mgrwt>
</event>
<event>
 6    1  0.1072514E-005  0.1481088E+04  0.7818608E-02  0.8897128E-01
          1   -1    0    0  501    0  0.00000000000E+00  0.00000000000E+00  0.37711912577E+03  0.37711912577E+03  0.00000000000E+00 0. -1.
         -1   -1    0    0    0  501 -0.00000000000E+00 -0.00000000000E+00 -0.14541961800E+04  0.14541961800E+04  0.00000000000E+00 0.  1.
         23    2    1    2    0    0 -0.36276781965E+03 -0.38091138685E+03 -0.11801062951E+04  0.12953031790E+04  0.92008054895E+02 0.  0.
         11    1    3    3    0    0 -0.12816398662E+02 -0.52258982902E+02 -0.12719522328E+03  0.13810824087E+03  0.00000000000E+00 0. -1.
        -11    1    3    3    0    0 -0.34995142099E+03 -0.32865240395E+03 -0.10529110718E+04  0.11571949382E+04  0.00000000000E+00 0.  1.
         22    1    1    2    0    0  0.36276781965E+03  0.38091138685E+03  0.10302924086E+03  0.53601212680E+03  0.00000000000E+00 0. -1.
<mgrwt>
<rscale>  0 0.14810877E+04</rscale>
<asrwt>0</asrwt>
<pdfrwt beam="1">  1        1 0.58018326E-01 0.14810877E+04</pdfrwt>
<pdfrwt beam="2">  1       -1 0.22372249E+00 0.14810877E+04</pdfrwt>
<totfact> 0.65334967E+00</totfact>
</mgrwt>
</event>
<event>
 6    1  0.1072514E-005  0.7043109E+03  0.7818608E-02  0.9709888E-01
         -1   -1    0    0    0  501 -0.00000000000E+00  0.00000000000E+00  0.47100346836E+03  0.47100346836E+03  0.00000000000E+00 0.  1.
          1   -1    0    0  501    0  0.00000000000E+00 -0.00000000000E+00 -0.26329629637E+03  0.26329629637E+03  0.00000000000E+00 0. -1.
         23    2    1    2    0    0  0.58139002057E+02 -0.15447333700E+03 -0.21170533431E+03  0.28357922400E+03  0.91410460583E+02 0.  0.
         11    1    3    3    0    0  0.14334532284E+02 -0.75959477605E+02 -0.16512375294E+03  0.18232162472E+03  0.00000000000E+00 0. -1.
        -11    1    3    3    0    0  0.43804469772E+02 -0.78513859394E+02 -0.46581581363E+02  0.10125759928E+03  0.00000000000E+00 0.  1.
         22    1    1    2    0    0 -0.58139002057E+02  0.15447333700E+03  0.41941250630E+03  0.45072054074E+03  0.00000000000E+00 0.  1.
<mgrwt>
<rscale>  0 0.70431092E+03</rscale>
<asrwt>0</asrwt>
<pdfrwt beam="1">  1        1 0.40507123E-01 0.70431092E+03</pdfrwt>
<pdfrwt beam="2">  1       -1 0.72462072E-01 0.70431092E+03</pdfrwt>
<totfact> 0.20260703E+02</totfact>
</mgrwt>
</event>
<event>
 6    1  0.1072514E-005  0.6210340E+03  0.7818608E-02  0.9862703E-01
         -1   -1    0    0    0  501 -0.00000000000E+00  0.00000000000E+00  0.45712880870E+03  0.45712880870E+03  0.00000000000E+00 0.  1.
          1   -1    0    0  501    0  0.00000000000E+00 -0.00000000000E+00 -0.21092703060E+03  0.21092703060E+03  0.00000000000E+00 0. -1.
         23    2    1    2    0    0  0.17060617895E+03  0.63394975591E+02  0.38762186330E+03  0.43756715905E+03  0.89938415282E+02 0.  0.
         11    1    3    3    0    0  0.49300153594E+02  0.64229030391E+02  0.13719887781E+03  0.15930915090E+03  0.00000000000E+00 0. -1.
        -11    1    3    3    0    0  0.12130602535E+03 -0.83405479907E+00  0.25042298549E+03  0.27825800815E+03  0.00000000000E+00 0.  1.
         22    1    1    2    0    0 -0.17060617895E+03 -0.63394975591E+02 -0.14142008521E+03  0.23048868025E+03  0.00000000000E+00 0. -1.
<mgrwt>
<rscale>  0 0.62103405E+03</rscale>
<asrwt>0</asrwt>
<pdfrwt beam="1">  1        1 0.32450313E-01 0.62103405E+03</pdfrwt>
<pdfrwt beam="2">  1       -1 0.70327509E-01 0.62103405E+03</pdfrwt>
<totfact> 0.28783885E+02</totfact>
</mgrwt>
</event>
<event>
 6    1  0.1072514E-005  0.1659029E+04  0.7818608E-02  0.8785083E-01
          1   -1    0    0  501    0  0.00000000000E+00  0.00000000000E+00  0.31559706068E+04  0.31559706068E+04  0.00000000000E+00 0. -1.
         -1   -1    0    0    0  501 -0.00000000000E+00 -0.00000000000E+00 -0.21802944321E+03  0.21802944321E+03  0.00000000000E+00 0.  1.
         23    2    1    2    0    0 -0.45749563752E+03 -0.47156342785E+03  0.45165603392E+03  0.80236864741E+03  0.90155135914E+02 0.  0.
         11    1    3    3    0    0 -0.43600798613E+03 -0.43389064144E+03  0.44328299990E+03  0.75819777809E+03  0.00000000000E+00 0. -1.
        -11    1    3    3    0    0 -0.21487651390E+02 -0.37672786405E+02  0.83730340293E+01  0.44170869322E+02  0.00000000000E+00 0.  1.
         22    1    1    2    0    0  0.45749563752E+03  0.47156342785E+03  0.24862851296E+04  0.25716314026E+04  0.00000000000E+00 0. -1.
<mgrwt>
<rscale>  0 0.16590293E+04</rscale>
<asrwt>0</asrwt>
<pdfrwt beam="1">  1        1 0.48553390E+00 0.16590293E+04</pdfrwt>
<pdfrwt beam="2">  1       -1 0.33542994E-01 0.16590293E+04</pdfrwt>
<totfact> 0.36869641E+00</totfact>
</mgrwt>
</event>
<event>
 6    1  0.1072514E-005  0.1524261E+04  0.7818608E-02  0.8868478E-01
          2   -1    0    0  501    0  0.00000000000E+00  0.00000000000E+00  0.48618740467E+03  0.48618740467E+03  0.00000000000E+00 0. -1.
         -2   -1    0    0    0  501 -0.00000000000E+00 -0.00000000000E+00 -0.11946889583E+04  0.11946889583E+04  0.00000000000E+00 0.  1.
         23    2    1    2    0    0 -0.46559121355E+03 -0.12237895285E+03  0.29213504112E+03  0.57045960293E+03  0.91266040168E+02 0.  0.
         11    1    3    3    0    0 -0.25302593787E+03 -0.19575803925E+02  0.15645648689E+03  0.29813414703E+03  0.00000000000E+00 0.  1.
        -11    1    3    3    0    0 -0.21256527568E+03 -0.10280314892E+03  0.13567855423E+03  0.27232545590E+03  0.00000000000E+00 0. -1.
         22    1    1    2    0    0  0.46559121355E+03  0.12237895285E+03 -0.10006365948E+04  0.11104167601E+04  0.00000000000E+00 0.  1.
<mgrwt>
<rscale>  0 0.15242608E+04</rscale>
<asrwt>0</asrwt>
<pdfrwt beam="1">  1        2 0.74798063E-01 0.15242608E+04</pdfrwt>
<pdfrwt beam="2">  1       -2 0.18379830E+00 0.15242608E+04</pdfrwt>
<totfact> 0.10464635E+01</totfact>
</mgrwt>
</event>
<event>
 6    1  0.1072514E-005  0.2124784E+04  0.7818608E-02  0.8550404E-01
          2   -1    0    0  501    0  0.00000000000E+00  0.00000000000E+00  0.42461202056E+04  0.42461202056E+04  0.00000000000E+00 0. -1.
         -2   -1    0    0    0  501 -0.00000000000E+00 -0.00000000000E+00 -0.26581368577E+03  0.26581368577E+03  0.00000000000E+00 0.  1.
         23    2    1    2    0    0  0.24960592090E+03 -0.91192688248E+03  0.30139449610E+04  0.31599840339E+04  0.87869858133E+02 0.  0.
         11    1    3    3    0    0  0.64289674722E+02 -0.29354722798E+03  0.83530688563E+03  0.88771658231E+03  0.00000000000E+00 0.  1.
        -11    1    3    3    0    0  0.18531624617E+03 -0.61837965450E+03  0.21786380753E+04  0.22722674516E+04  0.00000000000E+00 0. -1.
         22    1    1    2    0    0 -0.24960592090E+03  0.91192688248E+03  0.96636155890E+03  0.13519498575E+04  0.00000000000E+00 0. -1.
<mgrwt>
<rscale>  0 0.21247841E+04</rscale>
<asrwt>0</asrwt>
<pdfrwt beam="1">  1        2 0.65324921E+00 0.21247841E+04</pdfrwt>
<pdfrwt beam="2">  1       -2 0.40894416E-01 0.21247841E+04</pdfrwt>
<totfact> 0.11154099E+00</totfact>
</mgrwt>
</event>
<event>
 6    1  0.1072514E-005  0.2311648E+04  0.7818608E-02  0.8473343E-01
         -2   -1    0    0    0  501 -0.00000000000E+00  0.00000000000E+00  0.75013372819E+03  0.75013372819E+03  0.00000000000E+00 0.  1.
          2   -1    0    0  501    0  0.00000000000E+00 -0.00000000000E+00 -0.17809210419E+04  0.17809210419E+04  0.00000000000E+00 0. -1.
         23    2    1    2    0    0 -0.42028413193E+02  0.10312101590E+04 -0.10817041485E+04  0.14977332791E+04  0.89220686102E+02 0.  0.
         13    1    3    3    0    0  0.90292310829E+01  0.26191489050E+03 -0.32429199639E+03  0.41694872083E+03  0.00000000000E+00 0.  1.
        -13    1    3    3    0    0 -0.51057644275E+02  0.76929526853E+03 -0.75741215210E+03  0.10807845583E+04  0.00000000000E+00 0. -1.
         22    1    1    2    0    0  0.42028413193E+02 -0.10312101590E+04  0.50916834824E+02  0.10333214910E+04  0.00000000000E+00 0.  1.
<mgrwt>
<rscale>  0 0.23116478E+04</rscale>
<asrwt>0</asrwt>
<pdfrwt beam="1">  1        2 0.27398785E+00 0.23116478E+04</pdfrwt>
<pdfrwt beam="2">  1       -2 0.11540519E+00 0.23116478E+04</pdfrwt>
<totfact> 0.46821366E+00</totfact>
</mgrwt>
</event>
<event>
 6    1  0.1072514E-005  0.6159088E+04  0.7818608E-02  0.7670984E-01
         -1   -1    0    0    0  501 -0.00000000000E+00  0.00000000000E+00  0.39070528034E+04  0.39070528034E+04  0.00000000000E+00 0.  1.
          1   -1    0    0  501    0  0.00000000000E+00 -0.00000000000E+00 -0.24273006037E+04  0.24273006037E+04  0.00000000000E+00 0. -1.
         23    2    1    2    0    0 -0.22217980032E+04 -0.83996048132E+03 -0.12746788709E+04  0.26972102287E+04  0.90646656492E+02 0.  0.
         13    1    3    3    0    0 -0.82549429334E+03 -0.26642532142E+03 -0.47535121126E+03  0.98913197010E+03  0.00000000000E+00 0. -1.
        -13    1    3    3    0    0 -0.13963037099E+04 -0.57353515991E+03 -0.79932765966E+03  0.17080782586E+04  0.00000000000E+00 0.  1.
         22    1    1    2    0    0  0.22217980032E+04  0.83996048132E+03  0.27544310707E+04  0.36371431784E+04  0.00000000000E+00 0.  1.
<mgrwt>
<rscale>  0 0.61590881E+04</rscale>
<asrwt>0</asrwt>
<pdfrwt beam="1">  1        1 0.37343086E+00 0.61590881E+04</pdfrwt>
<pdfrwt beam="2">  1       -1 0.60108504E+00 0.61590881E+04</pdfrwt>
<totfact> 0.44825298E-04</totfact>
</mgrwt>
</event>
<event>
 6    1  0.1072514E-005  0.2139403E+04  0.7818608E-02  0.8544082E-01
          2   -1    0    0  501    0  0.00000000000E+00  0.00000000000E+00  0.14867483905E+04  0.14867483905E+04  0.00000000000E+00 0. -1.
         -2   -1    0    0    0  501 -0.00000000000E+00 -0.00000000000E+00 -0.76964013983E+03  0.76964013983E+03  0.00000000000E+00 0.  1.
         23    2    1    2    0    0  0.21191454892E+03  0.27321905319E+03 -0.70625166124E+03  0.79163262374E+03  0.91292797589E+02 0.  0.
         13    1    3    3    0    0  0.28724042187E+02  0.57991528514E+02 -0.69454530082E+02  0.94931658196E+02  0.00000000000E+00 0.  1.
        -13    1    3    3    0    0  0.18319050673E+03  0.21522752467E+03 -0.63679713116E+03  0.69670096554E+03  0.00000000000E+00 0. -1.
         22    1    1    2    0    0 -0.21191454892E+03 -0.27321905319E+03  0.14233599119E+04  0.14647559066E+04  0.00000000000E+00 0. -1.
<mgrwt>
<rscale>  0 0.21394029E+04</rscale>
<asrwt>0</asrwt>
<pdfrwt beam="1">  1        2 0.22873052E+00 0.21394029E+04</pdfrwt>
<pdfrwt beam="2">  1       -2 0.11840618E+00 0.21394029E+04</pdfrwt>
<totfact> 0.65133118E+00</totfact>
</mgrwt>
</event>
<event>
 6    1  0.1072514E-005  0.2596120E+04  0.7818608E-02  0.8369520E-01
          2   -1    0    0  501    0  0.00000000000E+00  0.00000000000E+00  0.17960217936E+04  0.17960217936E+04  0.00000000000E+00 0.  1.
         -2   -1    0    0    0  501 -0.00000000000E+00 -0.00000000000E+00 -0.93816219308E+03  0.93816219308E+03  0.00000000000E+00 0. -1.
         23    2    1    2    0    0 -0.12883067197E+04  0.14417940076E+03  0.40775310646E+03  0.13619166077E+04  0.89623361066E+02 0.  0.
         13    1    3    3    0    0 -0.89859158462E+03  0.67550513864E+02  0.25659546518E+03  0.93694777903E+03  0.00000000000E+00 0.  1.
        -13    1    3    3    0    0 -0.38971513504E+03  0.76628886897E+02  0.15115764128E+03  0.42496882863E+03  0.00000000000E+00 0. -1.
         22    1    1    2    0    0  0.12883067197E+04 -0.14417940076E+03  0.45010649407E+03  0.13722673790E+04  0.00000000000E+00 0.  1.
<mgrwt>
<rscale>  0 0.25961200E+04</rscale>
<asrwt>0</asrwt>
<pdfrwt beam="1">  1        2 0.27631105E+00 0.25961200E+04</pdfrwt>
<pdfrwt beam="2">  1       -2 0.14433265E+00 0.25961200E+04</pdfrwt>
<totfact> 0.25456037E+00</totfact>
</mgrwt>
</event>
<event>
 6    1  0.1072514E-005  0.1404834E+04  0.7818608E-02  0.8950327E-01
          2   -1    0    0  501    0  0.00000000000E+00  0.00000000000E+00  0.45048615526E+03  0.45048615526E+03  0.00000000000E+00 0. -1.
         -2   -1    0    0    0  501 -0.00000000000E+00 -0.00000000000E+00 -0.10952380760E+04  0.10952380760E+04  0.00000000000E+00 0.  1.
         23    2    1    2    0    0 -0.59451339390E+02 -0.37369460486E+03  0.32345363068E+03  0.50620313516E+03  0.91854468537E+02 0.  0.
         11    1    3    3    0    0 -0.26262445481E+02 -0.39750008514E+02  0.74184695683E+02  0.88165459751E+02  0.00000000000E+00 0. -1.
        -11    1    3    3    0    0 -0.33188893909E+02 -0.33394459634E+03  0.24926893499E+03  0.41803767541E+03  0.00000000000E+00 0.  1.
         22    1    1    2    0    0  0.59451339390E+02  0.37369460486E+03 -0.96820555137E+03  0.10395210961E+04  0.00000000000E+00 0. -1.
<mgrwt>
<rscale>  0 0.14048339E+04</rscale>
<asrwt>0</asrwt>
<pdfrwt beam="1">  1        2 0.69305562E-01 0.14048339E+04</pdfrwt>
<pdfrwt beam="2">  1       -2 0.16849817E+00 0.14048339E+04</pdfrwt>
<totfact> 0.14747876E+01</totfact>
</mgrwt>
</event>
<event>
 6    1  0.1072514E-005  0.2587455E+04  0.7818608E-02  0.8372475E-01
          2   -1    0    0  501    0  0.00000000000E+00  0.00000000000E+00  0.34642463032E+04  0.34642463032E+04  0.00000000000E+00 0. -1.
         -2   -1    0    0    0  501 -0.00000000000E+00 -0.00000000000E+00 -0.48314423399E+03  0.48314423399E+03  0.00000000000E+00 0.  1.
         23    2    1    2    0    0  0.31441886471E+03 -0.12492171366E+04  0.13388896803E+04  0.18602239873E+04  0.91678950028E+02 0.  0.
         11    1    3    3    0    0  0.12807084461E+03 -0.69575301312E+03  0.73234939317E+03  0.10182386902E+04  0.00000000000E+00 0.  1.
        -11    1    3    3    0    0  0.18634802010E+03 -0.55346412348E+03  0.60654028714E+03  0.84198529707E+03  0.00000000000E+00 0. -1.
         22    1    1    2    0    0 -0.31441886471E+03  0.12492171366E+04  0.16422123889E+04  0.20871665499E+04  0.00000000000E+00 0.  1.
<mgrwt>
<rscale>  0 0.25874548E+04</rscale>
<asrwt>0</asrwt>
<pdfrwt beam="1">  1        2 0.53296095E+00 0.25874548E+04</pdfrwt>
<pdfrwt beam="2">  1       -2 0.74329884E-01 0.25874548E+04</pdfrwt>
<totfact> 0.12427762E+00</totfact>
</mgrwt>
</event>
<event>
 6    1  0.1072514E-005  0.4625110E+04  0.7818608E-02  0.7889092E-01
         -2   -1    0    0    0  501 -0.00000000000E+00  0.00000000000E+00  0.14568469508E+04  0.14568469508E+04  0.00000000000E+00 0.  1.
          2   -1    0    0  501    0  0.00000000000E+00 -0.00000000000E+00 -0.36708805227E+04  0.36708805227E+04  0.00000000000E+00 0. -1.
         23    2    1    2    0    0  0.61811980880E+03  0.41762517787E+03 -0.35332127350E+04  0.36122352922E+04  0.90380796103E+02 0.  0.
         11    1    3    3    0    0  0.42602497392E+03  0.28260720856E+03 -0.22109216110E+04  0.22692594569E+04  0.00000000000E+00 0.  1.
        -11    1    3    3    0    0  0.19209483489E+03  0.13501796931E+03 -0.13222911240E+04  0.13429758354E+04  0.00000000000E+00 0. -1.
         22    1    1    2    0    0 -0.61811980880E+03 -0.41762517787E+03  0.13191791631E+04  0.15154921813E+04  0.00000000000E+00 0.  1.
<mgrwt>
<rscale>  0 0.46251102E+04</rscale>
<asrwt>0</asrwt>
<pdfrwt beam="1">  1        2 0.56475085E+00 0.46251102E+04</pdfrwt>
<pdfrwt beam="2">  1       -2 0.22413030E+00 0.46251102E+04</pdfrwt>
<totfact> 0.42698627E-02</totfact>
</mgrwt>
</event>
<event>
 6    1  0.1072514E-005  0.1571453E+04  0.7818608E-02  0.8838280E-01
         -1   -1    0    0    0  501 -0.00000000000E+00  0.00000000000E+00  0.76837288341E+03  0.76837288341E+03  0.00000000000E+00 0.  1.
          1   -1    0    0  501    0  0.00000000000E+00 -0.00000000000E+00 -0.80347235811E+03  0.80347235811E+03  0.00000000000E+00 0. -1.
         23    2    1    2    0    0  0.16329799183E+03  0.26433378625E+03  0.70155380178E+03  0.77234750266E+03  0.88342194830E+02 0.  0.
         11    1    3    3    0    0  0.56996677406E+02  0.82531142020E+02  0.33399597919E+03  0.34873102064E+03  0.00000000000E+00 0.  1.
        -11    1    3    3    0    0  0.10630131442E+03  0.18180264423E+03  0.36755782259E+03  0.42361648202E+03  0.00000000000E+00 0. -1.
         22    1    1    2    0    0 -0.16329799183E+03 -0.26433378625E+03 -0.73665327648E+03  0.79949773886E+03  0.00000000000E+00 0. -1.
<mgrwt>
<rscale>  0 0.15714533E+04</rscale>
<asrwt>0</asrwt>
<pdfrwt beam="1">  1        1 0.12361113E+00 0.15714533E+04</pdfrwt>
<pdfrwt beam="2">  1       -1 0.11821121E+00 0.15714533E+04</pdfrwt>
<totfact> 0.13565793E+01</totfact>
</mgrwt>
</event>
<event>
 6    1  0.1072514E-005  0.1965951E+04  0.7818608E-02  0.8622707E-01
          1   -1    0    0  501    0  0.00000000000E+00  0.00000000000E+00  0.21566779334E+04  0.21566779334E+04  0.00000000000E+00 0. -1.
         -1   -1    0    0    0  501 -0.00000000000E+00 -0.00000000000E+00 -0.44802291515E+03  0.44802291515E+03  0.00000000000E+00 0.  1.
         23    2    1    2    0    0 -0.29276206647E+03 -0.56984935848E+02  0.20942404355E+04  0.21172246702E+04  0.88545986809E+02 0.  0.
         13    1    3    3    0    0 -0.14292483818E+03 -0.63310796790E+02  0.88233721120E+03  0.89607740772E+03  0.00000000000E+00 0. -1.
        -13    1    3    3    0    0 -0.14983722829E+03  0.63258609419E+01  0.12119032243E+04  0.12211472625E+04  0.00000000000E+00 0.  1.
         22    1    1    2    0    0  0.29276206647E+03  0.56984935848E+02 -0.38558541726E+03  0.48747617837E+03  0.00000000000E+00 0.  1.
<mgrwt>
<rscale>  0 0.19659513E+04</rscale>
<asrwt>0</asrwt>
<pdfrwt beam="1">  1        1 0.33179660E+00 0.19659513E+04</pdfrwt>
<pdfrwt beam="2">  1       -1 0.68926603E-01 0.19659513E+04</pdfrwt>
<totfact> 0.46207302E+00</totfact>
</mgrwt>
</event>
<event>
 6    1  0.1072514E-005  0.5357745E+04  0.7818608E-02  0.7775573E-01
          2   -1    0    0  501    0  0.00000000000E+00  0.00000000000E+00  0.49076979283E+04  0.49076979283E+04  0.00000000000E+00 0.  1.
         -2   -1    0    0    0  501 -0.00000000000E+00 -0.00000000000E+00 -0.14622653595E+04  0.14622653595E+04  0.00000000000E+00 0. -1.
         23    2    1    2    0    0 -0.11425555617E+04 -0.21298768276E+04  0.30945581573E+04  0.39276444378E+04  0.91061128216E+02 0.  0.
         11    1    3    3    0    0 -0.74491149561E+03 -0.14662814542E+04  0.20697203209E+04  0.26435991840E+04  0.00000000000E+00 0. -1.
        -11    1    3    3    0    0 -0.39764406614E+03 -0.66359537335E+03  0.10248378364E+04  0.12840452538E+04  0.00000000000E+00 0.  1.
         22    1    1    2    0    0  0.11425555617E+04  0.21298768276E+04  0.35087441146E+03  0.24423188500E+04  0.00000000000E+00 0. -1.
<mgrwt>
<rscale>  0 0.53577446E+04</rscale>
<asrwt>0</asrwt>
<pdfrwt beam="1">  1        2 0.75503044E+00 0.53577446E+04</pdfrwt>
<pdfrwt beam="2">  1       -2 0.22496390E+00 0.53577446E+04</pdfrwt>
<totfact> 0.28531147E-03</totfact>
</mgrwt>
</event>
<event>
 6    1  0.1072514E-005  0.2528333E+04  0.7818608E-02  0.8392961E-01
          2   -1    0    0  501    0  0.00000000000E+00  0.00000000000E+00  0.17359273223E+04  0.17359273223E+04  0.00000000000E+00 0. -1.
         -2   -1    0    0    0  501 -0.00000000000E+00 -0.00000000000E+00 -0.92061261363E+03  0.92061261363E+03  0.00000000000E+00 0.  1.
         23    2    1    2    0    0  0.12270167775E+03 -0.73671253985E+03 -0.65990714208E+03  0.10030343941E+04  0.11313483727E+03 0.  0.
         11    1    3    3    0    0  0.10913528643E+03 -0.43239607012E+03 -0.44678429441E+03  0.63126308140E+03  0.00000000000E+00 0.  1.
        -11    1    3    3    0    0  0.13566391322E+02 -0.30431646973E+03 -0.21312284767E+03  0.37177131267E+03  0.00000000000E+00 0. -1.
         22    1    1    2    0    0 -0.12270167775E+03  0.73671253985E+03  0.14752218508E+04  0.16535055419E+04  0.00000000000E+00 0. -1.
<mgrwt>
<rscale>  0 0.25283327E+04</rscale>
<asrwt>0</asrwt>
<pdfrwt beam="1">  1        2 0.26706574E+00 0.25283327E+04</pdfrwt>
<pdfrwt beam="2">  1       -2 0.14163271E+00 0.25283327E+04</pdfrwt>
<totfact> 0.29044889E+00</totfact>
</mgrwt>
</event>
<event>
 6    1  0.1072514E-005  0.8071489E+03  0.7818608E-02  0.9549727E-01
          2   -1    0    0  501    0  0.00000000000E+00  0.00000000000E+00  0.19347518630E+04  0.19347518630E+04  0.00000000000E+00 0. -1.
         -2   -1    0    0    0  501 -0.00000000000E+00 -0.00000000000E+00 -0.84182541453E+02  0.84182541453E+02  0.00000000000E+00 0.  1.
         23    2    1    2    0    0  0.10422934597E+03 -0.38262616624E+03  0.83502455148E+03  0.92870611659E+03  0.89232896180E+02 0.  0.
         11    1    3    3    0    0  0.47858989268E+02 -0.21903363076E+03  0.37115751423E+03  0.43361747500E+03  0.00000000000E+00 0. -1.
        -11    1    3    3    0    0  0.56370356701E+02 -0.16359253547E+03  0.46386703725E+03  0.49508864159E+03  0.00000000000E+00 0.  1.
         22    1    1    2    0    0 -0.10422934597E+03  0.38262616624E+03  0.10155447701E+04  0.10902282878E+04  0.00000000000E+00 0. -1.
<mgrwt>
<rscale>  0 0.80714888E+03</rscale>
<asrwt>0</asrwt>
<pdfrwt beam="1">  1        2 0.29765410E+00 0.80714888E+03</pdfrwt>
<pdfrwt beam="2">  1       -2 0.12951162E-01 0.80714888E+03</pdfrwt>
<totfact> 0.33144699E+02</totfact>
</mgrwt>
</event>
<event>
 6    1  0.1072514E-005  0.1115153E+04  0.7818608E-02  0.9190548E-01
          2   -1    0    0  501    0  0.00000000000E+00  0.00000000000E+00  0.43019798210E+03  0.43019798210E+03  0.00000000000E+00 0.  1.
         -2   -1    0    0    0  501 -0.00000000000E+00 -0.00000000000E+00 -0.72267042689E+03  0.72267042689E+03  0.00000000000E+00 0. -1.
         23    2    1    2    0    0 -0.41781393414E+03  0.35011850265E+03 -0.46066604401E+02  0.55464830932E+03  0.91439409078E+02 0.  0.
         13    1    3    3    0    0 -0.22180430948E+03  0.16944667032E+03 -0.67642911967E+02  0.28720182682E+03  0.00000000000E+00 0. -1.
        -13    1    3    3    0    0 -0.19600962466E+03  0.18067183233E+03  0.21576307566E+02  0.26744648250E+03  0.00000000000E+00 0.  1.
         22    1    1    2    0    0  0.41781393414E+03 -0.35011850265E+03 -0.24640584039E+03  0.59822009966E+03  0.00000000000E+00 0. -1.
<mgrwt>
<rscale>  0 0.11151527E+04</rscale>
<asrwt>0</asrwt>
<pdfrwt beam="1">  1        2 0.66184305E-01 0.11151527E+04</pdfrwt>
<pdfrwt beam="2">  1       -2 0.11118006E+00 0.11151527E+04</pdfrwt>
<totfact> 0.46495216E+01</totfact>
</mgrwt>
</event>
<event>
 6    1  0.1072514E-005  0.1924207E+04  0.7818608E-02  0.8642900E-01
          2   -1    0    0  501    0  0.00000000000E+00  0.00000000000E+00  0.22163279513E+04  0.22163279513E+04  0.00000000000E+00 0. -1.
         -2   -1    0    0    0  501 -0.00000000000E+00 -0.00000000000E+00 -0.41764717112E+03  0.41764717112E+03  0.00000000000E+00 0.  1.
         23    2    1    2    0    0  0.18138141611E+03  0.93592431976E+03  0.10526395808E+04  0.14234252384E+04  0.96102924010E+02 0.  0.
         13    1    3    3    0    0  0.55803953095E+02  0.13051846496E+03  0.18105395525E+03  0.23006452484E+03  0.00000000000E+00 0. -1.
        -13    1    3    3    0    0  0.12557746301E+03  0.80540585481E+03  0.87158562550E+03  0.11933607136E+04  0.00000000000E+00 0.  1.
         22    1    1    2    0    0 -0.18138141611E+03 -0.93592431976E+03  0.74604119947E+03  0.12105498840E+04  0.00000000000E+00 0.  1.
<mgrwt>
<rscale>  0 0.19242070E+04</rscale>
<asrwt>0</asrwt>
<pdfrwt beam="1">  1        2 0.34097352E+00 0.19242070E+04</pdfrwt>
<pdfrwt beam="2">  1       -2 0.64253412E-01 0.19242070E+04</pdfrwt>
<totfact> 0.10577785E+01</totfact>
</mgrwt>
</event>
<event>
 6    1  0.1072514E-005  0.2435578E+04  0.7818608E-02  0.8426302E-01
         -2   -1    0    0    0  501 -0.00000000000E+00  0.00000000000E+00  0.17217495646E+04  0.17217495646E+04  0.00000000000E+00 0.  1.
          2   -1    0    0  501    0  0.00000000000E+00 -0.00000000000E+00 -0.86133930097E+03  0.86133930097E+03  0.00000000000E+00 0. -1.
         23    2    1    2    0    0  0.13774438871E+02 -0.11453413850E+04 -0.23841958690E+01  0.11490697225E+04  0.91427126843E+02 0.  0.
         13    1    3    3    0    0 -0.16821474685E+02 -0.52451454440E+03 -0.40334550482E+02  0.52633197248E+03  0.00000000000E+00 0. -1.
        -13    1    3    3    0    0  0.30595913556E+02 -0.62082684058E+03  0.37950354613E+02  0.62273775004E+03  0.00000000000E+00 0.  1.
         22    1    1    2    0    0 -0.13774438871E+02  0.11453413850E+04  0.86279445954E+03  0.14340191431E+04  0.00000000000E+00 0. -1.
<mgrwt>
<rscale>  0 0.24355784E+04</rscale>
<asrwt>0</asrwt>
<pdfrwt beam="1">  1        2 0.13251374E+00 0.24355784E+04</pdfrwt>
<pdfrwt beam="2">  1       -2 0.26488455E+00 0.24355784E+04</pdfrwt>
<totfact> 0.14553926E+00</totfact>
</mgrwt>
</event>
<event>
 6    1  0.1072514E-005  0.2533621E+04  0.7818608E-02  0.8391105E-01
         -1   -1    0    0    0  501 -0.00000000000E+00  0.00000000000E+00  0.85680885057E+03  0.85680885057E+03  0.00000000000E+00 0.  1.
          1   -1    0    0  501    0  0.00000000000E+00 -0.00000000000E+00 -0.18730071793E+04  0.18730071793E+04  0.00000000000E+00 0. -1.
         23    2    1    2    0    0 -0.12118123688E+04 -0.21118770619E+02 -0.89954111466E+03  0.15122183437E+04  0.93246353790E+02 0.  0.
         13    1    3    3    0    0 -0.81999814087E+03 -0.11837260433E+02 -0.66192441418E+03  0.10538885149E+04  0.00000000000E+00 0.  1.
        -13    1    3    3    0    0 -0.39181422793E+03 -0.92815101856E+01 -0.23761670047E+03  0.45832982882E+03  0.00000000000E+00 0. -1.
         22    1    1    2    0    0  0.12118123688E+04  0.21118770619E+02 -0.11665721406E+03  0.12175976861E+04  0.00000000000E+00 0.  1.
<mgrwt>
<rscale>  0 0.25336212E+04</rscale>
<asrwt>0</asrwt>
<pdfrwt beam="1">  1        1 0.28815495E+00 0.25336212E+04</pdfrwt>
<pdfrwt beam="2">  1       -1 0.13181675E+00 0.25336212E+04</pdfrwt>
<totfact> 0.15760212E+00</totfact>
</mgrwt>
</event>
<event>
 6    1  0.1072514E-005  0.2048647E+04  0.7818608E-02  0.8584208E-01
         -2   -1    0    0    0  501 -0.00000000000E+00  0.00000000000E+00  0.62099475799E+03  0.62099475799E+03  0.00000000000E+00 0. -1.
          2   -1    0    0  501    0  0.00000000000E+00 -0.00000000000E+00 -0.16896093462E+04  0.16896093462E+04  0.00000000000E+00 0.  1.
         23    2    1    2    0    0  0.21634811665E+03 -0.60867465888E+03 -0.14290095122E+04  0.15708907481E+04  0.91313792138E+02 0.  0.
         11    1    3    3    0    0  0.54109194041E+02 -0.25752592523E+03 -0.64617484351E+03  0.69770289911E+03  0.00000000000E+00 0. -1.
        -11    1    3    3    0    0  0.16223892261E+03 -0.35114873365E+03 -0.78283466871E+03  0.87318784902E+03  0.00000000000E+00 0.  1.
         22    1    1    2    0    0 -0.21634811665E+03  0.60867465888E+03  0.36039492397E+03  0.73971335608E+03  0.00000000000E+00 0. -1.
<mgrwt>
<rscale>  0 0.20486469E+04</rscale>
<asrwt>0</asrwt>
<pdfrwt beam="1">  1        2 0.25993990E+00 0.20486469E+04</pdfrwt>
<pdfrwt beam="2">  1       -2 0.95537656E-01 0.20486469E+04</pdfrwt>
<totfact> 0.84594947E+00</totfact>
</mgrwt>
</event>
<event>
 6    1  0.1072514E-005  0.3778944E+04  0.7818608E-02  0.8050689E-01
          2   -1    0    0  501    0  0.00000000000E+00  0.00000000000E+00  0.29803309567E+04  0.29803309567E+04  0.00000000000E+00 0. -1.
         -2   -1    0    0    0  501 -0.00000000000E+00 -0.00000000000E+00 -0.11978886785E+04  0.11978886785E+04  0.00000000000E+00 0.  1.
         23    2    1    2    0    0 -0.54436352188E+03 -0.53546853823E+03  0.28012867016E+04  0.29049945340E+04  0.93423010717E+02 0.  0.
         11    1    3    3    0    0 -0.66289321697E+02 -0.91842879119E+02  0.52735165862E+03  0.53937849462E+03  0.00000000000E+00 0.  1.
        -11    1    3    3    0    0 -0.47807420019E+03 -0.44362565911E+03  0.22739350429E+04  0.23656160394E+04  0.00000000000E+00 0. -1.
         22    1    1    2    0    0  0.54436352188E+03  0.53546853823E+03 -0.10188444233E+04  0.12732251012E+04  0.00000000000E+00 0.  1.
<mgrwt>
<rscale>  0 0.37789441E+04</rscale>
<asrwt>0</asrwt>
<pdfrwt beam="1">  1        2 0.45851245E+00 0.37789441E+04</pdfrwt>
<pdfrwt beam="2">  1       -2 0.18429057E+00 0.37789441E+04</pdfrwt>
<totfact> 0.24360903E-01</totfact>
</mgrwt>
</event>
<event>
 6    1  0.1072514E-005  0.2901287E+04  0.7818608E-02  0.8272495E-01
          2   -1    0    0  501    0  0.00000000000E+00  0.00000000000E+00  0.97031695708E+03  0.97031695708E+03  0.00000000000E+00 0. -1.
         -2   -1    0    0    0  501 -0.00000000000E+00 -0.00000000000E+00 -0.21687414932E+04  0.21687414932E+04  0.00000000000E+00 0.  1.
         23    2    1    2    0    0  0.47564862205E+03  0.13664913376E+04 -0.51343626632E+03  0.15381995817E+04  0.94344932753E+02 0.  0.
         13    1    3    3    0    0  0.23581336838E+03  0.64470772028E+03 -0.19497029680E+03  0.71363114137E+03  0.00000000000E+00 0. -1.
        -13    1    3    3    0    0  0.23983525367E+03  0.72178361728E+03 -0.31846596952E+03  0.82456844035E+03  0.00000000000E+00 0.  1.
         22    1    1    2    0    0 -0.47564862205E+03 -0.13664913376E+04 -0.68498826979E+03  0.16008588686E+04  0.00000000000E+00 0.  1.
<mgrwt>
<rscale>  0 0.29012871E+04</rscale>
<asrwt>0</asrwt>
<pdfrwt beam="1">  1        2 0.14927953E+00 0.29012871E+04</pdfrwt>
<pdfrwt beam="2">  1       -2 0.33365254E+00 0.29012871E+04</pdfrwt>
<totfact> 0.44755951E-01</totfact>
</mgrwt>
</event>
<event>
 6    1  0.1072514E-005  0.2465314E+04  0.7818608E-02  0.8415448E-01
          2   -1    0    0  501    0  0.00000000000E+00  0.00000000000E+00  0.23556426702E+04  0.23556426702E+04  0.00000000000E+00 0. -1.
         -2   -1    0    0    0  501 -0.00000000000E+00 -0.00000000000E+00 -0.64502298822E+03  0.64502298822E+03  0.00000000000E+00 0.  1.
         23    2    1    2    0    0  0.60796561927E+03  0.25314777276E+03  0.21223300007E+04  0.22239988214E+04  0.90444107642E+02 0.  0.
         11    1    3    3    0    0  0.49321110383E+03  0.16953249212E+03  0.17213183449E+04  0.17985925896E+04  0.00000000000E+00 0.  1.
        -11    1    3    3    0    0  0.11475451544E+03  0.83615280641E+02  0.40101165582E+03  0.42540623182E+03  0.00000000000E+00 0. -1.
         22    1    1    2    0    0 -0.60796561927E+03 -0.25314777276E+03 -0.41171031877E+03  0.77666683697E+03  0.00000000000E+00 0.  1.
<mgrwt>
<rscale>  0 0.24653143E+04</rscale>
<asrwt>0</asrwt>
<pdfrwt beam="1">  1        2 0.36240656E+00 0.24653143E+04</pdfrwt>
<pdfrwt beam="2">  1       -2 0.99234307E-01 0.24653143E+04</pdfrwt>
<totfact> 0.31705311E+00</totfact>
</mgrwt>
</event>
<event>
 6    1  0.1072514E-005  0.1887710E+04  0.7818608E-02  0.8660998E-01
         -1   -1    0    0    0  501 -0.00000000000E+00  0.00000000000E+00  0.10534965404E+04  0.10534965404E+04  0.00000000000E+00 0.  1.
          1   -1    0    0  501    0  0.00000000000E+00 -0.00000000000E+00 -0.84562443530E+03  0.84562443530E+03  0.00000000000E+00 0. -1.
         23    2    1    2    0    0  0.15775097730E+03  0.83772335086E+03 -0.29829488750E+03  0.90772256548E+03  0.91184607010E+02 0.  0.
         11    1    3    3    0    0  0.43604985416E+01  0.14932175120E+03 -0.25636917311E+02  0.15156929391E+03  0.00000000000E+00 0. -1.
        -11    1    3    3    0    0  0.15339047876E+03  0.68840159966E+03 -0.27265797019E+03  0.75615327157E+03  0.00000000000E+00 0.  1.
         22    1    1    2    0    0 -0.15775097730E+03 -0.83772335086E+03  0.50616699262E+03  0.99139841024E+03  0.00000000000E+00 0.  1.
<mgrwt>
<rscale>  0 0.18877102E+04</rscale>
<asrwt>0</asrwt>
<pdfrwt beam="1">  1        1 0.13009607E+00 0.18877102E+04</pdfrwt>
<pdfrwt beam="2">  1       -1 0.16207639E+00 0.18877102E+04</pdfrwt>
<totfact> 0.53326371E+00</totfact>
</mgrwt>
</event>
<event>
 6    1  0.1072514E-005  0.3024740E+04  0.7818608E-02  0.8236701E-01
          2   -1    0    0  501    0  0.00000000000E+00  0.00000000000E+00  0.15604465937E+04  0.15604465937E+04  0.00000000000E+00 0. -1.
         -2   -1    0    0    0  501 -0.00000000000E+00 -0.00000000000E+00 -0.14657750797E+04  0.14657750797E+04  0.00000000000E+00 0.  1.
         23    2    1    2    0    0 -0.50380218312E+03  0.23998225452E+03  0.14522522479E+04  0.15584227868E+04  0.90757195937E+02 0.  0.
         11    1    3    3    0    0 -0.23979152950E+03  0.16445606843E+03  0.74445193369E+03  0.79922115690E+03  0.00000000000E+00 0.  1.
        -11    1    3    3    0    0 -0.26401065362E+03  0.75526186090E+02  0.70780031425E+03  0.75920162991E+03  0.00000000000E+00 0. -1.
         22    1    1    2    0    0  0.50380218312E+03 -0.23998225452E+03 -0.13575807340E+04  0.14677988866E+04  0.00000000000E+00 0.  1.
<mgrwt>
<rscale>  0 0.30247405E+04</rscale>
<asrwt>0</asrwt>
<pdfrwt beam="1">  1        2 0.24006871E+00 0.30247405E+04</pdfrwt>
<pdfrwt beam="2">  1       -2 0.22550386E+00 0.30247405E+04</pdfrwt>
<totfact> 0.91480515E-01</totfact>
</mgrwt>
</event>
<event>
 6    1  0.1072514E-005  0.2398972E+04  0.7818608E-02  0.8439889E-01
          2   -1    0    0  501    0  0.00000000000E+00  0.00000000000E+00  0.39891402843E+04  0.39891402843E+04  0.00000000000E+00 0. -1.
         -2   -1    0    0    0  501 -0.00000000000E+00 -0.00000000000E+00 -0.36067077172E+03  0.36067077172E+03  0.00000000000E+00 0.  1.
         23    2    1    2    0    0  0.71984767275E+03  0.51269525473E+03  0.32827028796E+04  0.34008159766E+04  0.91509644305E+02 0.  0.
         13    1    3    3    0    0  0.22055224630E+03  0.18071036918E+03  0.12091642409E+04  0.12423275302E+04  0.00000000000E+00 0. -1.
        -13    1    3    3    0    0  0.49929542645E+03  0.33198488555E+03  0.20735386387E+04  0.21584884464E+04  0.00000000000E+00 0.  1.
         22    1    1    2    0    0 -0.71984767275E+03 -0.51269525473E+03  0.34576663297E+03  0.94899507937E+03  0.00000000000E+00 0.  1.
<mgrwt>
<rscale>  0 0.23989717E+04</rscale>
<asrwt>0</asrwt>
<pdfrwt beam="1">  1        2 0.61371386E+00 0.23989717E+04</pdfrwt>
<pdfrwt beam="2">  1       -2 0.55487814E-01 0.23989717E+04</pdfrwt>
<totfact> 0.96265350E-01</totfact>
</mgrwt>
</event>
<event>
 6    1  0.1643821E-005  0.3813001E+04  0.7818608E-02  0.8043371E-01
          2   -1    0    0  501    0  0.00000000000E+00  0.00000000000E+00  0.21527668076E+04  0.21527668076E+04  0.00000000000E+00 0. -1.
         -2   -1    0    0    0  501 -0.00000000000E+00 -0.00000000000E+00 -0.16884059458E+04  0.16884059458E+04  0.00000000000E+00 0.  1.
         23    2    1    2    0    0 -0.35799090444E+03 -0.80528476490E+03 -0.14695707521E+04  0.17159121747E+04  0.89862981636E+02 0.  0.
         13    1    3    3    0    0 -0.27029302745E+03 -0.53149046605E+03 -0.10452974461E+04  0.12034064928E+04  0.00000000000E+00 0. -1.
        -13    1    3    3    0    0 -0.87697876986E+02 -0.27379429885E+03 -0.42427330605E+03  0.51250568186E+03  0.00000000000E+00 0.  1.
         22    1    1    2    0    0  0.35799090444E+03  0.80528476490E+03  0.19339316139E+04  0.21252605787E+04  0.00000000000E+00 0. -1.
<mgrwt>
<rscale>  0 0.38130011E+04</rscale>
<asrwt>0</asrwt>
<pdfrwt beam="1">  1        2 0.33119489E+00 0.38130011E+04</pdfrwt>
<pdfrwt beam="2">  1       -2 0.25975476E+00 0.38130011E+04</pdfrwt>
<totfact> 0.24617204E-01</totfact>
</mgrwt>
</event>
<event>
 6    1  0.1072514E-005  0.2123286E+04  0.7818608E-02  0.8551055E-01
          1   -1    0    0  501    0  0.00000000000E+00  0.00000000000E+00  0.18332987599E+04  0.18332987599E+04  0.00000000000E+00 0. -1.
         -1   -1    0    0    0  501 -0.00000000000E+00 -0.00000000000E+00 -0.61478571503E+03  0.61478571503E+03  0.00000000000E+00 0.  1.
         23    2    1    2    0    0  0.55987510376E+03 -0.92202310320E+02  0.16423729502E+04  0.17398340834E+04  0.87591852329E+02 0.  0.
         13    1    3    3    0    0  0.15149588667E+03 -0.59018492362E+02  0.53140605633E+03  0.55572167749E+03  0.00000000000E+00 0.  1.
        -13    1    3    3    0    0  0.40837921709E+03 -0.33183817958E+02  0.11109668938E+04  0.11841124059E+04  0.00000000000E+00 0. -1.
         22    1    1    2    0    0 -0.55987510376E+03  0.92202310320E+02 -0.42385990526E+03  0.70825039155E+03  0.00000000000E+00 0.  1.
<mgrwt>
<rscale>  0 0.21232860E+04</rscale>
<asrwt>0</asrwt>
<pdfrwt beam="1">  1        1 0.28204596E+00 0.21232860E+04</pdfrwt>
<pdfrwt beam="2">  1       -1 0.94582418E-01 0.21232860E+04</pdfrwt>
<totfact> 0.38377918E+00</totfact>
</mgrwt>
</event>
<event>
 6    1  0.1072514E-005  0.2456838E+04  0.7818608E-02  0.8418526E-01
          2   -1    0    0  501    0  0.00000000000E+00  0.00000000000E+00  0.69070593961E+03  0.69070593961E+03  0.00000000000E+00 0. -1.
         -2   -1    0    0    0  501 -0.00000000000E+00 -0.00000000000E+00 -0.21847406480E+04  0.21847406480E+04  0.00000000000E+00 0.  1.
         23    2    1    2    0    0 -0.69465743608E+02  0.34033317361E+03 -0.21250704837E+04  0.21551283882E+04  0.89451945672E+02 0.  0.
         11    1    3    3    0    0 -0.41429510871E+02  0.11427181538E+03 -0.98934498237E+03  0.99678380118E+03  0.00000000000E+00 0.  1.
        -11    1    3    3    0    0 -0.28036232737E+02  0.22606135823E+03 -0.11357255013E+04  0.11583445871E+04  0.00000000000E+00 0. -1.
         22    1    1    2    0    0  0.69465743608E+02 -0.34033317361E+03  0.63103577531E+03  0.72031819935E+03  0.00000000000E+00 0. -1.
<mgrwt>
<rscale>  0 0.24568381E+04</rscale>
<asrwt>0</asrwt>
<pdfrwt beam="1">  1        2 0.10626245E+00 0.24568381E+04</pdfrwt>
<pdfrwt beam="2">  1       -2 0.33611395E+00 0.24568381E+04</pdfrwt>
<totfact> 0.70962143E-01</totfact>
</mgrwt>
</event>
<event>
 6    1  0.1072514E-005  0.1245483E+04  0.7818608E-02  0.9073951E-01
          1   -1    0    0  501    0  0.00000000000E+00  0.00000000000E+00  0.30378928538E+04  0.30378928538E+04  0.00000000000E+00 0. -1.
         -1   -1    0    0    0  501 -0.00000000000E+00 -0.00000000000E+00 -0.12765650017E+03  0.12765650017E+03  0.00000000000E+00 0.  1.
         23    2    1    2    0    0  0.23128262165E+03  0.57435947590E+03  0.14357415096E+04  0.15663259476E+04  0.92966837692E+02 0.  0.
         11    1    3    3    0    0  0.22481916844E+02  0.34736102591E+02  0.16408139832E+03  0.16921802116E+03  0.00000000000E+00 0. -1.
        -11    1    3    3    0    0  0.20880070481E+03  0.53962337331E+03  0.12716601113E+04  0.13971079264E+04  0.00000000000E+00 0.  1.
         22    1    1    2    0    0 -0.23128262165E+03 -0.57435947590E+03  0.14744948440E+04  0.15992234064E+04  0.00000000000E+00 0.  1.
<mgrwt>
<rscale>  0 0.12454827E+04</rscale>
<asrwt>0</asrwt>
<pdfrwt beam="1">  1        1 0.46736808E+00 0.12454827E+04</pdfrwt>
<pdfrwt beam="2">  1       -1 0.19639464E-01 0.12454827E+04</pdfrwt>
<totfact> 0.11808081E+01</totfact>
</mgrwt>
</event>
<event>
 6    1  0.1072514E-005  0.1944860E+04  0.7818608E-02  0.8632843E-01
          1   -1    0    0  501    0  0.00000000000E+00  0.00000000000E+00  0.12388491600E+04  0.12388491600E+04  0.00000000000E+00 0. -1.
         -1   -1    0    0    0  501 -0.00000000000E+00 -0.00000000000E+00 -0.76330516831E+03  0.76330516831E+03  0.00000000000E+00 0.  1.
         23    2    1    2    0    0  0.48455360468E+03 -0.55363792569E+03 -0.41279596825E+03  0.84870080390E+03  0.92657404272E+02 0.  0.
         13    1    3    3    0    0  0.24328102931E+03 -0.26465512308E+03 -0.14965683568E+03  0.38939075729E+03  0.00000000000E+00 0.  1.
        -13    1    3    3    0    0  0.24127257537E+03 -0.28898280261E+03 -0.26313913257E+03  0.45931004661E+03  0.00000000000E+00 0. -1.
         22    1    1    2    0    0 -0.48455360468E+03  0.55363792569E+03  0.88833995996E+03  0.11534535244E+04  0.00000000000E+00 0. -1.
<mgrwt>
<rscale>  0 0.19448599E+04</rscale>
<asrwt>0</asrwt>
<pdfrwt beam="1">  1        1 0.19059218E+00 0.19448599E+04</pdfrwt>
<pdfrwt beam="2">  1       -1 0.11743156E+00 0.19448599E+04</pdfrwt>
<totfact> 0.60901757E+00</totfact>
</mgrwt>
</event>
<event>
 6    1  0.1072514E-005  0.4135961E+04  0.7818608E-02  0.7977667E-01
          1   -1    0    0  501    0  0.00000000000E+00  0.00000000000E+00  0.16487609076E+04  0.16487609076E+04  0.00000000000E+00 0. -1.
         -1   -1    0    0    0  501 -0.00000000000E+00 -0.00000000000E+00 -0.25937922054E+04  0.25937922054E+04  0.00000000000E+00 0.  1.
         23    2    1    2    0    0 -0.50034286721E+03 -0.17999032417E+04 -0.13801394880E+04  0.23243993649E+04  0.89737041481E+02 0.  0.
         13    1    3    3    0    0 -0.24644120821E+03 -0.10463134246E+04 -0.80780478361E+03  0.13446388437E+04  0.00000000000E+00 0.  1.
        -13    1    3    3    0    0 -0.25390165900E+03 -0.75358981715E+03 -0.57233470441E+03  0.97976052116E+03  0.00000000000E+00 0. -1.
         22    1    1    2    0    0  0.50034286721E+03  0.17999032417E+04  0.43510819027E+03  0.19181537482E+04  0.00000000000E+00 0. -1.
<mgrwt>
<rscale>  0 0.41359609E+04</rscale>
<asrwt>0</asrwt>
<pdfrwt beam="1">  1        1 0.25365552E+00 0.41359609E+04</pdfrwt>
<pdfrwt beam="2">  1       -1 0.39904495E+00 0.41359609E+04</pdfrwt>
<totfact> 0.29023911E-02</totfact>
</mgrwt>
</event>
<event>
 6    1  0.1072514E-005  0.3838618E+04  0.7818608E-02  0.8037918E-01
          2   -1    0    0  501    0  0.00000000000E+00  0.00000000000E+00  0.21307197023E+04  0.21307197023E+04  0.00000000000E+00 0. -1.
         -2   -1    0    0    0  501 -0.00000000000E+00 -0.00000000000E+00 -0.17288748532E+04  0.17288748532E+04  0.00000000000E+00 0.  1.
         23    2    1    2    0    0 -0.27908887499E+03 -0.18724076584E+04 -0.11041529928E+03  0.18984185056E+04  0.89444085883E+02 0.  0.
         13    1    3    3    0    0 -0.23850222939E+03 -0.15147819380E+04 -0.12219811052E+03  0.15383042649E+04  0.00000000000E+00 0. -1.
        -13    1    3    3    0    0 -0.40586645606E+02 -0.35762572040E+03  0.11782811244E+02  0.36011424067E+03  0.00000000000E+00 0.  1.
         22    1    1    2    0    0  0.27908887499E+03  0.18724076584E+04  0.51226014842E+03  0.19611760500E+04  0.00000000000E+00 0.  1.
<mgrwt>
<rscale>  0 0.38386184E+04</rscale>
<asrwt>0</asrwt>
<pdfrwt beam="1">  1        2 0.32780303E+00 0.38386184E+04</pdfrwt>
<pdfrwt beam="2">  1       -2 0.26598075E+00 0.38386184E+04</pdfrwt>
<totfact> 0.23153633E-01</totfact>
</mgrwt>
</event>
<event>
 6    1  0.1072514E-005  0.7046826E+04  0.7818608E-02  0.7572625E-01
         -2   -1    0    0    0  501 -0.00000000000E+00  0.00000000000E+00  0.38637125458E+04  0.38637125458E+04  0.00000000000E+00 0.  1.
          2   -1    0    0  501    0  0.00000000000E+00 -0.00000000000E+00 -0.32130855457E+04  0.32130855457E+04  0.00000000000E+00 0. -1.
         23    2    1    2    0    0 -0.79614282308E+03  0.10538925215E+04  0.36051515210E+04  0.38404810512E+04  0.87432106969E+02 0.  0.
         11    1    3    3    0    0 -0.25681038294E+03  0.27458394557E+03  0.10220347080E+04  0.10889916713E+04  0.00000000000E+00 0. -1.
        -11    1    3    3    0    0 -0.53933244014E+03  0.77930857590E+03  0.25831168131E+04  0.27514893798E+04  0.00000000000E+00 0.  1.
         22    1    1    2    0    0  0.79614282308E+03 -0.10538925215E+04 -0.29545245209E+04  0.32363170404E+04  0.00000000000E+00 0. -1.
<mgrwt>
<rscale>  0 0.70468259E+04</rscale>
<asrwt>0</asrwt>
<pdfrwt beam="1">  1        2 0.49432085E+00 0.70468259E+04</pdfrwt>
<pdfrwt beam="2">  1       -2 0.59441731E+00 0.70468259E+04</pdfrwt>
<totfact> 0.43439681E-04</totfact>
</mgrwt>
</event>
<event>
 6    1  0.1072514E-005  0.2482873E+04  0.7818608E-02  0.8409113E-01
         -1   -1    0    0    0  501 -0.00000000000E+00  0.00000000000E+00  0.63505996122E+03  0.63505996122E+03  0.00000000000E+00 0.  1.
          1   -1    0    0  501    0  0.00000000000E+00 -0.00000000000E+00 -0.24268019629E+04  0.24268019629E+04  0.00000000000E+00 0. -1.
         23    2    1    2    0    0  0.13234657475E+03 -0.73590530920E+03 -0.21164676644E+04  0.22466815784E+04  0.95239173305E+02 0.  0.
         13    1    3    3    0    0  0.49466213368E+02 -0.43745390276E+03 -0.13509730374E+04  0.14208944265E+04  0.00000000000E+00 0.  1.
        -13    1    3    3    0    0  0.82880361380E+02 -0.29845140644E+03 -0.76549462697E+03  0.82578715189E+03  0.00000000000E+00 0. -1.
         22    1    1    2    0    0 -0.13234657475E+03  0.73590530920E+03  0.32472566278E+03  0.81518034571E+03  0.00000000000E+00 0.  1.
<mgrwt>
<rscale>  0 0.24828731E+04</rscale>
<asrwt>0</asrwt>
<pdfrwt beam="1">  1        1 0.37335415E+00 0.24828731E+04</pdfrwt>
<pdfrwt beam="2">  1       -1 0.97701532E-01 0.24828731E+04</pdfrwt>
<totfact> 0.13609401E+00</totfact>
</mgrwt>
</event>
<event>
 6    1  0.1072514E-005  0.1624091E+04  0.7818608E-02  0.8805883E-01
         -1   -1    0    0    0  501 -0.00000000000E+00  0.00000000000E+00  0.63407990564E+03  0.63407990564E+03  0.00000000000E+00 0.  1.
          1   -1    0    0  501    0  0.00000000000E+00 -0.00000000000E+00 -0.10399608177E+04  0.10399608177E+04  0.00000000000E+00 0. -1.
         23    2    1    2    0    0  0.13784370723E+03  0.62408183163E+03 -0.71540428355E+03  0.96391134234E+03  0.94035986566E+02 0.  0.
         11    1    3    3    0    0 -0.13060452471E+02  0.88255470500E+02 -0.10525617950E+03  0.13797995077E+03  0.00000000000E+00 0.  1.
        -11    1    3    3    0    0  0.15090415970E+03  0.53582636113E+03 -0.61014810405E+03  0.82593139157E+03  0.00000000000E+00 0. -1.
         22    1    1    2    0    0 -0.13784370723E+03 -0.62408183163E+03  0.30952337152E+03  0.71012938097E+03  0.00000000000E+00 0.  1.
<mgrwt>
<rscale>  0 0.16240914E+04</rscale>
<asrwt>0</asrwt>
<pdfrwt beam="1">  1        1 0.15999397E+00 0.16240914E+04</pdfrwt>
<pdfrwt beam="2">  1       -1 0.97550755E-01 0.16240914E+04</pdfrwt>
<totfact> 0.13608709E+01</totfact>
</mgrwt>
</event>
<event>
 6    1  0.1072514E-005  0.4675580E+04  0.7818608E-02  0.7880599E-01
         -2   -1    0    0    0  501 -0.00000000000E+00  0.00000000000E+00  0.33435950839E+04  0.33435950839E+04  0.00000000000E+00 0.  1.
          2   -1    0    0  501    0  0.00000000000E+00 -0.00000000000E+00 -0.16345464288E+04  0.16345464288E+04  0.00000000000E+00 0. -1.
         23    2    1    2    0    0 -0.18290656315E+04 -0.76173500925E+03  0.21745578150E+04  0.29428479008E+04  0.77011478153E+02 0.  0.
         13    1    3    3    0    0 -0.32068339231E+03 -0.15793040941E+03  0.42114351233E+03  0.55239633444E+03  0.00000000000E+00 0.  1.
        -13    1    3    3    0    0 -0.15083822392E+04 -0.60380459983E+03  0.17534143027E+04  0.23904515664E+04  0.00000000000E+00 0. -1.
         22    1    1    2    0    0  0.18290656315E+04  0.76173500925E+03 -0.46550915990E+03  0.20352936119E+04  0.00000000000E+00 0. -1.
<mgrwt>
<rscale>  0 0.46755797E+04</rscale>
<asrwt>0</asrwt>
<pdfrwt beam="1">  1        2 0.25146868E+00 0.46755797E+04</pdfrwt>
<pdfrwt beam="2">  1       -2 0.51439924E+00 0.46755797E+04</pdfrwt>
<totfact> 0.10805077E-02</totfact>
</mgrwt>
</event>
<event>
 6    1  0.1072514E-005  0.2616454E+04  0.7818608E-02  0.8362633E-01
          2   -1    0    0  501    0  0.00000000000E+00  0.00000000000E+00  0.14444231534E+04  0.14444231534E+04  0.00000000000E+00 0. -1.
         -2   -1    0    0    0  501 -0.00000000000E+00 -0.00000000000E+00 -0.11848732672E+04  0.11848732672E+04  0.00000000000E+00 0.  1.
         23    2    1    2    0    0  0.16697662841E+03 -0.11485970324E+04 -0.47312927012E+03  0.12567167022E+04  0.91264593554E+02 0.  0.
         13    1    3    3    0    0  0.14845209591E+03 -0.11201989730E+04 -0.45398294114E+03  0.12177784178E+04  0.00000000000E+00 0. -1.
        -13    1    3    3    0    0  0.18524532495E+02 -0.28398059430E+02 -0.19146328982E+02  0.38938284465E+02  0.00000000000E+00 0.  1.
         22    1    1    2    0    0 -0.16697662841E+03  0.11485970324E+04  0.73267915630E+03  0.13725797184E+04  0.00000000000E+00 0. -1.
<mgrwt>
<rscale>  0 0.26164544E+04</rscale>
<asrwt>0</asrwt>
<pdfrwt beam="1">  1        2 0.22221895E+00 0.26164544E+04</pdfrwt>
<pdfrwt beam="2">  1       -2 0.18228819E+00 0.26164544E+04</pdfrwt>
<totfact> 0.21086476E+00</totfact>
</mgrwt>
</event>
<event>
 6    1  0.1072514E-005  0.2863469E+04  0.7818608E-02  0.8283830E-01
          1   -1    0    0  501    0  0.00000000000E+00  0.00000000000E+00  0.20028667022E+04  0.20028667022E+04  0.00000000000E+00 0. -1.
         -1   -1    0    0    0  501 -0.00000000000E+00 -0.00000000000E+00 -0.10234649968E+04  0.10234649968E+04  0.00000000000E+00 0.  1.
         23    2    1    2    0    0  0.33881160975E+03  0.58883035159E+03 -0.84010671968E+03  0.10841356742E+04  0.89757282458E+02 0.  0.
         13    1    3    3    0    0  0.29475112236E+02  0.14352089428E+02 -0.39814954043E+02  0.51575142052E+02  0.00000000000E+00 0.  1.
        -13    1    3    3    0    0  0.30933649752E+03  0.57447826216E+03 -0.80029176563E+03  0.10325605321E+04  0.00000000000E+00 0. -1.
         22    1    1    2    0    0 -0.33881160975E+03 -0.58883035159E+03  0.18195084251E+04  0.19421960248E+04  0.00000000000E+00 0. -1.
<mgrwt>
<rscale>  0 0.28634692E+04</rscale>
<asrwt>0</asrwt>
<pdfrwt beam="1">  1        1 0.30813334E+00 0.28634692E+04</pdfrwt>
<pdfrwt beam="2">  1       -1 0.15745615E+00 0.28634692E+04</pdfrwt>
<totfact> 0.78050301E-01</totfact>
</mgrwt>
</event>
<event>
 6    1  0.1236882E-005  0.2318703E+04  0.7818608E-02  0.8470583E-01
          2   -1    0    0  501    0  0.00000000000E+00  0.00000000000E+00  0.15978072054E+04  0.15978072054E+04  0.00000000000E+00 0. -1.
         -2   -1    0    0    0  501 -0.00000000000E+00 -0.00000000000E+00 -0.84121302190E+03  0.84121302190E+03  0.00000000000E+00 0.  1.
         23    2    1    2    0    0  0.61349961081E+03  0.22375022372E+03  0.13842364219E+04  0.15332715235E+04  0.91461237019E+02 0.  0.
         11    1    3    3    0    0  0.24822712061E+03  0.10702557468E+03  0.67272535924E+03  0.72500385241E+03  0.00000000000E+00 0. -1.
        -11    1    3    3    0    0  0.36527249020E+03  0.11672464904E+03  0.71151106270E+03  0.80826767109E+03  0.00000000000E+00 0.  1.
         22    1    1    2    0    0 -0.61349961081E+03 -0.22375022372E+03 -0.62764223840E+03  0.90574870384E+03  0.00000000000E+00 0.  1.
<mgrwt>
<rscale>  0 0.23187033E+04</rscale>
<asrwt>0</asrwt>
<pdfrwt beam="1">  1        2 0.24581649E+00 0.23187033E+04</pdfrwt>
<pdfrwt beam="2">  1       -2 0.12941739E+00 0.23187033E+04</pdfrwt>
<totfact> 0.44477297E+00</totfact>
</mgrwt>
</event>
<event>
 6    1  0.1072514E-005  0.1958787E+04  0.7818608E-02  0.8626135E-01
         -1   -1    0    0    0  501 -0.00000000000E+00  0.00000000000E+00  0.76123827383E+03  0.76123827383E+03  0.00000000000E+00 0.  1.
          1   -1    0    0  501    0  0.00000000000E+00 -0.00000000000E+00 -0.12600672621E+04  0.12600672621E+04  0.00000000000E+00 0. -1.
         23    2    1    2    0    0  0.92184463868E+03  0.88246256302E+01 -0.58466995631E+03  0.10954307692E+04  0.90852630793E+02 0.  0.
         13    1    3    3    0    0  0.62485177231E+03 -0.10545241397E+01 -0.44481265598E+03  0.76700661555E+03  0.00000000000E+00 0. -1.
        -13    1    3    3    0    0  0.29699286637E+03  0.98791497699E+01 -0.13985730033E+03  0.32842415369E+03  0.00000000000E+00 0.  1.
         22    1    1    2    0    0 -0.92184463868E+03 -0.88246256302E+01  0.85840967995E+02  0.92587476673E+03  0.00000000000E+00 0.  1.
<mgrwt>
<rscale>  0 0.19587868E+04</rscale>
<asrwt>0</asrwt>
<pdfrwt beam="1">  1        1 0.19385650E+00 0.19587868E+04</pdfrwt>
<pdfrwt beam="2">  1       -1 0.11711358E+00 0.19587868E+04</pdfrwt>
<totfact> 0.59102451E+00</totfact>
</mgrwt>
</event>
<event>
 6    1  0.1072514E-005  0.1225034E+04  0.7818608E-02  0.9091222E-01
         -1   -1    0    0    0  501 -0.00000000000E+00  0.00000000000E+00  0.59907079071E+03  0.59907079071E+03  0.00000000000E+00 0.  1.
          1   -1    0    0  501    0  0.00000000000E+00 -0.00000000000E+00 -0.62626471613E+03  0.62626471613E+03  0.00000000000E+00 0. -1.
         23    2    1    2    0    0  0.90865686786E+02  0.20673809235E+03 -0.57947161610E+03  0.62867156501E+03  0.91887817024E+02 0.  0.
         11    1    3    3    0    0  0.55709653886E+02  0.11676922905E+03 -0.44278194872E+03  0.46129651256E+03  0.00000000000E+00 0. -1.
        -11    1    3    3    0    0  0.35156032899E+02  0.89968863294E+02 -0.13668966738E+03  0.16737505244E+03  0.00000000000E+00 0.  1.
         22    1    1    2    0    0 -0.90865686786E+02 -0.20673809235E+03  0.55227769069E+03  0.59666394184E+03  0.00000000000E+00 0.  1.
<mgrwt>
<rscale>  0 0.12250337E+04</rscale>
<asrwt>0</asrwt>
<pdfrwt beam="1">  1        1 0.96348419E-01 0.12250337E+04</pdfrwt>
<pdfrwt beam="2">  1       -1 0.92164736E-01 0.12250337E+04</pdfrwt>
<totfact> 0.36445121E+01</totfact>
</mgrwt>
</event>
<event>
 6    1  0.1072514E-005  0.1715366E+04  0.7818608E-02  0.8752649E-01
         -2   -1    0    0    0  501 -0.00000000000E+00  0.00000000000E+00  0.36924796636E+03  0.36924796636E+03  0.00000000000E+00 0.  1.
          2   -1    0    0  501    0  0.00000000000E+00 -0.00000000000E+00 -0.19922117333E+04  0.19922117333E+04  0.00000000000E+00 0. -1.
         23    2    1    2    0    0  0.50569871783E+03 -0.60797546613E+03 -0.36547028196E+03  0.87597822034E+03  0.91673086965E+02 0.  0.
         13    1    3    3    0    0  0.97133575414E+02 -0.12794503372E+03 -0.11555606168E+03  0.19788397236E+03  0.00000000000E+00 0.  1.
        -13    1    3    3    0    0  0.40856514242E+03 -0.48003043241E+03 -0.24991422028E+03  0.67809424798E+03  0.00000000000E+00 0. -1.
         22    1    1    2    0    0 -0.50569871783E+03  0.60797546613E+03 -0.12574934850E+04  0.14854814794E+04  0.00000000000E+00 0. -1.
<mgrwt>
<rscale>  0 0.17153660E+04</rscale>
<asrwt>0</asrwt>
<pdfrwt beam="1">  1        2 0.30649411E+00 0.17153660E+04</pdfrwt>
<pdfrwt beam="2">  1       -2 0.56807379E-01 0.17153660E+04</pdfrwt>
<totfact> 0.18639083E+01</totfact>
</mgrwt>
</event>
<event>
 6    1  0.1072514E-005  0.1093221E+04  0.7818608E-02  0.9211824E-01
         -1   -1    0    0    0  501 -0.00000000000E+00  0.00000000000E+00  0.56839608386E+03  0.56839608386E+03  0.00000000000E+00 0.  1.
          1   -1    0    0  501    0  0.00000000000E+00 -0.00000000000E+00 -0.52565986515E+03  0.52565986515E+03  0.00000000000E+00 0. -1.
         23    2    1    2    0    0  0.11592301246E+03  0.50258298362E+03  0.19022391828E+03  0.55760425335E+03  0.93325044960E+02 0.  0.
         11    1    3    3    0    0  0.36104882791E+02  0.24751638147E+03  0.47453787307E+02  0.25459729689E+03  0.00000000000E+00 0. -1.
        -11    1    3    3    0    0  0.79818129672E+02  0.25506660216E+03  0.14277013098E+03  0.30300695646E+03  0.00000000000E+00 0.  1.
         22    1    1    2    0    0 -0.11592301246E+03 -0.50258298362E+03 -0.14748769958E+03  0.53645169566E+03  0.00000000000E+00 0. -1.
<mgrwt>
<rscale>  0 0.10932209E+04</rscale>
<asrwt>0</asrwt>
<pdfrwt beam="1">  1        1 0.80870748E-01 0.10932209E+04</pdfrwt>
<pdfrwt beam="2">  1       -1 0.87445552E-01 0.10932209E+04</pdfrwt>
<totfact> 0.53072459E+01</totfact>
</mgrwt>
</event>
<event>
 6    1  0.1072514E-005  0.2674869E+04  0.7818608E-02  0.8343205E-01
         -2   -1    0    0    0  501 -0.00000000000E+00  0.00000000000E+00  0.61241525807E+03  0.61241525807E+03  0.00000000000E+00 0.  1.
          2   -1    0    0  501    0  0.00000000000E+00 -0.00000000000E+00 -0.29207817905E+04  0.29207817905E+04  0.00000000000E+00 0. -1.
         23    2    1    2    0    0 -0.13669879916E+03  0.30094462746E+03 -0.28651936118E+04  0.28856550601E+04  0.91741276989E+02 0.  0.
         13    1    3    3    0    0 -0.56208319342E+02  0.18608977331E+03 -0.19663100776E+04  0.19758957715E+04  0.00000000000E+00 0. -1.
        -13    1    3    3    0    0 -0.80490479819E+02  0.11485485414E+03 -0.89888353429E+03  0.90975928853E+03  0.00000000000E+00 0.  1.
         22    1    1    2    0    0  0.13669879916E+03 -0.30094462746E+03  0.55682707941E+03  0.64754198849E+03  0.00000000000E+00 0.  1.
<mgrwt>
<rscale>  0 0.26748692E+04</rscale>
<asrwt>0</asrwt>
<pdfrwt beam="1">  1        2 0.44935104E+00 0.26748692E+04</pdfrwt>
<pdfrwt beam="2">  1       -2 0.94217732E-01 0.26748692E+04</pdfrwt>
<totfact> 0.16289298E+00</totfact>
</mgrwt>
</event>
<event>
 6    1  0.1072514E-005  0.1209489E+04  0.7818608E-02  0.9104591E-01
          1   -1    0    0  501    0  0.00000000000E+00  0.00000000000E+00  0.49441231595E+03  0.49441231595E+03  0.00000000000E+00 0. -1.
         -1   -1    0    0    0  501 -0.00000000000E+00 -0.00000000000E+00 -0.73969831199E+03  0.73969831199E+03  0.00000000000E+00 0.  1.
         23    2    1    2    0    0 -0.53908749998E+03  0.24587323898E+03 -0.23246075060E+03  0.64146109475E+03  0.79783163766E+02 0.  0.
         13    1    3    3    0    0 -0.29009465617E+03  0.15344898608E+03 -0.91086742487E+02  0.34058522505E+03  0.00000000000E+00 0. -1.
        -13    1    3    3    0    0 -0.24899284381E+03  0.92424252896E+02 -0.14137400811E+03  0.30087586969E+03  0.00000000000E+00 0.  1.
         22    1    1    2    0    0  0.53908749998E+03 -0.24587323898E+03 -0.12825245443E+02  0.59264953320E+03  0.00000000000E+00 0.  1.
<mgrwt>
<rscale>  0 0.12094891E+04</rscale>
<asrwt>0</asrwt>
<pdfrwt beam="1">  1        1 0.76063433E-01 0.12094891E+04</pdfrwt>
<pdfrwt beam="2">  1       -1 0.11379974E+00 0.12094891E+04</pdfrwt>
<totfact> 0.31354305E+01</totfact>
</mgrwt>
</event>
<event>
 6    1  0.1072514E-005  0.1938222E+04  0.7818608E-02  0.8636061E-01
          2   -1    0    0  501    0  0.00000000000E+00  0.00000000000E+00  0.19281233068E+04  0.19281233068E+04  0.00000000000E+00 0. -1.
         -2   -1    0    0    0  501 -0.00000000000E+00 -0.00000000000E+00 -0.48709329896E+03  0.48709329896E+03  0.00000000000E+00 0.  1.
         23    2    1    2    0    0 -0.50324315283E+03 -0.57884414630E+03 -0.11804127328E+02  0.77234070025E+03  0.89758583202E+02 0.  0.
         11    1    3    3    0    0 -0.16933344082E+03 -0.26164806809E+03 -0.83713251194E+01  0.31177492651E+03  0.00000000000E+00 0.  1.
        -11    1    3    3    0    0 -0.33390971201E+03 -0.31719607821E+03 -0.34328022083E+01  0.46056577374E+03  0.00000000000E+00 0. -1.
         22    1    1    2    0    0  0.50324315283E+03  0.57884414630E+03  0.14528341351E+04  0.16428759055E+04  0.00000000000E+00 0. -1.
<mgrwt>
<rscale>  0 0.19382218E+04</rscale>
<asrwt>0</asrwt>
<pdfrwt beam="1">  1        2 0.29663435E+00 0.19382218E+04</pdfrwt>
<pdfrwt beam="2">  1       -2 0.74937432E-01 0.19382218E+04</pdfrwt>
<totfact> 0.10940699E+01</totfact>
</mgrwt>
</event>
<event>
 6    1  0.1072514E-005  0.4725367E+04  0.7818608E-02  0.7872327E-01
          2   -1    0    0  501    0  0.00000000000E+00  0.00000000000E+00  0.30356922633E+04  0.30356922633E+04  0.00000000000E+00 0. -1.
         -2   -1    0    0    0  501 -0.00000000000E+00 -0.00000000000E+00 -0.18388797824E+04  0.18388797824E+04  0.00000000000E+00 0.  1.
         23    2    1    2    0    0 -0.16662338222E+04  0.31758215612E+02  0.23250909132E+04  0.28620224301E+04  0.88209417903E+02 0.  0.
         13    1    3    3    0    0 -0.89770948975E+03 -0.25559464635E+02  0.12695916817E+04  0.15551201408E+04  0.00000000000E+00 0. -1.
        -13    1    3    3    0    0 -0.76852433242E+03  0.57317680247E+02  0.10554992315E+04  0.13069022893E+04  0.00000000000E+00 0.  1.
         22    1    1    2    0    0  0.16662338222E+04 -0.31758215612E+02 -0.11282784323E+04  0.20125496156E+04  0.00000000000E+00 0.  1.
<mgrwt>
<rscale>  0 0.47253669E+04</rscale>
<asrwt>0</asrwt>
<pdfrwt beam="1">  1        2 0.46702958E+00 0.47253669E+04</pdfrwt>
<pdfrwt beam="2">  1       -2 0.28290458E+00 0.47253669E+04</pdfrwt>
<totfact> 0.49706810E-02</totfact>
</mgrwt>
</event>
<event>
 6    1  0.1072514E-005  0.2229616E+04  0.7818608E-02  0.8506201E-01
         -2   -1    0    0    0  501 -0.00000000000E+00  0.00000000000E+00  0.97905267045E+03  0.97905267045E+03  0.00000000000E+00 0.  1.
          2   -1    0    0  501    0  0.00000000000E+00 -0.00000000000E+00 -0.12693872935E+04  0.12693872935E+04  0.00000000000E+00 0. -1.
         23    2    1    2    0    0 -0.39917313266E+03  0.71750201907E+03 -0.90266690002E+03  0.12241845492E+04  0.98346026402E+02 0.  0.
         13    1    3    3    0    0 -0.48909697711E+02  0.71268094978E+02 -0.14315341300E+03  0.16722499677E+03  0.00000000000E+00 0. -1.
        -13    1    3    3    0    0 -0.35026343495E+03  0.64623392409E+03 -0.75951348702E+03  0.10569595524E+04  0.00000000000E+00 0.  1.
         22    1    1    2    0    0  0.39917313266E+03 -0.71750201907E+03  0.61233227698E+03  0.10242554147E+04  0.00000000000E+00 0.  1.
<mgrwt>
<rscale>  0 0.22296161E+04</rscale>
<asrwt>0</asrwt>
<pdfrwt beam="1">  1        2 0.19529035E+00 0.22296161E+04</pdfrwt>
<pdfrwt beam="2">  1       -2 0.15062349E+00 0.22296161E+04</pdfrwt>
<totfact> 0.46558040E+00</totfact>
</mgrwt>
</event>
<event>
 6    1  0.1195416E-005  0.2836976E+04  0.7818608E-02  0.8291880E-01
         -1   -1    0    0    0  501 -0.00000000000E+00  0.00000000000E+00  0.83934315900E+03  0.83934315900E+03  0.00000000000E+00 0.  1.
          1   -1    0    0  501    0  0.00000000000E+00 -0.00000000000E+00 -0.23972419431E+04  0.23972419431E+04  0.00000000000E+00 0. -1.
         23    2    1    2    0    0 -0.68855799252E+03  0.12369725204E+04 -0.84902359299E+03  0.16533235439E+04  0.91785368742E+02 0.  0.
         11    1    3    3    0    0 -0.31759388673E+03  0.53653501365E+03 -0.32451902120E+03  0.70288568977E+03  0.00000000000E+00 0.  1.
        -11    1    3    3    0    0 -0.37096410579E+03  0.70043750676E+03 -0.52450457179E+03  0.95043785409E+03  0.00000000000E+00 0. -1.
         22    1    1    2    0    0  0.68855799252E+03 -0.12369725204E+04 -0.70887519115E+03  0.15832615583E+04  0.00000000000E+00 0. -1.
<mgrwt>
<rscale>  0 0.28369763E+04</rscale>
<asrwt>0</asrwt>
<pdfrwt beam="1">  1        1 0.36880645E+00 0.28369763E+04</pdfrwt>
<pdfrwt beam="2">  1       -1 0.12912972E+00 0.28369763E+04</pdfrwt>
<totfact> 0.71005864E-01</totfact>
</mgrwt>
</event>
<event>
 6    1  0.1072514E-005  0.1979354E+04  0.7818608E-02  0.8616335E-01
          2   -1    0    0  501    0  0.00000000000E+00  0.00000000000E+00  0.12488430755E+04  0.12488430755E+04  0.00000000000E+00 0. -1.
         -2   -1    0    0    0  501 -0.00000000000E+00 -0.00000000000E+00 -0.78429409157E+03  0.78429409157E+03  0.00000000000E+00 0.  1.
         23    2    1    2    0    0 -0.86780033979E+03  0.23974172140E+03 -0.18427899468E+03  0.92339338196E+03  0.90238945288E+02 0.  0.
         13    1    3    3    0    0 -0.55655096879E+03  0.16609453498E+03 -0.16097505365E+03  0.60270170342E+03  0.00000000000E+00 0. -1.
        -13    1    3    3    0    0 -0.31124937100E+03  0.73647186424E+02 -0.23303941034E+02  0.32069167854E+03  0.00000000000E+00 0.  1.
         22    1    1    2    0    0  0.86780033979E+03 -0.23974172140E+03  0.64882797858E+03  0.11097437851E+04  0.00000000000E+00 0. -1.
<mgrwt>
<rscale>  0 0.19793537E+04</rscale>
<asrwt>0</asrwt>
<pdfrwt beam="1">  1        2 0.19212970E+00 0.19793537E+04</pdfrwt>
<pdfrwt beam="2">  1       -2 0.12066063E+00 0.19793537E+04</pdfrwt>
<totfact> 0.86368798E+00</totfact>
</mgrwt>
</event>
<event>
 6    1  0.1072514E-005  0.6445144E+03  0.7818608E-02  0.9817127E-01
         -1   -1    0    0    0  501 -0.00000000000E+00  0.00000000000E+00  0.34981822361E+02  0.34981822361E+02  0.00000000000E+00 0.  1.
          1   -1    0    0  501    0  0.00000000000E+00 -0.00000000000E+00 -0.29686757967E+04  0.29686757967E+04  0.00000000000E+00 0. -1.
         23    2    1    2    0    0 -0.12126281065E+03 -0.27362257695E+03 -0.19642897924E+04  0.19891042928E+04  0.92344546436E+02 0.  0.
         11    1    3    3    0    0  0.23642062107E+01 -0.67778639339E+02 -0.29916686885E+03  0.30675780160E+03  0.00000000000E+00 0. -1.
        -11    1    3    3    0    0 -0.12362701686E+03 -0.20584393761E+03 -0.16651229236E+04  0.16823464912E+04  0.00000000000E+00 0.  1.
         22    1    1    2    0    0  0.12126281065E+03  0.27362257695E+03 -0.96940418192E+03  0.10145533262E+04  0.00000000000E+00 0.  1.
<mgrwt>
<rscale>  0 0.64451436E+03</rscale>
<asrwt>0</asrwt>
<pdfrwt beam="1">  1        1 0.45671947E+00 0.64451436E+03</pdfrwt>
<pdfrwt beam="2">  1       -1 0.53818175E-02 0.64451436E+03</pdfrwt>
<totfact> 0.11181077E+02</totfact>
</mgrwt>
</event>
<event>
 6    1  0.1072514E-005  0.1514216E+04  0.7818608E-02  0.8875054E-01
         -1   -1    0    0    0  501 -0.00000000000E+00  0.00000000000E+00  0.16089093601E+04  0.16089093601E+04  0.00000000000E+00 0.  1.
          1   -1    0    0  501    0  0.00000000000E+00 -0.00000000000E+00 -0.35627415864E+03  0.35627415864E+03  0.00000000000E+00 0. -1.
         23    2    1    2    0    0 -0.42294472912E+03 -0.11387631436E+03  0.14255757886E+04  0.14942711006E+04  0.93433046963E+02 0.  0.
         13    1    3    3    0    0 -0.22926671310E+03 -0.39411483212E+02  0.61407884945E+03  0.65666530598E+03  0.00000000000E+00 0.  1.
        -13    1    3    3    0    0 -0.19367801603E+03 -0.74464831152E+02  0.81149693913E+03  0.83760579462E+03  0.00000000000E+00 0. -1.
         22    1    1    2    0    0  0.42294472912E+03  0.11387631436E+03 -0.17294058712E+03  0.47091241812E+03  0.00000000000E+00 0.  1.
<mgrwt>
<rscale>  0 0.15142164E+04</rscale>
<asrwt>0</asrwt>
<pdfrwt beam="1">  1        1 0.54811410E-01 0.15142164E+04</pdfrwt>
<pdfrwt beam="2">  1       -1 0.24752451E+00 0.15142164E+04</pdfrwt>
<totfact> 0.48944918E+00</totfact>
</mgrwt>
</event>
<event>
 6    1  0.1072514E-005  0.4617692E+04  0.7818608E-02  0.7890350E-01
          1   -1    0    0  501    0  0.00000000000E+00  0.00000000000E+00  0.12591858149E+04  0.12591858149E+04  0.00000000000E+00 0. -1.
         -1   -1    0    0    0  501 -0.00000000000E+00 -0.00000000000E+00 -0.42335053036E+04  0.42335053036E+04  0.00000000000E+00 0.  1.
         23    2    1    2    0    0  0.36849226085E+03  0.15160087063E+04  0.53523986009E+03  0.16519781942E+04  0.92093986561E+02 0.  0.
         13    1    3    3    0    0  0.10412741423E+02  0.12215812264E+03  0.59453838107E+02  0.13625634288E+03  0.00000000000E+00 0. -1.
        -13    1    3    3    0    0  0.35807951943E+03  0.13938505837E+04  0.47578602198E+03  0.15157218513E+04  0.00000000000E+00 0.  1.
         22    1    1    2    0    0 -0.36849226085E+03 -0.15160087063E+04 -0.35095593488E+04  0.38407129243E+04  0.00000000000E+00 0.  1.
<mgrwt>
<rscale>  0 0.46176920E+04</rscale>
<asrwt>0</asrwt>
<pdfrwt beam="1">  1        1 0.19372090E+00 0.46176920E+04</pdfrwt>
<pdfrwt beam="2">  1       -1 0.65130850E+00 0.46176920E+04</pdfrwt>
<totfact> 0.21020065E-03</totfact>
</mgrwt>
</event>
<event>
 6    1  0.1072514E-005  0.3072342E+04  0.7818608E-02  0.8223370E-01
         -1   -1    0    0    0  501 -0.00000000000E+00  0.00000000000E+00  0.10179978063E+04  0.10179978063E+04  0.00000000000E+00 0.  1.
          1   -1    0    0  501    0  0.00000000000E+00 -0.00000000000E+00 -0.23181003557E+04  0.23181003557E+04  0.00000000000E+00 0. -1.
         23    2    1    2    0    0  0.14964399664E+04 -0.27973709425E+03 -0.43894432492E+03  0.15870473043E+04  0.91987015016E+02 0.  0.
         11    1    3    3    0    0  0.10005292972E+04 -0.22951368422E+03 -0.30672614940E+03  0.10713619074E+04  0.00000000000E+00 0. -1.
        -11    1    3    3    0    0  0.49591066917E+03 -0.50223410030E+02 -0.13221817553E+03  0.51568539697E+03  0.00000000000E+00 0.  1.
         22    1    1    2    0    0 -0.14964399664E+04  0.27973709425E+03 -0.86115822446E+03  0.17490508576E+04  0.00000000000E+00 0. -1.
<mgrwt>
<rscale>  0 0.30723418E+04</rscale>
<asrwt>0</asrwt>
<pdfrwt beam="1">  1        1 0.35663082E+00 0.30723418E+04</pdfrwt>
<pdfrwt beam="2">  1       -1 0.15661505E+00 0.30723418E+04</pdfrwt>
<totfact> 0.47435687E-01</totfact>
</mgrwt>
</event>
<event>
 6    1  0.1072514E-005  0.1420498E+04  0.7818608E-02  0.8939113E-01
          1   -1    0    0  501    0  0.00000000000E+00  0.00000000000E+00  0.31975052054E+04  0.31975052054E+04  0.00000000000E+00 0. -1.
         -1   -1    0    0    0  501 -0.00000000000E+00 -0.00000000000E+00 -0.15776473190E+03  0.15776473190E+03  0.00000000000E+00 0.  1.
         23    2    1    2    0    0 -0.22791539228E+03  0.67777197891E+02  0.30996443976E+04  0.31100605273E+04  0.90232572009E+02 0.  0.
         13    1    3    3    0    0 -0.12469999581E+03  0.71746456860E+02  0.21519638396E+04  0.21567674909E+04  0.00000000000E+00 0. -1.
        -13    1    3    3    0    0 -0.10321539647E+03 -0.39692589692E+01  0.94768055805E+03  0.95329303637E+03  0.00000000000E+00 0.  1.
         22    1    1    2    0    0  0.22791539228E+03 -0.67777197891E+02 -0.59903924201E+02  0.24520940995E+03  0.00000000000E+00 0.  1.
<mgrwt>
<rscale>  0 0.14204979E+04</rscale>
<asrwt>0</asrwt>
<pdfrwt beam="1">  1        1 0.49192383E+00 0.14204979E+04</pdfrwt>
<pdfrwt beam="2">  1       -1 0.24271500E-01 0.14204979E+04</pdfrwt>
<totfact> 0.61844363E+00</totfact>
</mgrwt>
</event>
<event>
 6    1  0.1072514E-005  0.1745146E+04  0.7818608E-02  0.8736027E-01
         -2   -1    0    0    0  501 -0.00000000000E+00  0.00000000000E+00  0.58377689069E+03  0.58377689069E+03  0.00000000000E+00 0.  1.
          2   -1    0    0  501    0  0.00000000000E+00 -0.00000000000E+00 -0.13042367331E+04  0.13042367331E+04  0.00000000000E+00 0. -1.
         23    2    1    2    0    0 -0.73605870860E+03  0.40495370377E+03 -0.60663670954E+03  0.10402367485E+04  0.91183720283E+02 0.  0.
         13    1    3    3    0    0 -0.50946017847E+03  0.24408354575E+03 -0.37058063721E+03  0.67561561515E+03  0.00000000000E+00 0. -1.
        -13    1    3    3    0    0 -0.22659853013E+03  0.16087015802E+03 -0.23605607232E+03  0.36462113334E+03  0.00000000000E+00 0.  1.
         22    1    1    2    0    0  0.73605870860E+03 -0.40495370377E+03 -0.11382313284E+03  0.84777687528E+03  0.00000000000E+00 0.  1.
<mgrwt>
<rscale>  0 0.17451456E+04</rscale>
<asrwt>0</asrwt>
<pdfrwt beam="1">  1        2 0.20065180E+00 0.17451456E+04</pdfrwt>
<pdfrwt beam="2">  1       -2 0.89811829E-01 0.17451456E+04</pdfrwt>
<totfact> 0.16553031E+01</totfact>
</mgrwt>
</event>
<event>
 6    1  0.1072514E-005  0.3203494E+04  0.7818608E-02  0.8187895E-01
         -2   -1    0    0    0  501 -0.00000000000E+00  0.00000000000E+00  0.14459181669E+04  0.14459181669E+04  0.00000000000E+00 0. -1.
          2   -1    0    0  501    0  0.00000000000E+00 -0.00000000000E+00 -0.17743702033E+04  0.17743702033E+04  0.00000000000E+00 0.  1.
         23    2    1    2    0    0 -0.86685712571E+01  0.11070776369E+04  0.99728940479E+03  0.14930691000E+04  0.94726671256E+02 0.  0.
         13    1    3    3    0    0  0.37205491956E+02  0.24322877453E+03  0.22562454282E+03  0.33384265712E+03  0.00000000000E+00 0.  1.
        -13    1    3    3    0    0 -0.45874063214E+02  0.86384886237E+03  0.77166486197E+03  0.11592264429E+04  0.00000000000E+00 0. -1.
         22    1    1    2    0    0  0.86685712571E+01 -0.11070776369E+04 -0.13257414412E+04  0.17272192702E+04  0.00000000000E+00 0.  1.
<mgrwt>
<rscale>  0 0.32034944E+04</rscale>
<asrwt>0</asrwt>
<pdfrwt beam="1">  1        2 0.27298003E+00 0.32034944E+04</pdfrwt>
<pdfrwt beam="2">  1       -2 0.22244895E+00 0.32034944E+04</pdfrwt>
<totfact> 0.71590114E-01</totfact>
</mgrwt>
</event>
<event>
 6    1  0.1072514E-005  0.2413213E+04  0.7818608E-02  0.8434573E-01
          1   -1    0    0  501    0  0.00000000000E+00  0.00000000000E+00  0.14975659024E+04  0.14975659024E+04  0.00000000000E+00 0. -1.
         -1   -1    0    0    0  501 -0.00000000000E+00 -0.00000000000E+00 -0.97217694503E+03  0.97217694503E+03  0.00000000000E+00 0.  1.
         23    2    1    2    0    0 -0.11996313869E+04 -0.26517961093E+02  0.15122794680E+03  0.12128358785E+04  0.91007196509E+02 0.  0.
         13    1    3    3    0    0 -0.53855803826E+03  0.11818158114E+02  0.10672504369E+03  0.54915814151E+03  0.00000000000E+00 0. -1.
        -13    1    3    3    0    0 -0.66107334859E+03 -0.38336119207E+02  0.44502903115E+02  0.66367773704E+03  0.00000000000E+00 0.  1.
         22    1    1    2    0    0  0.11996313869E+04  0.26517961093E+02  0.37416101056E+03  0.12569069689E+04  0.00000000000E+00 0.  1.
<mgrwt>
<rscale>  0 0.24132128E+04</rscale>
<asrwt>0</asrwt>
<pdfrwt beam="1">  1        1 0.23039475E+00 0.24132128E+04</pdfrwt>
<pdfrwt beam="2">  1       -1 0.14956568E+00 0.24132128E+04</pdfrwt>
<totfact> 0.20671155E+00</totfact>
</mgrwt>
</event>
<event>
 6    1  0.1072514E-005  0.1509602E+04  0.7818608E-02  0.8878093E-01
         -2   -1    0    0    0  501 -0.00000000000E+00  0.00000000000E+00  0.21427778472E+03  0.21427778472E+03  0.00000000000E+00 0.  1.
          2   -1    0    0  501    0  0.00000000000E+00 -0.00000000000E+00 -0.26588125687E+04  0.26588125687E+04  0.00000000000E+00 0. -1.
         23    2    1    2    0    0  0.24340776722E+03 -0.11335702970E+03 -0.25640043262E+04  0.25792024006E+04  0.77908157403E+02 0.  0.
         11    1    3    3    0    0  0.13666165920E+03 -0.20879536052E+02 -0.12333758884E+04  0.12410996923E+04  0.00000000000E+00 0.  1.
        -11    1    3    3    0    0  0.10674610801E+03 -0.92477493648E+02 -0.13306284378E+04  0.13381027083E+04  0.00000000000E+00 0. -1.
         22    1    1    2    0    0 -0.24340776722E+03  0.11335702970E+03  0.11946954221E+03  0.29388795287E+03  0.00000000000E+00 0.  1.
<mgrwt>
<rscale>  0 0.15096019E+04</rscale>
<asrwt>0</asrwt>
<pdfrwt beam="1">  1        2 0.40904810E+00 0.15096019E+04</pdfrwt>
<pdfrwt beam="2">  1       -2 0.32965812E-01 0.15096019E+04</pdfrwt>
<totfact> 0.23384125E+01</totfact>
</mgrwt>
</event>
<event>
 6    1  0.1072514E-005  0.2173808E+04  0.7818608E-02  0.8529410E-01
          2   -1    0    0  501    0  0.00000000000E+00  0.00000000000E+00  0.22007222239E+04  0.22007222239E+04  0.00000000000E+00 0. -1.
         -2   -1    0    0    0  501 -0.00000000000E+00 -0.00000000000E+00 -0.53680562585E+03  0.53680562585E+03  0.00000000000E+00 0.  1.
         23    2    1    2    0    0 -0.14610995092E+03 -0.83774142655E+03  0.16820691511E+04  0.18869466775E+04  0.89734714785E+02 0.  0.
         11    1    3    3    0    0 -0.25599910059E+02 -0.32718530597E+03  0.58054127557E+03  0.66688361239E+03  0.00000000000E+00 0. -1.
        -11    1    3    3    0    0 -0.12051004086E+03 -0.51055612059E+03  0.11015278755E+04  0.12200630651E+04  0.00000000000E+00 0.  1.
         22    1    1    2    0    0  0.14610995092E+03  0.83774142655E+03 -0.18152553015E+02  0.85058117232E+03  0.00000000000E+00 0.  1.
<mgrwt>
<rscale>  0 0.21738078E+04</rscale>
<asrwt>0</asrwt>
<pdfrwt beam="1">  1        2 0.33857264E+00 0.21738078E+04</pdfrwt>
<pdfrwt beam="2">  1       -2 0.82585482E-01 0.21738078E+04</pdfrwt>
<totfact> 0.60787483E+00</totfact>
</mgrwt>
</event>
<event>
 6    1  0.1072514E-005  0.1517074E+04  0.7818608E-02  0.8873178E-01
          2   -1    0    0  501    0  0.00000000000E+00  0.00000000000E+00  0.16539555373E+04  0.16539555373E+04  0.00000000000E+00 0. -1.
         -2   -1    0    0    0  501 -0.00000000000E+00 -0.00000000000E+00 -0.34788017315E+03  0.34788017315E+03  0.00000000000E+00 0.  1.
         23    2    1    2    0    0 -0.27599311895E+02 -0.51593775540E+03  0.13832444560E+04  0.14794292038E+04  0.91608156552E+02 0.  0.
         11    1    3    3    0    0 -0.10072436282E+02 -0.96085318092E+02  0.17083342354E+03  0.19625977918E+03  0.00000000000E+00 0.  1.
        -11    1    3    3    0    0 -0.17526875613E+02 -0.41985243731E+03  0.12124110325E+04  0.12831694246E+04  0.00000000000E+00 0. -1.
         22    1    1    2    0    0  0.27599311895E+02  0.51593775540E+03 -0.77169091899E+02  0.52240650667E+03  0.00000000000E+00 0.  1.
<mgrwt>
<rscale>  0 0.15170739E+04</rscale>
<asrwt>0</asrwt>
<pdfrwt beam="1">  1        2 0.25445469E+00 0.15170739E+04</pdfrwt>
<pdfrwt beam="2">  1       -2 0.53520028E-01 0.15170739E+04</pdfrwt>
<totfact> 0.33025364E+01</totfact>
</mgrwt>
</event>
<event>
 6    1  0.1072514E-005  0.4819657E+03  0.7818608E-02  0.1018596E+00
          1   -1    0    0  501    0  0.00000000000E+00  0.00000000000E+00  0.30123704655E+03  0.30123704655E+03  0.00000000000E+00 0. -1.
         -1   -1    0    0    0  501 -0.00000000000E+00 -0.00000000000E+00 -0.19278084393E+03  0.19278084393E+03  0.00000000000E+00 0.  1.
         23    2    1    2    0    0  0.76132620609E+02 -0.12481919814E+03 -0.12878657764E+03  0.21534219198E+03  0.91707518343E+02 0.  0.
         11    1    3    3    0    0  0.43199740420E+02 -0.39454513831E+02 -0.14263093202E+01  0.58522735687E+02  0.00000000000E+00 0.  1.
        -11    1    3    3    0    0  0.32932880188E+02 -0.85364684312E+02 -0.12736026832E+03  0.15681945629E+03  0.00000000000E+00 0. -1.
         22    1    1    2    0    0 -0.76132620609E+02  0.12481919814E+03  0.23724278026E+03  0.27867569849E+03  0.00000000000E+00 0. -1.
<mgrwt>
<rscale>  0 0.48196569E+03</rscale>
<asrwt>0</asrwt>
<pdfrwt beam="1">  1        1 0.46344161E-01 0.48196569E+03</pdfrwt>
<pdfrwt beam="2">  1       -1 0.29658591E-01 0.48196569E+03</pdfrwt>
<totfact> 0.91099766E+02</totfact>
</mgrwt>
</event>
<event>
 6    1  0.1072514E-005  0.1595732E+04  0.7818608E-02  0.8823175E-01
         -1   -1    0    0    0  501 -0.00000000000E+00  0.00000000000E+00  0.35285152148E+03  0.35285152148E+03  0.00000000000E+00 0.  1.
          1   -1    0    0  501    0  0.00000000000E+00 -0.00000000000E+00 -0.18041295955E+04  0.18041295955E+04  0.00000000000E+00 0. -1.
         23    2    1    2    0    0 -0.48434108287E+03 -0.51068322121E+03 -0.12282263540E+04  0.14186480575E+04  0.92944592763E+02 0.  0.
         11    1    3    3    0    0 -0.34823782612E+03 -0.38131764877E+03 -0.97604734585E+03  0.11042378159E+04  0.00000000000E+00 0. -1.
        -11    1    3    3    0    0 -0.13610325674E+03 -0.12936557244E+03 -0.25217900816E+03  0.31441024154E+03  0.00000000000E+00 0.  1.
         22    1    1    2    0    0  0.48434108287E+03  0.51068322121E+03 -0.22305172004E+03  0.73833305953E+03  0.00000000000E+00 0. -1.
<mgrwt>
<rscale>  0 0.15957316E+04</rscale>
<asrwt>0</asrwt>
<pdfrwt beam="1">  1        1 0.27755839E+00 0.15957316E+04</pdfrwt>
<pdfrwt beam="2">  1       -1 0.54284851E-01 0.15957316E+04</pdfrwt>
<totfact> 0.13316760E+01</totfact>
</mgrwt>
</event>
<event>
 6    1  0.1072514E-005  0.4974709E+04  0.7818608E-02  0.7832420E-01
          1   -1    0    0  501    0  0.00000000000E+00  0.00000000000E+00  0.39169529666E+04  0.39169529666E+04  0.00000000000E+00 0. -1.
         -1   -1    0    0    0  501 -0.00000000000E+00 -0.00000000000E+00 -0.15795271240E+04  0.15795271240E+04  0.00000000000E+00 0.  1.
         23    2    1    2    0    0 -0.24431396927E+04  0.38882599354E+03  0.14457325397E+04  0.28667968097E+04  0.90907428466E+02 0.  0.
         13    1    3    3    0    0 -0.14481591869E+04  0.26564901694E+03  0.89244074480E+03  0.17216808397E+04  0.00000000000E+00 0. -1.
        -13    1    3    3    0    0 -0.99498050580E+03  0.12317697660E+03  0.55329179491E+03  0.11451159700E+04  0.00000000000E+00 0.  1.
         22    1    1    2    0    0  0.24431396927E+04 -0.38882599354E+03  0.89169330289E+03  0.26296832809E+04  0.00000000000E+00 0.  1.
<mgrwt>
<rscale>  0 0.49747094E+04</rscale>
<asrwt>0</asrwt>
<pdfrwt beam="1">  1        1 0.60260815E+00 0.49747094E+04</pdfrwt>
<pdfrwt beam="2">  1       -1 0.24300417E+00 0.49747094E+04</pdfrwt>
<totfact> 0.63337456E-03</totfact>
</mgrwt>
</event>
<event>
 6    1  0.1072514E-005  0.3003027E+04  0.7818608E-02  0.8242867E-01
         -2   -1    0    0    0  501 -0.00000000000E+00  0.00000000000E+00  0.97224571923E+03  0.97224571923E+03  0.00000000000E+00 0.  1.
          2   -1    0    0  501    0  0.00000000000E+00 -0.00000000000E+00 -0.23189015991E+04  0.23189015991E+04  0.00000000000E+00 0. -1.
         23    2    1    2    0    0  0.58809244464E+03  0.54977890932E+03  0.71365088400E+03  0.10791406425E+04  0.84482953958E+02 0.  0.
         13    1    3    3    0    0  0.44010492111E+03  0.45841108979E+03  0.56626081841E+03  0.85116648388E+03  0.00000000000E+00 0.  1.
        -13    1    3    3    0    0  0.14798752352E+03  0.91367819540E+02  0.14739006559E+03  0.22797415863E+03  0.00000000000E+00 0. -1.
         22    1    1    2    0    0 -0.58809244464E+03 -0.54977890932E+03 -0.20603067639E+04  0.22120066758E+04  0.00000000000E+00 0. -1.
<mgrwt>
<rscale>  0 0.30030266E+04</rscale>
<asrwt>0</asrwt>
<pdfrwt beam="1">  1        2 0.35675409E+00 0.30030266E+04</pdfrwt>
<pdfrwt beam="2">  1       -2 0.14957627E+00 0.30030266E+04</pdfrwt>
<totfact> 0.11425228E+00</totfact>
</mgrwt>
</event>
<event>
 6    1  0.1072514E-005  0.1285522E+04  0.7818608E-02  0.9041126E-01
          2   -1    0    0  501    0  0.00000000000E+00  0.00000000000E+00  0.45792088473E+03  0.45792088473E+03  0.00000000000E+00 0. -1.
         -2   -1    0    0    0  501 -0.00000000000E+00 -0.00000000000E+00 -0.90221133869E+03  0.90221133869E+03  0.00000000000E+00 0.  1.
         23    2    1    2    0    0 -0.39654883300E+03 -0.18588106586E+03 -0.71687059196E+03  0.84428081144E+03  0.84284609175E+02 0.  0.
         11    1    3    3    0    0 -0.10610646969E+03 -0.24699170959E+02 -0.23489248369E+03  0.25892684460E+03  0.00000000000E+00 0. -1.
        -11    1    3    3    0    0 -0.29044236331E+03 -0.16118189490E+03 -0.48197810827E+03  0.58535396684E+03  0.00000000000E+00 0.  1.
         22    1    1    2    0    0  0.39654883300E+03  0.18588106586E+03  0.27258013800E+03  0.51585141197E+03  0.00000000000E+00 0. -1.
<mgrwt>
<rscale>  0 0.12855216E+04</rscale>
<asrwt>0</asrwt>
<pdfrwt beam="1">  1        2 0.70449368E-01 0.12855216E+04</pdfrwt>
<pdfrwt beam="2">  1       -2 0.13880174E+00 0.12855216E+04</pdfrwt>
<totfact> 0.24545690E+01</totfact>
</mgrwt>
</event>
<event>
 6    1  0.1072514E-005  0.1048704E+04  0.7818608E-02  0.9256683E-01
          1   -1    0    0  501    0  0.00000000000E+00  0.00000000000E+00  0.44169518171E+03  0.44169518171E+03  0.00000000000E+00 0. -1.
         -1   -1    0    0    0  501 -0.00000000000E+00 -0.00000000000E+00 -0.62247641291E+03  0.62247641291E+03  0.00000000000E+00 0.  1.
         23    2    1    2    0    0 -0.37278058933E+03 -0.30299079889E+03  0.11195780273E+03  0.50161943350E+03  0.91206987050E+02 0.  0.
         11    1    3    3    0    0 -0.11563473059E+03 -0.13909794295E+03  0.14393154603E+02  0.18145740975E+03  0.00000000000E+00 0.  1.
        -11    1    3    3    0    0 -0.25714585874E+03 -0.16389285593E+03  0.97564648125E+02  0.32016202376E+03  0.00000000000E+00 0. -1.
         22    1    1    2    0    0  0.37278058933E+03  0.30299079889E+03 -0.29273903393E+03  0.56255216111E+03  0.00000000000E+00 0. -1.
<mgrwt>
<rscale>  0 0.10487036E+04</rscale>
<asrwt>0</asrwt>
<pdfrwt beam="1">  1        1 0.67953105E-01 0.10487036E+04</pdfrwt>
<pdfrwt beam="2">  1       -1 0.95765601E-01 0.10487036E+04</pdfrwt>
<totfact> 0.55238938E+01</totfact>
</mgrwt>
</event>
<event>
 6    1  0.1072514E-005  0.5787186E+04  0.7818608E-02  0.7717363E-01
         -2   -1    0    0    0  501 -0.00000000000E+00  0.00000000000E+00  0.37257983740E+04  0.37257983740E+04  0.00000000000E+00 0.  1.
          2   -1    0    0  501    0  0.00000000000E+00 -0.00000000000E+00 -0.22472715960E+04  0.22472715960E+04  0.00000000000E+00 0. -1.
         23    2    1    2    0    0  0.10925345185E+04  0.13444107000E+02  0.35040816127E+04  0.36716172100E+04  0.91501747283E+02 0.  0.
         13    1    3    3    0    0  0.76446678627E+03 -0.29606570004E+02  0.24974677286E+04  0.26120166676E+04  0.00000000000E+00 0. -1.
        -13    1    3    3    0    0  0.32806773220E+03  0.43050677005E+02  0.10066138842E+04  0.10596005424E+04  0.00000000000E+00 0.  1.
         22    1    1    2    0    0 -0.10925345185E+04 -0.13444107000E+02 -0.20255548347E+04  0.23014527600E+04  0.00000000000E+00 0. -1.
<mgrwt>
<rscale>  0 0.57871861E+04</rscale>
<asrwt>0</asrwt>
<pdfrwt beam="1">  1        2 0.34573409E+00 0.57871861E+04</pdfrwt>
<pdfrwt beam="2">  1       -2 0.57319975E+00 0.57871861E+04</pdfrwt>
<totfact> 0.22301438E-03</totfact>
</mgrwt>
</event>
<event>
 6    1  0.1072514E-005  0.8459891E+03  0.7818608E-02  0.9495736E-01
         -1   -1    0    0    0  501 -0.00000000000E+00  0.00000000000E+00  0.14536659186E+03  0.14536659186E+03  0.00000000000E+00 0.  1.
          1   -1    0    0  501    0  0.00000000000E+00 -0.00000000000E+00 -0.12308494296E+04  0.12308494296E+04  0.00000000000E+00 0. -1.
         23    2    1    2    0    0 -0.40180318586E+03 -0.10377189017E+03 -0.46207037391E+03  0.62731181836E+03  0.88298820217E+02 0.  0.
         11    1    3    3    0    0 -0.14000952921E+03 -0.64597337921E+01 -0.11157640341E+03  0.17914711895E+03  0.00000000000E+00 0. -1.
        -11    1    3    3    0    0 -0.26179365665E+03 -0.97312156374E+02 -0.35049397050E+03  0.44816469941E+03  0.00000000000E+00 0.  1.
         22    1    1    2    0    0  0.40180318586E+03  0.10377189017E+03 -0.62341246382E+03  0.74890420309E+03  0.00000000000E+00 0. -1.
<mgrwt>
<rscale>  0 0.84598909E+03</rscale>
<asrwt>0</asrwt>
<pdfrwt beam="1">  1        1 0.18936145E+00 0.84598909E+03</pdfrwt>
<pdfrwt beam="2">  1       -1 0.22364091E-01 0.84598909E+03</pdfrwt>
<totfact> 0.17349055E+02</totfact>
</mgrwt>
</event>
<event>
 6    1  0.1072514E-005  0.2160828E+04  0.7818608E-02  0.8534911E-01
          2   -1    0    0  501    0  0.00000000000E+00  0.00000000000E+00  0.19722793078E+04  0.19722793078E+04  0.00000000000E+00 0. -1.
         -2   -1    0    0    0  501 -0.00000000000E+00 -0.00000000000E+00 -0.59185058634E+03  0.59185058634E+03  0.00000000000E+00 0.  1.
         23    2    1    2    0    0  0.69843099152E+03 -0.70307965076E+02  0.16630348787E+04  0.18074164081E+04  0.91214060830E+02 0.  0.
         13    1    3    3    0    0  0.25223122654E+03 -0.67007081505E+02  0.65208482107E+03  0.70237109457E+03  0.00000000000E+00 0.  1.
        -13    1    3    3    0    0  0.44619976498E+03 -0.33008835705E+01  0.10109500576E+04  0.11050453136E+04  0.00000000000E+00 0. -1.
         22    1    1    2    0    0 -0.69843099152E+03  0.70307965076E+02 -0.28260615717E+03  0.75671348603E+03  0.00000000000E+00 0.  1.
<mgrwt>
<rscale>  0 0.21608282E+04</rscale>
<asrwt>0</asrwt>
<pdfrwt beam="1">  1        2 0.30342758E+00 0.21608282E+04</pdfrwt>
<pdfrwt beam="2">  1       -2 0.91053937E-01 0.21608282E+04</pdfrwt>
<totfact> 0.65299029E+00</totfact>
</mgrwt>
</event>
<event>
 6    1  0.1072514E-005  0.3087623E+04  0.7818608E-02  0.8219143E-01
          2   -1    0    0  501    0  0.00000000000E+00  0.00000000000E+00  0.45426281977E+04  0.45426281977E+04  0.00000000000E+00 0. -1.
         -2   -1    0    0    0  501 -0.00000000000E+00 -0.00000000000E+00 -0.52466395932E+03  0.52466395932E+03  0.00000000000E+00 0.  1.
         23    2    1    2    0    0  0.56261725983E+01 -0.14134044801E+04  0.99708761178E+03  0.17321100823E+04  0.90982159939E+02 0.  0.
         11    1    3    3    0    0  0.95742500330E+01 -0.13519278855E+04  0.97419697950E+03  0.16663914392E+04  0.00000000000E+00 0.  1.
        -11    1    3    3    0    0 -0.39480774347E+01 -0.61476594680E+02  0.22890632280E+02  0.65718643132E+02  0.00000000000E+00 0. -1.
         22    1    1    2    0    0 -0.56261725983E+01  0.14134044801E+04  0.30208766266E+04  0.33351820747E+04  0.00000000000E+00 0. -1.
<mgrwt>
<rscale>  0 0.30876226E+04</rscale>
<asrwt>0</asrwt>
<pdfrwt beam="1">  1        2 0.69886585E+00 0.30876226E+04</pdfrwt>
<pdfrwt beam="2">  1       -2 0.80717535E-01 0.30876226E+04</pdfrwt>
<totfact> 0.12838111E-01</totfact>
</mgrwt>
</event>
<event>
 6    1  0.1072514E-005  0.2706615E+04  0.7818608E-02  0.8332862E-01
         -2   -1    0    0    0  501 -0.00000000000E+00  0.00000000000E+00  0.10619518353E+04  0.10619518353E+04  0.00000000000E+00 0.  1.
          2   -1    0    0  501    0  0.00000000000E+00 -0.00000000000E+00 -0.17245996611E+04  0.17245996611E+04  0.00000000000E+00 0. -1.
         23    2    1    2    0    0  0.42075526857E+03  0.90922979513E+03 -0.12659587349E+04  0.16170567896E+04  0.92126684924E+02 0.  0.
         11    1    3    3    0    0  0.24511869774E+03  0.47291817223E+03 -0.73525531712E+03  0.90792904731E+03  0.00000000000E+00 0.  1.
        -11    1    3    3    0    0  0.17563657083E+03  0.43631162290E+03 -0.53070341775E+03  0.70912774230E+03  0.00000000000E+00 0. -1.
         22    1    1    2    0    0 -0.42075526857E+03 -0.90922979513E+03  0.60331090901E+03  0.11694947068E+04  0.00000000000E+00 0.  1.
<mgrwt>
<rscale>  0 0.27066154E+04</rscale>
<asrwt>0</asrwt>
<pdfrwt beam="1">  1        2 0.26532302E+00 0.27066154E+04</pdfrwt>
<pdfrwt beam="2">  1       -2 0.16337721E+00 0.27066154E+04</pdfrwt>
<totfact> 0.19825284E+00</totfact>
</mgrwt>
</event>
<event>
 6    1  0.1072514E-005  0.3022035E+04  0.7818608E-02  0.8237467E-01
          1   -1    0    0  501    0  0.00000000000E+00  0.00000000000E+00  0.12487826334E+04  0.12487826334E+04  0.00000000000E+00 0. -1.
         -1   -1    0    0    0  501 -0.00000000000E+00 -0.00000000000E+00 -0.18283195868E+04  0.18283195868E+04  0.00000000000E+00 0.  1.
         23    2    1    2    0    0 -0.65236925154E+03 -0.26248744414E+03  0.10701940544E+04  0.12837540396E+04  0.90685288018E+02 0.  0.
         13    1    3    3    0    0 -0.18892867895E+03 -0.87054614931E+02  0.24707262501E+03  0.32298209508E+03  0.00000000000E+00 0. -1.
        -13    1    3    3    0    0 -0.46344057260E+03 -0.17543282921E+03  0.82312142943E+03  0.96077194457E+03  0.00000000000E+00 0.  1.
         22    1    1    2    0    0  0.65236925154E+03  0.26248744414E+03 -0.16497310078E+04  0.17933481806E+04  0.00000000000E+00 0.  1.
<mgrwt>
<rscale>  0 0.30220349E+04</rscale>
<asrwt>0</asrwt>
<pdfrwt beam="1">  1        1 0.19212040E+00 0.30220349E+04</pdfrwt>
<pdfrwt beam="2">  1       -1 0.28127994E+00 0.30220349E+04</pdfrwt>
<totfact> 0.36520918E-01</totfact>
</mgrwt>
</event>
<event>
 6    1  0.1072514E-005  0.2606867E+04  0.7818608E-02  0.8365872E-01
         -2   -1    0    0    0  501 -0.00000000000E+00  0.00000000000E+00  0.85255787597E+03  0.85255787597E+03  0.00000000000E+00 0.  1.
          2   -1    0    0  501    0  0.00000000000E+00 -0.00000000000E+00 -0.19927545701E+04  0.19927545701E+04  0.00000000000E+00 0. -1.
         23    2    1    2    0    0  0.21289795970E+03  0.95803253889E+03  0.36269459296E+03  0.10503656202E+04  0.92567173156E+02 0.  0.
         13    1    3    3    0    0  0.14280967823E+03  0.69036058291E+03  0.30283508348E+03  0.76726880975E+03  0.00000000000E+00 0. -1.
        -13    1    3    3    0    0  0.70088281464E+02  0.26767195598E+03  0.59859509476E+02  0.28309681046E+03  0.00000000000E+00 0.  1.
         22    1    1    2    0    0 -0.21289795970E+03 -0.95803253889E+03 -0.15028912870E+04  0.17949468258E+04  0.00000000000E+00 0. -1.
<mgrwt>
<rscale>  0 0.26068668E+04</rscale>
<asrwt>0</asrwt>
<pdfrwt beam="1">  1        2 0.30657762E+00 0.26068668E+04</pdfrwt>
<pdfrwt beam="2">  1       -2 0.13116275E+00 0.26068668E+04</pdfrwt>
<totfact> 0.25314253E+00</totfact>
</mgrwt>
</event>
<event>
 6    1  0.1072514E-005  0.2524447E+04  0.7818608E-02  0.8394327E-01
          2   -1    0    0  501    0  0.00000000000E+00  0.00000000000E+00  0.89960495323E+03  0.89960495323E+03  0.00000000000E+00 0. -1.
         -2   -1    0    0    0  501 -0.00000000000E+00 -0.00000000000E+00 -0.17710092144E+04  0.17710092144E+04  0.00000000000E+00 0.  1.
         23    2    1    2    0    0  0.81885846678E+03  0.40730533865E+03  0.48155740224E+03  0.10375397388E+04  0.90356794631E+02 0.  0.
         13    1    3    3    0    0  0.52021335525E+03  0.27763529311E+03  0.35465263627E+03  0.68810012597E+03  0.00000000000E+00 0.  1.
        -13    1    3    3    0    0  0.29864511154E+03  0.12967004555E+03  0.12690476597E+03  0.34943961279E+03  0.00000000000E+00 0. -1.
         22    1    1    2    0    0 -0.81885846678E+03 -0.40730533865E+03 -0.13529616634E+04  0.16330744288E+04  0.00000000000E+00 0.  1.
<mgrwt>
<rscale>  0 0.25244474E+04</rscale>
<asrwt>0</asrwt>
<pdfrwt beam="1">  1        2 0.13840076E+00 0.25244474E+04</pdfrwt>
<pdfrwt beam="2">  1       -2 0.27246295E+00 0.25244474E+04</pdfrwt>
<totfact> 0.12225869E+00</totfact>
</mgrwt>
</event>
<event>
 6    1  0.1072514E-005  0.2090812E+04  0.7818608E-02  0.8565302E-01
          1   -1    0    0  501    0  0.00000000000E+00  0.00000000000E+00  0.16664024464E+04  0.16664024464E+04  0.00000000000E+00 0.  1.
         -1   -1    0    0    0  501 -0.00000000000E+00 -0.00000000000E+00 -0.65582806831E+03  0.65582806831E+03  0.00000000000E+00 0. -1.
         23    2    1    2    0    0 -0.65498150258E+03  0.73887334304E+03  0.88037803757E+03  0.13262959421E+04  0.95188503731E+02 0.  0.
         13    1    3    3    0    0 -0.36339023620E+03  0.43965840891E+03  0.56473077079E+03  0.80266607239E+03  0.00000000000E+00 0. -1.
        -13    1    3    3    0    0 -0.29159126638E+03  0.29921493413E+03  0.31564726678E+03  0.52362986971E+03  0.00000000000E+00 0.  1.
         22    1    1    2    0    0  0.65498150258E+03 -0.73887334304E+03  0.13019634048E+03  0.99593457257E+03  0.00000000000E+00 0. -1.
<mgrwt>
<rscale>  0 0.20908118E+04</rscale>
<asrwt>0</asrwt>
<pdfrwt beam="1">  1        1 0.25636961E+00 0.20908118E+04</pdfrwt>
<pdfrwt beam="2">  1       -1 0.10089663E+00 0.20908118E+04</pdfrwt>
<totfact> 0.43181497E+00</totfact>
</mgrwt>
</event>
<event>
 6    1  0.1072514E-005  0.2784741E+04  0.7818608E-02  0.8308021E-01
          1   -1    0    0  501    0  0.00000000000E+00  0.00000000000E+00  0.95417665128E+03  0.95417665128E+03  0.00000000000E+00 0. -1.
         -1   -1    0    0    0  501 -0.00000000000E+00 -0.00000000000E+00 -0.20317995510E+04  0.20317995510E+04  0.00000000000E+00 0.  1.
         23    2    1    2    0    0 -0.82933846108E+03 -0.20849487664E+02 -0.17365337815E+04  0.19265421391E+04  0.88193283566E+02 0.  0.
         11    1    3    3    0    0 -0.33398677511E+03  0.33525792888E+02 -0.72363110320E+03  0.79769237069E+03  0.00000000000E+00 0.  1.
        -11    1    3    3    0    0 -0.49535168597E+03 -0.54375280552E+02 -0.10129026783E+04  0.11288497684E+04  0.00000000000E+00 0. -1.
         22    1    1    2    0    0  0.82933846108E+03  0.20849487664E+02  0.65891088177E+03  0.10594340632E+04  0.00000000000E+00 0. -1.
<mgrwt>
<rscale>  0 0.27847411E+04</rscale>
<asrwt>0</asrwt>
<pdfrwt beam="1">  1        1 0.14679641E+00 0.27847411E+04</pdfrwt>
<pdfrwt beam="2">  1       -1 0.31258454E+00 0.27847411E+04</pdfrwt>
<totfact> 0.39001740E-01</totfact>
</mgrwt>
</event>
<event>
 6    1  0.1072514E-005  0.1870468E+04  0.7818608E-02  0.8669698E-01
         -2   -1    0    0    0  501 -0.00000000000E+00  0.00000000000E+00  0.24081942186E+03  0.24081942186E+03  0.00000000000E+00 0.  1.
          2   -1    0    0  501    0  0.00000000000E+00 -0.00000000000E+00 -0.36320264661E+04  0.36320264661E+04  0.00000000000E+00 0. -1.
         23    2    1    2    0    0  0.54610379604E+02 -0.30116979155E+03 -0.35244971824E+04  0.35390019157E+04  0.93640983218E+02 0.  0.
         13    1    3    3    0    0  0.41691228761E+02 -0.13732881475E+03 -0.21351221813E+04  0.21399402073E+04  0.00000000000E+00 0. -1.
        -13    1    3    3    0    0  0.12919150843E+02 -0.16384097680E+03 -0.13893750011E+04  0.13990617084E+04  0.00000000000E+00 0.  1.
         22    1    1    2    0    0 -0.54610379604E+02  0.30116979155E+03  0.13329013814E+03  0.33384397228E+03  0.00000000000E+00 0.  1.
<mgrwt>
<rscale>  0 0.18704679E+04</rscale>
<asrwt>0</asrwt>
<pdfrwt beam="1">  1        2 0.55877332E+00 0.18704679E+04</pdfrwt>
<pdfrwt beam="2">  1       -2 0.37049141E-01 0.18704679E+04</pdfrwt>
<totfact> 0.42555473E+00</totfact>
</mgrwt>
</event>
<event>
 6    1  0.1072514E-005  0.1331338E+04  0.7818608E-02  0.9005076E-01
         -2   -1    0    0    0  501 -0.00000000000E+00  0.00000000000E+00  0.97921025536E+03  0.97921025536E+03  0.00000000000E+00 0.  1.
          2   -1    0    0  501    0  0.00000000000E+00 -0.00000000000E+00 -0.45252326033E+03  0.45252326033E+03  0.00000000000E+00 0. -1.
         23    2    1    2    0    0  0.20879325166E+03 -0.13499966255E+03 -0.39580161722E+03  0.47632534609E+03  0.91691789738E+02 0.  0.
         11    1    3    3    0    0  0.11308169927E+02 -0.27910058800E+02 -0.10275210735E+03  0.10707400084E+03  0.00000000000E+00 0.  1.
        -11    1    3    3    0    0  0.19748508173E+03 -0.10708960375E+03 -0.29304950986E+03  0.36925134525E+03  0.00000000000E+00 0. -1.
         22    1    1    2    0    0 -0.20879325166E+03  0.13499966255E+03  0.92248861224E+03  0.95540816960E+03  0.00000000000E+00 0.  1.
<mgrwt>
<rscale>  0 0.13313383E+04</rscale>
<asrwt>0</asrwt>
<pdfrwt beam="1">  1        2 0.69618963E-01 0.13313383E+04</pdfrwt>
<pdfrwt beam="2">  1       -2 0.15064773E+00 0.13313383E+04</pdfrwt>
<totfact> 0.20000441E+01</totfact>
</mgrwt>
</event>
<event>
 6    1  0.1187079E-005  0.3729203E+04  0.7818608E-02  0.8061521E-01
         -2   -1    0    0    0  501 -0.00000000000E+00  0.00000000000E+00  0.13870225808E+04  0.13870225808E+04  0.00000000000E+00 0.  1.
          2   -1    0    0  501    0  0.00000000000E+00 -0.00000000000E+00 -0.25066201881E+04  0.25066201881E+04  0.00000000000E+00 0. -1.
         23    2    1    2    0    0  0.12849869839E+04  0.10053051992E+04 -0.15001427581E+04  0.22183384073E+04  0.93631737874E+02 0.  0.
         11    1    3    3    0    0  0.57867602864E+03  0.50009502695E+03 -0.66438598002E+03  0.10130990635E+04  0.00000000000E+00 0. -1.
        -11    1    3    3    0    0  0.70631095522E+03  0.50521017229E+03 -0.83575677805E+03  0.12052393437E+04  0.00000000000E+00 0.  1.
         22    1    1    2    0    0 -0.12849869839E+04 -0.10053051992E+04  0.38054515074E+03  0.16753043616E+04  0.00000000000E+00 0.  1.
<mgrwt>
<rscale>  0 0.37292030E+04</rscale>
<asrwt>0</asrwt>
<pdfrwt beam="1">  1        2 0.38563387E+00 0.37292030E+04</pdfrwt>
<pdfrwt beam="2">  1       -2 0.21338809E+00 0.37292030E+04</pdfrwt>
<totfact> 0.30304001E-01</totfact>
</mgrwt>
</event>
<event>
 6    1  0.1072514E-005  0.1285721E+04  0.7818608E-02  0.9040966E-01
          2   -1    0    0  501    0  0.00000000000E+00  0.00000000000E+00  0.21665645915E+04  0.21665645915E+04  0.00000000000E+00 0.  1.
         -2   -1    0    0    0  501 -0.00000000000E+00 -0.00000000000E+00 -0.19074875565E+03  0.19074875565E+03  0.00000000000E+00 0. -1.
         23    2    1    2    0    0 -0.50326341265E+03  0.20674228351E+03  0.16094749547E+04  0.17014001856E+04  0.91304585796E+02 0.  0.
         13    1    3    3    0    0 -0.35382023273E+03  0.15860047265E+03  0.12592175146E+04  0.13175627560E+04  0.00000000000E+00 0.  1.
        -13    1    3    3    0    0 -0.14944317992E+03  0.48141810866E+02  0.35025744016E+03  0.38383742960E+03  0.00000000000E+00 0. -1.
         22    1    1    2    0    0  0.50326341265E+03 -0.20674228351E+03  0.36634088114E+03  0.65591316155E+03  0.00000000000E+00 0. -1.
<mgrwt>
<rscale>  0 0.12857208E+04</rscale>
<asrwt>0</asrwt>
<pdfrwt beam="1">  1        2 0.33331761E+00 0.12857208E+04</pdfrwt>
<pdfrwt beam="2">  1       -2 0.29345964E-01 0.12857208E+04</pdfrwt>
<totfact> 0.56639319E+01</totfact>
</mgrwt>
</event>
<event>
 6    1  0.1072514E-005  0.1073459E+04  0.7818608E-02  0.9231454E-01
          2   -1    0    0  501    0  0.00000000000E+00  0.00000000000E+00  0.37271122983E+03  0.37271122983E+03  0.00000000000E+00 0. -1.
         -2   -1    0    0    0  501 -0.00000000000E+00 -0.00000000000E+00 -0.77292626434E+03  0.77292626434E+03  0.00000000000E+00 0.  1.
         23    2    1    2    0    0  0.13493827955E+03  0.50294810095E+03 -0.77867286033E+02  0.53320529180E+03  0.84139392857E+02 0.  0.
         11    1    3    3    0    0  0.33663448165E+02  0.56086083738E+02 -0.31703564003E+02  0.72691075807E+02  0.00000000000E+00 0. -1.
        -11    1    3    3    0    0  0.10127483139E+03  0.44686201722E+03 -0.46163722031E+02  0.46051421600E+03  0.00000000000E+00 0.  1.
         22    1    1    2    0    0 -0.13493827955E+03 -0.50294810095E+03 -0.32234774848E+03  0.61243220236E+03  0.00000000000E+00 0. -1.
<mgrwt>
<rscale>  0 0.10734585E+04</rscale>
<asrwt>0</asrwt>
<pdfrwt beam="1">  1        2 0.57340190E-01 0.10734585E+04</pdfrwt>
<pdfrwt beam="2">  1       -2 0.11891173E+00 0.10734585E+04</pdfrwt>
<totfact> 0.46491883E+01</totfact>
</mgrwt>
</event>
<event>
 6    1  0.1072514E-005  0.3912049E+03  0.7818608E-02  0.1046868E+00
         -2   -1    0    0    0  501 -0.00000000000E+00  0.00000000000E+00  0.37441240044E+02  0.37441240044E+02  0.00000000000E+00 0. -1.
          2   -1    0    0  501    0  0.00000000000E+00 -0.00000000000E+00 -0.10218764338E+04  0.10218764338E+04  0.00000000000E+00 0.  1.
         23    2    1    2    0    0  0.16711230449E+03 -0.26449421375E+02 -0.72050078372E+03  0.74580935337E+03  0.92109272258E+02 0.  0.
         13    1    3    3    0    0  0.85817782453E+02  0.19412091120E+02 -0.47670350878E+03  0.48475535722E+03  0.00000000000E+00 0. -1.
        -13    1    3    3    0    0  0.81294522039E+02 -0.45861512495E+02 -0.24379727494E+03  0.26105399616E+03  0.00000000000E+00 0.  1.
         22    1    1    2    0    0 -0.16711230449E+03  0.26449421375E+02 -0.26393441004E+03  0.31350832048E+03  0.00000000000E+00 0.  1.
<mgrwt>
<rscale>  0 0.39120491E+03</rscale>
<asrwt>0</asrwt>
<pdfrwt beam="1">  1        2 0.15721175E+00 0.39120491E+03</pdfrwt>
<pdfrwt beam="2">  1       -2 0.57601913E-02 0.39120491E+03</pdfrwt>
<totfact> 0.40289913E+03</totfact>
</mgrwt>
</event>
<event>
 6    1  0.1072514E-005  0.3681106E+04  0.7818608E-02  0.8072162E-01
          1   -1    0    0  501    0  0.00000000000E+00  0.00000000000E+00  0.20475519193E+04  0.20475519193E+04  0.00000000000E+00 0. -1.
         -1   -1    0    0    0  501 -0.00000000000E+00 -0.00000000000E+00 -0.16544804115E+04  0.16544804115E+04  0.00000000000E+00 0.  1.
         23    2    1    2    0    0  0.19997385744E+03  0.15073371417E+04 -0.84418716119E+03  0.17417099552E+04  0.94057443268E+02 0.  0.
         13    1    3    3    0    0  0.15750297936E+03  0.12947022011E+04 -0.68891245519E+03  0.14750123216E+04  0.00000000000E+00 0.  1.
        -13    1    3    3    0    0  0.42470878083E+02  0.21263494063E+03 -0.15527470599E+03  0.26669763363E+03  0.00000000000E+00 0. -1.
         22    1    1    2    0    0 -0.19997385744E+03 -0.15073371417E+04  0.12372586690E+04  0.19603223756E+04  0.00000000000E+00 0. -1.
<mgrwt>
<rscale>  0 0.36811056E+04</rscale>
<asrwt>0</asrwt>
<pdfrwt beam="1">  1        1 0.31500799E+00 0.36811056E+04</pdfrwt>
<pdfrwt beam="2">  1       -1 0.25453545E+00 0.36811056E+04</pdfrwt>
<totfact> 0.14478856E-01</totfact>
</mgrwt>
</event>
<event>
 6    1  0.1072514E-005  0.1698761E+04  0.7818608E-02  0.8762071E-01
         -1   -1    0    0    0  501 -0.00000000000E+00  0.00000000000E+00  0.38382760326E+03  0.38382760326E+03  0.00000000000E+00 0.  1.
          1   -1    0    0  501    0  0.00000000000E+00 -0.00000000000E+00 -0.18796122793E+04  0.18796122793E+04  0.00000000000E+00 0. -1.
         23    2    1    2    0    0 -0.63420615586E+03 -0.36547612860E+03 -0.13175180997E+04  0.15100679818E+04  0.93065126402E+02 0.  0.
         13    1    3    3    0    0 -0.32271489159E+03 -0.14284786894E+03 -0.57546562220E+03  0.67506377273E+03  0.00000000000E+00 0. -1.
        -13    1    3    3    0    0 -0.31149126427E+03 -0.22262825966E+03 -0.74205247753E+03  0.83500420904E+03  0.00000000000E+00 0.  1.
         22    1    1    2    0    0  0.63420615586E+03  0.36547612860E+03 -0.17826657635E+03  0.75337190082E+03  0.00000000000E+00 0.  1.
<mgrwt>
<rscale>  0 0.16987608E+04</rscale>
<asrwt>0</asrwt>
<pdfrwt beam="1">  1        1 0.28917112E+00 0.16987608E+04</pdfrwt>
<pdfrwt beam="2">  1       -1 0.59050401E-01 0.16987608E+04</pdfrwt>
<totfact> 0.99520144E+00</totfact>
</mgrwt>
</event>
<event>
 6    1  0.1072514E-005  0.1574009E+04  0.7818608E-02  0.8836676E-01
         -2   -1    0    0    0  501 -0.00000000000E+00  0.00000000000E+00  0.44599069783E+03  0.44599069783E+03  0.00000000000E+00 0.  1.
          2   -1    0    0  501    0  0.00000000000E+00 -0.00000000000E+00 -0.13887645413E+04  0.13887645413E+04  0.00000000000E+00 0. -1.
         23    2    1    2    0    0 -0.32135362173E+03 -0.70602956167E+03 -0.33843716350E+03  0.85140956496E+03  0.92804318450E+02 0.  0.
         13    1    3    3    0    0 -0.13934541166E+03 -0.22114357593E+03 -0.85398750416E+02  0.27498103843E+03  0.00000000000E+00 0.  1.
        -13    1    3    3    0    0 -0.18200821007E+03 -0.48488598574E+03 -0.25303841308E+03  0.57642852653E+03  0.00000000000E+00 0. -1.
         22    1    1    2    0    0  0.32135362173E+03  0.70602956167E+03 -0.60433667999E+03  0.98334567418E+03  0.00000000000E+00 0. -1.
<mgrwt>
<rscale>  0 0.15740090E+04</rscale>
<asrwt>0</asrwt>
<pdfrwt beam="1">  1        2 0.21365608E+00 0.15740090E+04</pdfrwt>
<pdfrwt beam="2">  1       -2 0.68613954E-01 0.15740090E+04</pdfrwt>
<totfact> 0.27401634E+01</totfact>
</mgrwt>
</event>
<event>
 6    1  0.1072514E-005  0.2913561E+04  0.7818608E-02  0.8268854E-01
          2   -1    0    0  501    0  0.00000000000E+00  0.00000000000E+00  0.29600904685E+04  0.29600904685E+04  0.00000000000E+00 0. -1.
         -2   -1    0    0    0  501 -0.00000000000E+00 -0.00000000000E+00 -0.71694090099E+03  0.71694090099E+03  0.00000000000E+00 0.  1.
         23    2    1    2    0    0  0.41687900064E+02  0.13929498115E+04  0.16524699764E+04  0.21634431039E+04  0.88215545238E+02 0.  0.
         11    1    3    3    0    0  0.68551746502E+02  0.10172387838E+04  0.12205006527E+04  0.15903131542E+04  0.00000000000E+00 0. -1.
        -11    1    3    3    0    0 -0.26863846439E+02  0.37571102770E+03  0.43196932364E+03  0.57312994961E+03  0.00000000000E+00 0.  1.
         22    1    1    2    0    0 -0.41687900064E+02 -0.13929498115E+04  0.59067959114E+03  0.15135882656E+04  0.00000000000E+00 0.  1.
<mgrwt>
<rscale>  0 0.29135613E+04</rscale>
<asrwt>0</asrwt>
<pdfrwt beam="1">  1        2 0.45539853E+00 0.29135613E+04</pdfrwt>
<pdfrwt beam="2">  1       -2 0.11029860E+00 0.29135613E+04</pdfrwt>
<totfact> 0.10371424E+00</totfact>
</mgrwt>
</event>
<event>
 6    1  0.1072514E-005  0.3189615E+04  0.7818608E-02  0.8191565E-01
         -1   -1    0    0    0  501 -0.00000000000E+00  0.00000000000E+00  0.11331078589E+04  0.11331078589E+04  0.00000000000E+00 0.  1.
          1   -1    0    0  501    0  0.00000000000E+00 -0.00000000000E+00 -0.22446323783E+04  0.22446323783E+04  0.00000000000E+00 0. -1.
         23    2    1    2    0    0  0.58021861768E+03 -0.14362328617E+04 -0.95246093213E+03  0.18205890879E+04  0.89130928873E+02 0.  0.
         11    1    3    3    0    0  0.45065798549E+02 -0.18031928971E+03 -0.98984225901E+02  0.21057979347E+03  0.00000000000E+00 0.  1.
        -11    1    3    3    0    0  0.53515281914E+03 -0.12559135720E+04 -0.85347670623E+03  0.16100092944E+04  0.00000000000E+00 0. -1.
         22    1    1    2    0    0 -0.58021861768E+03  0.14362328617E+04 -0.15906358725E+03  0.15571511494E+04  0.00000000000E+00 0.  1.
<mgrwt>
<rscale>  0 0.31896148E+04</rscale>
<asrwt>0</asrwt>
<pdfrwt beam="1">  1        1 0.34532805E+00 0.31896148E+04</pdfrwt>
<pdfrwt beam="2">  1       -1 0.17432429E+00 0.31896148E+04</pdfrwt>
<totfact> 0.38901152E-01</totfact>
</mgrwt>
</event>
<event>
 6    1  0.1072514E-005  0.1040196E+04  0.7818608E-02  0.9265525E-01
         -1   -1    0    0    0  501 -0.00000000000E+00  0.00000000000E+00  0.75091302893E+03  0.75091302893E+03  0.00000000000E+00 0.  1.
          1   -1    0    0  501    0  0.00000000000E+00 -0.00000000000E+00 -0.36023047489E+03  0.36023047489E+03  0.00000000000E+00 0. -1.
         23    2    1    2    0    0 -0.26990631050E+03 -0.25584133863E+03 -0.18662020782E+03  0.42442472160E+03  0.83696089137E+02 0.  0.
         13    1    3    3    0    0 -0.14516587056E+03 -0.19301756260E+03 -0.11994325833E+03  0.26965773615E+03  0.00000000000E+00 0.  1.
        -13    1    3    3    0    0 -0.12474043994E+03 -0.62823776034E+02 -0.66676949487E+02  0.15476698545E+03  0.00000000000E+00 0. -1.
         22    1    1    2    0    0  0.26990631050E+03  0.25584133863E+03  0.57730276186E+03  0.68671878222E+03  0.00000000000E+00 0.  1.
<mgrwt>
<rscale>  0 0.10401957E+04</rscale>
<asrwt>0</asrwt>
<pdfrwt beam="1">  1        1 0.55420073E-01 0.10401957E+04</pdfrwt>
<pdfrwt beam="2">  1       -1 0.11552508E+00 0.10401957E+04</pdfrwt>
<totfact> 0.46840817E+01</totfact>
</mgrwt>
</event>
<event>
 6    1  0.1072514E-005  0.6470611E+03  0.7818608E-02  0.9812310E-01
          1   -1    0    0  501    0  0.00000000000E+00  0.00000000000E+00  0.31401736166E+03  0.31401736166E+03  0.00000000000E+00 0. -1.
         -1   -1    0    0    0  501 -0.00000000000E+00 -0.00000000000E+00 -0.33333189131E+03  0.33333189131E+03  0.00000000000E+00 0.  1.
         23    2    1    2    0    0 -0.92081323116E+02 -0.14536890990E+03  0.25785069990E+03  0.32111060642E+03  0.83749316922E+02 0.  0.
         11    1    3    3    0    0 -0.26534170732E+02 -0.11147591203E+03  0.18362358738E+03  0.21644528875E+03  0.00000000000E+00 0. -1.
        -11    1    3    3    0    0 -0.65547152385E+02 -0.33892997875E+02  0.74227112513E+02  0.10466531767E+03  0.00000000000E+00 0.  1.
         22    1    1    2    0    0  0.92081323116E+02  0.14536890990E+03 -0.27716522954E+03  0.32623864655E+03  0.00000000000E+00 0.  1.
<mgrwt>
<rscale>  0 0.64706105E+03</rscale>
<asrwt>0</asrwt>
<pdfrwt beam="1">  1        1 0.48310363E-01 0.64706105E+03</pdfrwt>
<pdfrwt beam="2">  1       -1 0.51281830E-01 0.64706105E+03</pdfrwt>
<totfact> 0.32021216E+02</totfact>
</mgrwt>
</event>
<event>
 6    1  0.1072514E-005  0.1429624E+04  0.7818608E-02  0.8932650E-01
         -2   -1    0    0    0  501 -0.00000000000E+00  0.00000000000E+00  0.34812751047E+03  0.34812751047E+03  0.00000000000E+00 0. -1.
          2   -1    0    0  501    0  0.00000000000E+00 -0.00000000000E+00 -0.14677263930E+04  0.14677263930E+04  0.00000000000E+00 0.  1.
         23    2    1    2    0    0  0.40505831814E+03  0.46099004772E+03 -0.10204265212E+04  0.11942276311E+04  0.91242997860E+02 0.  0.
         13    1    3    3    0    0  0.17870316532E+03  0.23503464659E+03 -0.41218894686E+03  0.50702646313E+03  0.00000000000E+00 0.  1.
        -13    1    3    3    0    0  0.22635515282E+03  0.22595540112E+03 -0.60823757433E+03  0.68720116802E+03  0.00000000000E+00 0. -1.
         22    1    1    2    0    0 -0.40505831814E+03 -0.46099004772E+03 -0.99172361325E+02  0.62162627232E+03  0.00000000000E+00 0. -1.
<mgrwt>
<rscale>  0 0.14296236E+04</rscale>
<asrwt>0</asrwt>
<pdfrwt beam="1">  1        2 0.22580406E+00 0.14296236E+04</pdfrwt>
<pdfrwt beam="2">  1       -2 0.53558078E-01 0.14296236E+04</pdfrwt>
<totfact> 0.42235773E+01</totfact>
</mgrwt>
</event>
<event>
 6    1  0.1072514E-005  0.2312775E+04  0.7818608E-02  0.8472901E-01
          2   -1    0    0  501    0  0.00000000000E+00  0.00000000000E+00  0.18104962071E+04  0.18104962071E+04  0.00000000000E+00 0. -1.
         -2   -1    0    0    0  501 -0.00000000000E+00 -0.00000000000E+00 -0.73860000082E+03  0.73860000082E+03  0.00000000000E+00 0.  1.
         23    2    1    2    0    0  0.41925392227E+03 -0.10736321579E+04  0.61148580251E+03  0.13079525411E+04  0.91460927000E+02 0.  0.
         13    1    3    3    0    0  0.17797572166E+03 -0.58122341726E+03  0.31950986706E+03  0.68671870035E+03  0.00000000000E+00 0.  1.
        -13    1    3    3    0    0  0.24127820061E+03 -0.49240874068E+03  0.29197593545E+03  0.62123384074E+03  0.00000000000E+00 0. -1.
         22    1    1    2    0    0 -0.41925392227E+03  0.10736321579E+04  0.46041040381E+03  0.12411436669E+04  0.00000000000E+00 0. -1.
<mgrwt>
<rscale>  0 0.23127754E+04</rscale>
<asrwt>0</asrwt>
<pdfrwt beam="1">  1        2 0.27853788E+00 0.23127754E+04</pdfrwt>
<pdfrwt beam="2">  1       -2 0.11363077E+00 0.23127754E+04</pdfrwt>
<totfact> 0.46817370E+00</totfact>
</mgrwt>
</event>
<event>
 6    1  0.1072514E-005  0.2510099E+04  0.7818608E-02  0.8399397E-01
         -1   -1    0    0    0  501 -0.00000000000E+00  0.00000000000E+00  0.99307653694E+03  0.99307653694E+03  0.00000000000E+00 0.  1.
          1   -1    0    0  501    0  0.00000000000E+00 -0.00000000000E+00 -0.15861302223E+04  0.15861302223E+04  0.00000000000E+00 0. -1.
         23    2    1    2    0    0  0.11029818001E+04  0.48832933078E+03  0.53072268064E+02  0.12108087418E+04  0.90591152387E+02 0.  0.
         13    1    3    3    0    0  0.70314199051E+03  0.35831565809E+03  0.31120540173E+02  0.78978937551E+03  0.00000000000E+00 0.  1.
        -13    1    3    3    0    0  0.39983980956E+03  0.13001367269E+03  0.21951727890E+02  0.42101936624E+03  0.00000000000E+00 0. -1.
         22    1    1    2    0    0 -0.11029818001E+04 -0.48832933078E+03 -0.64612595343E+03  0.13683980175E+04  0.00000000000E+00 0. -1.
<mgrwt>
<rscale>  0 0.25100986E+04</rscale>
<asrwt>0</asrwt>
<pdfrwt beam="1">  1        1 0.24402003E+00 0.25100986E+04</pdfrwt>
<pdfrwt beam="2">  1       -1 0.15278101E+00 0.25100986E+04</pdfrwt>
<totfact> 0.16807183E+00</totfact>
</mgrwt>
</event>
<event>
 6    1  0.1072514E-005  0.5474629E+04  0.7818608E-02  0.7759190E-01
          1   -1    0    0  501    0  0.00000000000E+00  0.00000000000E+00  0.24156719577E+04  0.24156719577E+04  0.00000000000E+00 0. -1.
         -1   -1    0    0    0  501 -0.00000000000E+00 -0.00000000000E+00 -0.31017832596E+04  0.31017832596E+04  0.00000000000E+00 0.  1.
         23    2    1    2    0    0  0.14089521769E+04  0.21669027694E+04 -0.12491153916E+04  0.28721598739E+04  0.91647317136E+02 0.  0.
         13    1    3    3    0    0  0.62724252126E+03  0.96807369642E+03 -0.50699703195E+03  0.12600181953E+04  0.00000000000E+00 0. -1.
        -13    1    3    3    0    0  0.78170965561E+03  0.11988290730E+04 -0.74211835967E+03  0.16121416785E+04  0.00000000000E+00 0.  1.
         22    1    1    2    0    0 -0.14089521769E+04 -0.21669027694E+04  0.56300408980E+03  0.26452953434E+04  0.00000000000E+00 0. -1.
<mgrwt>
<rscale>  0 0.54746291E+04</rscale>
<asrwt>0</asrwt>
<pdfrwt beam="1">  1        1 0.37164184E+00 0.54746291E+04</pdfrwt>
<pdfrwt beam="2">  1       -1 0.47719742E+00 0.54746291E+04</pdfrwt>
<totfact> 0.22862758E-03</totfact>
</mgrwt>
</event>
<event>
 6    1  0.1072514E-005  0.3281861E+04  0.7818608E-02  0.8167526E-01
          2   -1    0    0  501    0  0.00000000000E+00  0.00000000000E+00  0.13505228302E+04  0.13505228302E+04  0.00000000000E+00 0.  1.
         -2   -1    0    0    0  501 -0.00000000000E+00 -0.00000000000E+00 -0.19937859989E+04  0.19937859989E+04  0.00000000000E+00 0. -1.
         23    2    1    2    0    0  0.10859206757E+04  0.12137659895E+04 -0.12853320326E+03  0.16362694477E+04  0.91680586930E+02 0.  0.
         11    1    3    3    0    0  0.67215657429E+03  0.77340446456E+03 -0.38913141366E+02  0.10254087764E+04  0.00000000000E+00 0. -1.
        -11    1    3    3    0    0  0.41376410137E+03  0.44036152497E+03 -0.89620061894E+02  0.61086067130E+03  0.00000000000E+00 0.  1.
         22    1    1    2    0    0 -0.10859206757E+04 -0.12137659895E+04 -0.51472996540E+03  0.17080393814E+04  0.00000000000E+00 0.  1.
<mgrwt>
<rscale>  0 0.32818614E+04</rscale>
<asrwt>0</asrwt>
<pdfrwt beam="1">  1        2 0.20777274E+00 0.32818614E+04</pdfrwt>
<pdfrwt beam="2">  1       -2 0.30673631E+00 0.32818614E+04</pdfrwt>
<totfact> 0.37344329E-01</totfact>
</mgrwt>
</event>
<event>
 6    1  0.1072514E-005  0.1835460E+04  0.7818608E-02  0.8687666E-01
          1   -1    0    0  501    0  0.00000000000E+00  0.00000000000E+00  0.16754471392E+04  0.16754471392E+04  0.00000000000E+00 0. -1.
         -1   -1    0    0    0  501 -0.00000000000E+00 -0.00000000000E+00 -0.50268853417E+03  0.50268853417E+03  0.00000000000E+00 0.  1.
         23    2    1    2    0    0  0.25894955996E+03  0.21438318594E+03 -0.42276494090E+03  0.54758042726E+03  0.89995022391E+02 0.  0.
         13    1    3    3    0    0  0.58084432780E+02  0.56283994472E+02 -0.48359395120E+02  0.94235452254E+02  0.00000000000E+00 0. -1.
        -13    1    3    3    0    0  0.20086512718E+03  0.15809919147E+03 -0.37440554577E+03  0.45334497501E+03  0.00000000000E+00 0.  1.
         22    1    1    2    0    0 -0.25894955996E+03 -0.21438318594E+03  0.15955235459E+04  0.16305552461E+04  0.00000000000E+00 0. -1.
<mgrwt>
<rscale>  0 0.18354597E+04</rscale>
<asrwt>0</asrwt>
<pdfrwt beam="1">  1        1 0.25776110E+00 0.18354597E+04</pdfrwt>
<pdfrwt beam="2">  1       -1 0.77336698E-01 0.18354597E+04</pdfrwt>
<totfact> 0.78105652E+00</totfact>
</mgrwt>
</event>
<event>
 6    1  0.1072514E-005  0.1629565E+04  0.7818608E-02  0.8802588E-01
         -1   -1    0    0    0  501 -0.00000000000E+00  0.00000000000E+00  0.53580063450E+03  0.53580063450E+03  0.00000000000E+00 0.  1.
          1   -1    0    0  501    0  0.00000000000E+00 -0.00000000000E+00 -0.12390257114E+04  0.12390257114E+04  0.00000000000E+00 0. -1.
         23    2    1    2    0    0 -0.53410761605E+03 -0.47889504979E+03 -0.76756169637E+03  0.10545829045E+04  0.91557252293E+02 0.  0.
         13    1    3    3    0    0 -0.20992119531E+03 -0.13081238152E+03 -0.25167998245E+03  0.35287618361E+03  0.00000000000E+00 0.  1.
        -13    1    3    3    0    0 -0.32418642074E+03 -0.34808266827E+03 -0.51588171393E+03  0.70170672087E+03  0.00000000000E+00 0. -1.
         22    1    1    2    0    0  0.53410761605E+03  0.47889504979E+03  0.64336619518E+02  0.72024344137E+03  0.00000000000E+00 0.  1.
<mgrwt>
<rscale>  0 0.16295653E+04</rscale>
<asrwt>0</asrwt>
<pdfrwt beam="1">  1        1 0.19061934E+00 0.16295653E+04</pdfrwt>
<pdfrwt beam="2">  1       -1 0.82430868E-01 0.16295653E+04</pdfrwt>
<totfact> 0.14016665E+01</totfact>
</mgrwt>
</event>
<event>
 6    1  0.1072514E-005  0.1325197E+04  0.7818608E-02  0.9009819E-01
          1   -1    0    0  501    0  0.00000000000E+00  0.00000000000E+00  0.24881080298E+04  0.24881080298E+04  0.00000000000E+00 0. -1.
         -1   -1    0    0    0  501 -0.00000000000E+00 -0.00000000000E+00 -0.17645415864E+03  0.17645415864E+03  0.00000000000E+00 0.  1.
         23    2    1    2    0    0 -0.17387782914E+03  0.17363989624E+03  0.23917754363E+04  0.24060979196E+04  0.91286078112E+02 0.  0.
         13    1    3    3    0    0 -0.13252401143E+02  0.69048523947E+02  0.60588452465E+03  0.60995031109E+03  0.00000000000E+00 0.  1.
        -13    1    3    3    0    0 -0.16062542800E+03  0.10459137230E+03  0.17858909117E+04  0.17961476085E+04  0.00000000000E+00 0. -1.
         22    1    1    2    0    0  0.17387782914E+03 -0.17363989624E+03 -0.80121565175E+02  0.25846426879E+03  0.00000000000E+00 0.  1.
<mgrwt>
<rscale>  0 0.13251974E+04</rscale>
<asrwt>0</asrwt>
<pdfrwt beam="1">  1        1 0.38278583E+00 0.13251974E+04</pdfrwt>
<pdfrwt beam="2">  1       -1 0.27146795E-01 0.13251974E+04</pdfrwt>
<totfact> 0.16521699E+01</totfact>
</mgrwt>
</event>
<event>
 6    1  0.1072514E-005  0.9209231E+03  0.7818608E-02  0.9399798E-01
          2   -1    0    0  501    0  0.00000000000E+00  0.00000000000E+00  0.86953693355E+03  0.86953693355E+03  0.00000000000E+00 0. -1.
         -2   -1    0    0    0  501 -0.00000000000E+00 -0.00000000000E+00 -0.24383651816E+03  0.24383651816E+03  0.00000000000E+00 0.  1.
         23    2    1    2    0    0  0.43683451249E+03 -0.84140576951E+02  0.43643085581E+03  0.62992025420E+03  0.91780208966E+02 0.  0.
         13    1    3    3    0    0  0.61678023502E+02 -0.21068678576E+02  0.25646537646E+02  0.70041506932E+02  0.00000000000E+00 0.  1.
        -13    1    3    3    0    0  0.37515648899E+03 -0.63071898375E+02  0.41078431817E+03  0.55987874727E+03  0.00000000000E+00 0. -1.
         22    1    1    2    0    0 -0.43683451249E+03  0.84140576951E+02  0.18926955958E+03  0.48345319750E+03  0.00000000000E+00 0. -1.
<mgrwt>
<rscale>  0 0.92092314E+03</rscale>
<asrwt>0</asrwt>
<pdfrwt beam="1">  1        2 0.13377491E+00 0.92092314E+03</pdfrwt>
<pdfrwt beam="2">  1       -2 0.37513311E-01 0.92092314E+03</pdfrwt>
<totfact> 0.20640251E+02</totfact>
</mgrwt>
</event>
<event>
 6    1  0.1072514E-005  0.3237759E+04  0.7818608E-02  0.8178916E-01
          2   -1    0    0  501    0  0.00000000000E+00  0.00000000000E+00  0.20150420359E+04  0.20150420359E+04  0.00000000000E+00 0. -1.
         -2   -1    0    0    0  501 -0.00000000000E+00 -0.00000000000E+00 -0.13006036420E+04  0.13006036420E+04  0.00000000000E+00 0.  1.
         23    2    1    2    0    0 -0.13542575768E+04  0.10441009891E+03  0.12569669562E+04  0.18530273770E+04  0.93965301455E+02 0.  0.
         11    1    3    3    0    0 -0.11924745288E+04  0.69045418976E+02  0.10749294004E+04  0.16069337222E+04  0.00000000000E+00 0.  1.
        -11    1    3    3    0    0 -0.16178304794E+03  0.35364679938E+02  0.18203755584E+03  0.24609365478E+03  0.00000000000E+00 0. -1.
         22    1    1    2    0    0  0.13542575768E+04 -0.10441009891E+03 -0.54252856236E+03  0.14626183009E+04  0.00000000000E+00 0.  1.
<mgrwt>
<rscale>  0 0.32377591E+04</rscale>
<asrwt>0</asrwt>
<pdfrwt beam="1">  1        2 0.31000647E+00 0.32377591E+04</pdfrwt>
<pdfrwt beam="2">  1       -2 0.20009287E+00 0.32377591E+04</pdfrwt>
<totfact> 0.73071160E-01</totfact>
</mgrwt>
</event>
<event>
 6    1  0.1072514E-005  0.2334403E+04  0.7818608E-02  0.8464479E-01
         -2   -1    0    0    0  501 -0.00000000000E+00  0.00000000000E+00  0.19012926890E+04  0.19012926890E+04  0.00000000000E+00 0.  1.
          2   -1    0    0  501    0  0.00000000000E+00 -0.00000000000E+00 -0.71654394366E+03  0.71654394366E+03  0.00000000000E+00 0. -1.
         23    2    1    2    0    0 -0.96964029503E+02 -0.57237040626E+03 -0.54016511903E+03  0.79785373590E+03  0.88217476117E+02 0.  0.
         13    1    3    3    0    0  0.13247137534E+02 -0.56436505422E+02 -0.36772089963E+02  0.68649489418E+02  0.00000000000E+00 0. -1.
        -13    1    3    3    0    0 -0.11021116704E+03 -0.51593390084E+03 -0.50339302907E+03  0.72920424648E+03  0.00000000000E+00 0.  1.
         22    1    1    2    0    0  0.96964029503E+02  0.57237040626E+03  0.17249138643E+04  0.18199828967E+04  0.00000000000E+00 0.  1.
<mgrwt>
<rscale>  0 0.23344034E+04</rscale>
<asrwt>0</asrwt>
<pdfrwt beam="1">  1        2 0.11023753E+00 0.23344034E+04</pdfrwt>
<pdfrwt beam="2">  1       -2 0.29250657E+00 0.23344034E+04</pdfrwt>
<totfact> 0.12703768E+00</totfact>
</mgrwt>
</event>
<event>
 6    1  0.1072514E-005  0.3779357E+04  0.7818608E-02  0.8050599E-01
          1   -1    0    0  501    0  0.00000000000E+00  0.00000000000E+00  0.33535089205E+04  0.33535089205E+04  0.00000000000E+00 0. -1.
         -1   -1    0    0    0  501 -0.00000000000E+00 -0.00000000000E+00 -0.10648207118E+04  0.10648207118E+04  0.00000000000E+00 0.  1.
         23    2    1    2    0    0 -0.99897759744E+02 -0.18286039192E+04  0.16844672198E+04  0.24898963669E+04  0.91554613795E+02 0.  0.
         11    1    3    3    0    0 -0.19167507100E+02 -0.11598552676E+04  0.10649825565E+04  0.15747442589E+04  0.00000000000E+00 0.  1.
        -11    1    3    3    0    0 -0.80730252643E+02 -0.66874865162E+03  0.61948466330E+03  0.91515210801E+03  0.00000000000E+00 0. -1.
         22    1    1    2    0    0  0.99897759744E+02  0.18286039192E+04  0.60422098891E+03  0.19284332655E+04  0.00000000000E+00 0.  1.
<mgrwt>
<rscale>  0 0.37793575E+04</rscale>
<asrwt>0</asrwt>
<pdfrwt beam="1">  1        1 0.51592445E+00 0.37793575E+04</pdfrwt>
<pdfrwt beam="2">  1       -1 0.16381857E+00 0.37793575E+04</pdfrwt>
<totfact> 0.70749336E-02</totfact>
</mgrwt>
</event>
<event>
 6    1  0.1072514E-005  0.3351550E+04  0.7818608E-02  0.8149901E-01
          2   -1    0    0  501    0  0.00000000000E+00  0.00000000000E+00  0.34339611886E+04  0.34339611886E+04  0.00000000000E+00 0.  1.
         -2   -1    0    0    0  501 -0.00000000000E+00 -0.00000000000E+00 -0.81777922072E+03  0.81777922072E+03  0.00000000000E+00 0. -1.
         23    2    1    2    0    0  0.12053239500E+04  0.11143195746E+04  0.17289780349E+04  0.23858238095E+04  0.90973984615E+02 0.  0.
         13    1    3    3    0    0  0.81173847708E+03  0.77277777413E+03  0.12360660187E+04  0.16685215150E+04  0.00000000000E+00 0. -1.
        -13    1    3    3    0    0  0.39358547295E+03  0.34154180045E+03  0.49291201618E+03  0.71730229448E+03  0.00000000000E+00 0.  1.
         22    1    1    2    0    0 -0.12053239500E+04 -0.11143195746E+04  0.88720393297E+03  0.18659165998E+04  0.00000000000E+00 0. -1.
<mgrwt>
<rscale>  0 0.33515502E+04</rscale>
<asrwt>0</asrwt>
<pdfrwt beam="1">  1        2 0.52830172E+00 0.33515502E+04</pdfrwt>
<pdfrwt beam="2">  1       -2 0.12581219E+00 0.33515502E+04</pdfrwt>
<totfact> 0.35403216E-01</totfact>
</mgrwt>
</event>
<event>
 6    1  0.1072514E-005  0.2717353E+04  0.7818608E-02  0.8329396E-01
         -2   -1    0    0    0  501 -0.00000000000E+00  0.00000000000E+00  0.11790518696E+04  0.11790518696E+04  0.00000000000E+00 0.  1.
          2   -1    0    0  501    0  0.00000000000E+00 -0.00000000000E+00 -0.15656665332E+04  0.15656665332E+04  0.00000000000E+00 0. -1.
         23    2    1    2    0    0 -0.13238140305E+04 -0.29889163404E+03 -0.17108219153E+03  0.13705735622E+04  0.85924251932E+02 0.  0.
         13    1    3    3    0    0 -0.40093919618E+03 -0.65468078605E+02 -0.82333396549E+02  0.41450825871E+03  0.00000000000E+00 0. -1.
        -13    1    3    3    0    0 -0.92287483429E+03 -0.23342355544E+03 -0.88748794985E+02  0.95606530353E+03  0.00000000000E+00 0.  1.
         22    1    1    2    0    0  0.13238140305E+04  0.29889163404E+03 -0.21553247204E+03  0.13741448405E+04  0.00000000000E+00 0.  1.
<mgrwt>
<rscale>  0 0.27173532E+04</rscale>
<asrwt>0</asrwt>
<pdfrwt beam="1">  1        2 0.24087177E+00 0.27173532E+04</pdfrwt>
<pdfrwt beam="2">  1       -2 0.18139260E+00 0.27173532E+04</pdfrwt>
<totfact> 0.18115542E+00</totfact>
</mgrwt>
</event>
<event>
 6    1  0.1072514E-005  0.7148445E+03  0.7818608E-02  0.9692178E-01
          2   -1    0    0  501    0  0.00000000000E+00  0.00000000000E+00  0.21977818411E+03  0.21977818411E+03  0.00000000000E+00 0. -1.
         -2   -1    0    0    0  501 -0.00000000000E+00 -0.00000000000E+00 -0.58127094191E+03  0.58127094191E+03  0.00000000000E+00 0.  1.
         23    2    1    2    0    0 -0.71198278865E+02  0.24076233182E+03 -0.45981011451E+03  0.53141604577E+03  0.89117770163E+02 0.  0.
         13    1    3    3    0    0 -0.17950827300E+02  0.16897416353E+03 -0.35568296594E+03  0.39418887909E+03  0.00000000000E+00 0.  1.
        -13    1    3    3    0    0 -0.53247451566E+02  0.71788168287E+02 -0.10412714857E+03  0.13722716668E+03  0.00000000000E+00 0. -1.
         22    1    1    2    0    0  0.71198278865E+02 -0.24076233182E+03  0.98317356716E+02  0.26963308025E+03  0.00000000000E+00 0. -1.
<mgrwt>
<rscale>  0 0.71484452E+03</rscale>
<asrwt>0</asrwt>
<pdfrwt beam="1">  1        2 0.33812029E-01 0.71484452E+03</pdfrwt>
<pdfrwt beam="2">  1       -2 0.89426297E-01 0.71484452E+03</pdfrwt>
<totfact> 0.16840414E+02</totfact>
</mgrwt>
</event>
<event>
 6    1  0.1072514E-005  0.1802767E+04  0.7818608E-02  0.8704829E-01
          1   -1    0    0  501    0  0.00000000000E+00  0.00000000000E+00  0.64481935807E+03  0.64481935807E+03  0.00000000000E+00 0. -1.
         -1   -1    0    0    0  501 -0.00000000000E+00 -0.00000000000E+00 -0.12600310300E+04  0.12600310300E+04  0.00000000000E+00 0.  1.
         23    2    1    2    0    0 -0.23184639998E+03  0.45111006066E+03  0.47609304177E+03  0.70143897954E+03  0.89994541949E+02 0.  0.
         13    1    3    3    0    0 -0.55275139540E+02  0.56584849501E+02  0.45159066723E+02  0.91085276261E+02  0.00000000000E+00 0. -1.
        -13    1    3    3    0    0 -0.17657126044E+03  0.39452521116E+03  0.43093397505E+03  0.61035370328E+03  0.00000000000E+00 0.  1.
         22    1    1    2    0    0  0.23184639998E+03 -0.45111006066E+03 -0.10913047137E+04  0.12034114085E+04  0.00000000000E+00 0.  1.
<mgrwt>
<rscale>  0 0.18027672E+04</rscale>
<asrwt>0</asrwt>
<pdfrwt beam="1">  1        1 0.99202979E-01 0.18027672E+04</pdfrwt>
<pdfrwt beam="2">  1       -1 0.19385093E+00 0.18027672E+04</pdfrwt>
<totfact> 0.48273320E+00</totfact>
</mgrwt>
</event>
<event>
 6    1  0.1072514E-005  0.1024272E+04  0.7818608E-02  0.9282317E-01
         -2   -1    0    0    0  501 -0.00000000000E+00  0.00000000000E+00  0.36595052627E+03  0.36595052627E+03  0.00000000000E+00 0.  1.
          2   -1    0    0  501    0  0.00000000000E+00 -0.00000000000E+00 -0.71671847376E+03  0.71671847376E+03  0.00000000000E+00 0. -1.
         23    2    1    2    0    0 -0.27078001185E+02 -0.37297043366E+03  0.18644739260E+03  0.42811534741E+03  0.93166291886E+02 0.  0.
         13    1    3    3    0    0 -0.22464443853E+02 -0.32730894611E+03  0.12425031968E+03  0.35081895528E+03  0.00000000000E+00 0. -1.
        -13    1    3    3    0    0 -0.46135573319E+01 -0.45661487553E+02  0.62197072916E+02  0.77296392129E+02  0.00000000000E+00 0.  1.
         22    1    1    2    0    0  0.27078001185E+02  0.37297043366E+03 -0.53721534009E+03  0.65455365262E+03  0.00000000000E+00 0. -1.
<mgrwt>
<rscale>  0 0.10242724E+04</rscale>
<asrwt>0</asrwt>
<pdfrwt beam="1">  1        2 0.11026438E+00 0.10242724E+04</pdfrwt>
<pdfrwt beam="2">  1       -2 0.56300082E-01 0.10242724E+04</pdfrwt>
<totfact> 0.11743382E+02</totfact>
</mgrwt>
</event>
<event>
 6    1  0.1072514E-005  0.2417401E+04  0.7818608E-02  0.8433018E-01
         -2   -1    0    0    0  501 -0.00000000000E+00  0.00000000000E+00  0.10770859452E+04  0.10770859452E+04  0.00000000000E+00 0.  1.
          2   -1    0    0  501    0  0.00000000000E+00 -0.00000000000E+00 -0.13563973489E+04  0.13563973489E+04  0.00000000000E+00 0. -1.
         23    2    1    2    0    0  0.22797341885E+03  0.63385489750E+03  0.86827543686E+03  0.11028069745E+04  0.92396309037E+02 0.  0.
         13    1    3    3    0    0  0.13816985495E+03  0.29725102892E+03  0.36333197493E+03  0.48934569276E+03  0.00000000000E+00 0. -1.
        -13    1    3    3    0    0  0.89803563898E+02  0.33660386858E+03  0.50494346193E+03  0.61346128172E+03  0.00000000000E+00 0.  1.
         22    1    1    2    0    0 -0.22797341885E+03 -0.63385489750E+03 -0.11475868406E+04  0.13306763196E+04  0.00000000000E+00 0. -1.
<mgrwt>
<rscale>  0 0.24174007E+04</rscale>
<asrwt>0</asrwt>
<pdfrwt beam="1">  1        2 0.20867652E+00 0.24174007E+04</pdfrwt>
<pdfrwt beam="2">  1       -2 0.16570553E+00 0.24174007E+04</pdfrwt>
<totfact> 0.31502414E+00</totfact>
</mgrwt>
</event>
<event>
 6    1  0.1072514E-005  0.1139141E+04  0.7818608E-02  0.9167860E-01
         -1   -1    0    0    0  501 -0.00000000000E+00  0.00000000000E+00  0.73617550101E+03  0.73617550101E+03  0.00000000000E+00 0.  1.
          1   -1    0    0  501    0  0.00000000000E+00 -0.00000000000E+00 -0.44067035570E+03  0.44067035570E+03  0.00000000000E+00 0. -1.
         23    2    1    2    0    0 -0.36891914020E+03 -0.27704432769E+03  0.48714648008E+03  0.67726473946E+03  0.92308952701E+02 0.  0.
         13    1    3    3    0    0 -0.30126139427E+03 -0.22857623970E+03  0.44498839883E+03  0.58396934862E+03  0.00000000000E+00 0. -1.
        -13    1    3    3    0    0 -0.67657745924E+02 -0.48468087991E+02  0.42158081254E+02  0.93295390840E+02  0.00000000000E+00 0.  1.
         22    1    1    2    0    0  0.36891914020E+03  0.27704432769E+03 -0.19164133477E+03  0.49958111724E+03  0.00000000000E+00 0. -1.
<mgrwt>
<rscale>  0 0.11391413E+04</rscale>
<asrwt>0</asrwt>
<pdfrwt beam="1">  1        1 0.67795439E-01 0.11391413E+04</pdfrwt>
<pdfrwt beam="2">  1       -1 0.11325777E+00 0.11391413E+04</pdfrwt>
<totfact> 0.37294622E+01</totfact>
</mgrwt>
</event>
<event>
 6    1  0.1072514E-005  0.1703281E+03  0.7818608E-02  0.1177506E+00
          2   -1    0    0  501    0  0.00000000000E+00  0.00000000000E+00  0.39007437966E+03  0.39007437966E+03  0.00000000000E+00 0.  1.
         -2   -1    0    0    0  501 -0.00000000000E+00 -0.00000000000E+00 -0.18593682246E+02  0.18593682246E+02  0.00000000000E+00 0. -1.
         23    2    1    2    0    0 -0.40838291973E+02 -0.23368907937E+02  0.15011131237E+03  0.18235350960E+03  0.92225400047E+02 0.  0.
         13    1    3    3    0    0 -0.55227695842E+02 -0.46186988892E+02  0.13035937040E+03  0.14891911154E+03  0.00000000000E+00 0.  1.
        -13    1    3    3    0    0  0.14389403870E+02  0.22818080955E+02  0.19751941968E+02  0.33434398061E+02  0.00000000000E+00 0. -1.
         22    1    1    2    0    0  0.40838291973E+02  0.23368907937E+02  0.22136938504E+03  0.22631455230E+03  0.00000000000E+00 0.  1.
<mgrwt>
<rscale>  0 0.17032814E+03</rscale>
<asrwt>0</asrwt>
<pdfrwt beam="1">  1        2 0.60011437E-01 0.17032814E+03</pdfrwt>
<pdfrwt beam="2">  1       -2 0.28605668E-02 0.17032814E+03</pdfrwt>
<totfact> 0.35452891E+04</totfact>
</mgrwt>
</event>
<event>
 6    1  0.1072514E-005  0.1949379E+04  0.7818608E-02  0.8630660E-01
          1   -1    0    0  501    0  0.00000000000E+00  0.00000000000E+00  0.25774115821E+04  0.25774115821E+04  0.00000000000E+00 0. -1.
         -1   -1    0    0    0  501 -0.00000000000E+00 -0.00000000000E+00 -0.36859434266E+03  0.36859434266E+03  0.00000000000E+00 0.  1.
         23    2    1    2    0    0 -0.88497227494E+03  0.23081652897E+03  0.16069056297E+04  0.18511316017E+04  0.89946131177E+02 0.  0.
         11    1    3    3    0    0 -0.36885491504E+03  0.55076305323E+02  0.61437506199E+03  0.71871000031E+03  0.00000000000E+00 0.  1.
        -11    1    3    3    0    0 -0.51611735990E+03  0.17574022364E+03  0.99253056769E+03  0.11324216013E+04  0.00000000000E+00 0. -1.
         22    1    1    2    0    0  0.88497227494E+03 -0.23081652897E+03  0.60191160978E+03  0.10948743231E+04  0.00000000000E+00 0.  1.
<mgrwt>
<rscale>  0 0.19493787E+04</rscale>
<asrwt>0</asrwt>
<pdfrwt beam="1">  1        1 0.39652485E+00 0.19493787E+04</pdfrwt>
<pdfrwt beam="2">  1       -1 0.56706824E-01 0.19493787E+04</pdfrwt>
<totfact> 0.35120817E+00</totfact>
</mgrwt>
</event>
<event>
 6    1  0.1072514E-005  0.2621263E+04  0.7818608E-02  0.8361014E-01
          1   -1    0    0  501    0  0.00000000000E+00  0.00000000000E+00  0.28150735462E+04  0.28150735462E+04  0.00000000000E+00 0. -1.
         -1   -1    0    0    0  501 -0.00000000000E+00 -0.00000000000E+00 -0.61019918058E+03  0.61019918058E+03  0.00000000000E+00 0.  1.
         23    2    1    2    0    0 -0.85252574730E+03 -0.75091354437E+03  0.19534755955E+04  0.22617123963E+04  0.92761849452E+02 0.  0.
         11    1    3    3    0    0 -0.34655685250E+03 -0.24550522049E+03  0.72927691474E+03  0.84393085243E+03  0.00000000000E+00 0.  1.
        -11    1    3    3    0    0 -0.50596889480E+03 -0.50540832388E+03  0.12241986807E+04  0.14177815439E+04  0.00000000000E+00 0. -1.
         22    1    1    2    0    0  0.85252574730E+03  0.75091354437E+03  0.25139877016E+03  0.11635603304E+04  0.00000000000E+00 0.  1.
<mgrwt>
<rscale>  0 0.26212635E+04</rscale>
<asrwt>0</asrwt>
<pdfrwt beam="1">  1        1 0.43308823E+00 0.26212635E+04</pdfrwt>
<pdfrwt beam="2">  1       -1 0.93876799E-01 0.26212635E+04</pdfrwt>
<totfact> 0.78568520E-01</totfact>
</mgrwt>
</event>
<event>
 6    1  0.1072514E-005  0.4834146E+04  0.7818608E-02  0.7854614E-01
         -1   -1    0    0    0  501 -0.00000000000E+00  0.00000000000E+00  0.16743793291E+04  0.16743793291E+04  0.00000000000E+00 0.  1.
          1   -1    0    0  501    0  0.00000000000E+00 -0.00000000000E+00 -0.34891978413E+04  0.34891978413E+04  0.00000000000E+00 0. -1.
         23    2    1    2    0    0  0.11163291772E+04 -0.50834513041E+03 -0.31312495008E+04  0.33642450301E+04  0.93891334269E+02 0.  0.
         11    1    3    3    0    0  0.51295266104E+03 -0.18238575721E+03 -0.13908354030E+04  0.14935890048E+04  0.00000000000E+00 0.  1.
        -11    1    3    3    0    0  0.60337651614E+03 -0.32595937320E+03 -0.17404140978E+04  0.18706560253E+04  0.00000000000E+00 0. -1.
         22    1    1    2    0    0 -0.11163291772E+04  0.50834513041E+03  0.13164309886E+04  0.17993321403E+04  0.00000000000E+00 0.  1.
<mgrwt>
<rscale>  0 0.48341455E+04</rscale>
<asrwt>0</asrwt>
<pdfrwt beam="1">  1        1 0.53679966E+00 0.48341455E+04</pdfrwt>
<pdfrwt beam="2">  1       -1 0.25759682E+00 0.48341455E+04</pdfrwt>
<totfact> 0.11581681E-02</totfact>
</mgrwt>
</event>
<event>
 6    1  0.1072514E-005  0.1483118E+04  0.7818608E-02  0.8895757E-01
          2   -1    0    0  501    0  0.00000000000E+00  0.00000000000E+00  0.11189161856E+04  0.11189161856E+04  0.00000000000E+00 0. -1.
         -2   -1    0    0    0  501 -0.00000000000E+00 -0.00000000000E+00 -0.49146643034E+03  0.49146643034E+03  0.00000000000E+00 0.  1.
         23    2    1    2    0    0 -0.44177500384E+03 -0.13025702285E+03 -0.31221173852E+03  0.56391437995E+03  0.91603560122E+02 0.  0.
         11    1    3    3    0    0 -0.32430740548E+03 -0.12681918480E+03 -0.26358792646E+03  0.43673446607E+03  0.00000000000E+00 0.  1.
        -11    1    3    3    0    0 -0.11746759836E+03 -0.34378380566E+01 -0.48623812066E+02  0.12717991388E+03  0.00000000000E+00 0. -1.
         22    1    1    2    0    0  0.44177500384E+03  0.13025702285E+03  0.93966149375E+03  0.10464682360E+04  0.00000000000E+00 0. -1.
<mgrwt>
<rscale>  0 0.14831180E+04</rscale>
<asrwt>0</asrwt>
<pdfrwt beam="1">  1        2 0.17214095E+00 0.14831180E+04</pdfrwt>
<pdfrwt beam="2">  1       -2 0.75610220E-01 0.14831180E+04</pdfrwt>
<totfact> 0.32184596E+01</totfact>
</mgrwt>
</event>
<event>
 6    1  0.1072514E-005  0.2940120E+04  0.7818608E-02  0.8261040E-01
          2   -1    0    0  501    0  0.00000000000E+00  0.00000000000E+00  0.20400350762E+04  0.20400350762E+04  0.00000000000E+00 0. -1.
         -2   -1    0    0    0  501 -0.00000000000E+00 -0.00000000000E+00 -0.10593329414E+04  0.10593329414E+04  0.00000000000E+00 0.  1.
         23    2    1    2    0    0 -0.16580453360E+02  0.14654982289E+04  0.59015964175E+03  0.15826335618E+04  0.92090269298E+02 0.  0.
         13    1    3    3    0    0 -0.13947957523E+02  0.13011345181E+04  0.49166502134E+03  0.13909996668E+04  0.00000000000E+00 0. -1.
        -13    1    3    3    0    0 -0.26324958371E+01  0.16436371081E+03  0.98494620410E+02  0.19163389501E+03  0.00000000000E+00 0.  1.
         22    1    1    2    0    0  0.16580453360E+02 -0.14654982289E+04  0.39054249307E+03  0.15167344558E+04  0.00000000000E+00 0. -1.
<mgrwt>
<rscale>  0 0.29401200E+04</rscale>
<asrwt>0</asrwt>
<pdfrwt beam="1">  1        2 0.31385155E+00 0.29401200E+04</pdfrwt>
<pdfrwt beam="2">  1       -2 0.16297430E+00 0.29401200E+04</pdfrwt>
<totfact> 0.13077786E+00</totfact>
</mgrwt>
</event>
<event>
 6    1  0.1072514E-005  0.2234493E+04  0.7818608E-02  0.8504207E-01
         -1   -1    0    0    0  501 -0.00000000000E+00  0.00000000000E+00  0.61716860712E+03  0.61716860712E+03  0.00000000000E+00 0.  1.
          1   -1    0    0  501    0  0.00000000000E+00 -0.00000000000E+00 -0.20225269091E+04  0.20225269091E+04  0.00000000000E+00 0. -1.
         23    2    1    2    0    0 -0.78921239126E+03 -0.73465143566E+03 -0.10410395429E+04  0.15015843228E+04  0.91778091374E+02 0.  0.
         11    1    3    3    0    0 -0.32552519074E+03 -0.34419288191E+03 -0.40955982873E+03  0.62623848738E+03  0.00000000000E+00 0. -1.
        -11    1    3    3    0    0 -0.46368720052E+03 -0.39045855375E+03 -0.63147971416E+03  0.87534583538E+03  0.00000000000E+00 0.  1.
         22    1    1    2    0    0  0.78921239126E+03  0.73465143566E+03 -0.36431875906E+03  0.11381111934E+04  0.00000000000E+00 0. -1.
<mgrwt>
<rscale>  0 0.22344933E+04</rscale>
<asrwt>0</asrwt>
<pdfrwt beam="1">  1        1 0.31115799E+00 0.22344933E+04</pdfrwt>
<pdfrwt beam="2">  1       -1 0.94949015E-01 0.22344933E+04</pdfrwt>
<totfact> 0.28029788E+00</totfact>
</mgrwt>
</event>
<event>
 6    1  0.1072514E-005  0.3822667E+03  0.7818608E-02  0.1050099E+00
         -3   -1    0    0    0  501 -0.00000000000E+00  0.00000000000E+00  0.90055800381E+02  0.90055800381E+02  0.00000000000E+00 0.  1.
          3   -1    0    0  501    0  0.00000000000E+00 -0.00000000000E+00 -0.40565919805E+03  0.40565919805E+03  0.00000000000E+00 0. -1.
         23    2    1    2    0    0 -0.39067556486E+02 -0.13952811452E+03 -0.30523596366E+03  0.35045023189E+03  0.93016142730E+02 0.  0.
         13    1    3    3    0    0  0.11190175924E+02 -0.86662176251E+02 -0.22820889105E+03  0.24436622268E+03  0.00000000000E+00 0.  1.
        -13    1    3    3    0    0 -0.50257732410E+02 -0.52865938269E+02 -0.77027072606E+02  0.10608400921E+03  0.00000000000E+00 0. -1.
         22    1    1    2    0    0  0.39067556486E+02  0.13952811452E+03 -0.10367434011E+02  0.14526476654E+03  0.00000000000E+00 0.  1.
<mgrwt>
<rscale>  0 0.38226673E+03</rscale>
<asrwt>0</asrwt>
<pdfrwt beam="1">  1        3 0.62409107E-01 0.38226673E+03</pdfrwt>
<pdfrwt beam="2">  1       -3 0.13854739E-01 0.38226673E+03</pdfrwt>
<totfact> 0.28058025E+02</totfact>
</mgrwt>
</event>
<event>
 6    1  0.1072514E-005  0.1741901E+04  0.7818608E-02  0.8737821E-01
          2   -1    0    0  501    0  0.00000000000E+00  0.00000000000E+00  0.10481894135E+04  0.10481894135E+04  0.00000000000E+00 0. -1.
         -2   -1    0    0    0  501 -0.00000000000E+00 -0.00000000000E+00 -0.72368072126E+03  0.72368072126E+03  0.00000000000E+00 0.  1.
         23    2    1    2    0    0 -0.75265006335E+02  0.74940301313E+03 -0.27751525484E+03  0.80765930196E+03  0.89605435673E+02 0.  0.
         13    1    3    3    0    0 -0.75757894218E+02  0.33143503104E+03 -0.10944051664E+03  0.35716335901E+03  0.00000000000E+00 0. -1.
        -13    1    3    3    0    0  0.49288788239E+00  0.41796798209E+03 -0.16807473820E+03  0.45049594295E+03  0.00000000000E+00 0.  1.
         22    1    1    2    0    0  0.75265006335E+02 -0.74940301313E+03  0.60202394710E+03  0.96421083283E+03  0.00000000000E+00 0. -1.
<mgrwt>
<rscale>  0 0.17419007E+04</rscale>
<asrwt>0</asrwt>
<pdfrwt beam="1">  1        2 0.16125991E+00 0.17419007E+04</pdfrwt>
<pdfrwt beam="2">  1       -2 0.11133550E+00 0.17419007E+04</pdfrwt>
<totfact> 0.14204839E+01</totfact>
</mgrwt>
</event>
<event>
 6    1  0.1072514E-005  0.3297019E+04  0.7818608E-02  0.8163654E-01
          2   -1    0    0  501    0  0.00000000000E+00  0.00000000000E+00  0.46061486788E+04  0.46061486788E+04  0.00000000000E+00 0. -1.
         -2   -1    0    0    0  501 -0.00000000000E+00 -0.00000000000E+00 -0.58999049594E+03  0.58999049594E+03  0.00000000000E+00 0.  1.
         23    2    1    2    0    0 -0.24079384545E+02 -0.15614361386E+04  0.11844007050E+04  0.19623313504E+04  0.96315456070E+02 0.  0.
         11    1    3    3    0    0 -0.22884725718E+02 -0.20277094758E+03  0.12337822023E+03  0.23845744501E+03  0.00000000000E+00 0.  1.
        -11    1    3    3    0    0 -0.11946588264E+01 -0.13586651910E+04  0.10610224848E+04  0.17238739054E+04  0.00000000000E+00 0. -1.
         22    1    1    2    0    0  0.24079384545E+02  0.15614361386E+04  0.28317574778E+04  0.32338078243E+04  0.00000000000E+00 0. -1.
<mgrwt>
<rscale>  0 0.32970192E+04</rscale>
<asrwt>0</asrwt>
<pdfrwt beam="1">  1        2 0.70863824E+00 0.32970192E+04</pdfrwt>
<pdfrwt beam="2">  1       -2 0.90767772E-01 0.32970192E+04</pdfrwt>
<totfact> 0.83060363E-02</totfact>
</mgrwt>
</event>
<event>
 6    1  0.1072514E-005  0.2149348E+03  0.7818608E-02  0.1137717E+00
         -3   -1    0    0    0  501 -0.00000000000E+00  0.00000000000E+00  0.75347805939E+02  0.75347805939E+02  0.00000000000E+00 0.  1.
          3   -1    0    0  501    0  0.00000000000E+00 -0.00000000000E+00 -0.15327907123E+03  0.15327907123E+03  0.00000000000E+00 0. -1.
         23    2    1    2    0    0  0.15991561396E+02 -0.67161171305E+02  0.10414521556E+02  0.11650493007E+03  0.93266197013E+02 0.  0.
         11    1    3    3    0    0 -0.13858043426E+02 -0.70658520272E+02 -0.18981962710E+02  0.74464667883E+02  0.00000000000E+00 0.  1.
        -11    1    3    3    0    0  0.29849604822E+02  0.34973489666E+01  0.29396484266E+02  0.42040262190E+02  0.00000000000E+00 0. -1.
         22    1    1    2    0    0 -0.15991561396E+02  0.67161171305E+02 -0.88345786848E+02  0.11212194710E+03  0.00000000000E+00 0. -1.
<mgrwt>
<rscale>  0 0.21493480E+03</rscale>
<asrwt>0</asrwt>
<pdfrwt beam="1">  1        3 0.23581395E-01 0.21493480E+03</pdfrwt>
<pdfrwt beam="2">  1       -3 0.11591970E-01 0.21493480E+03</pdfrwt>
<totfact> 0.23745562E+03</totfact>
</mgrwt>
</event>
<event>
 6    1  0.1072514E-005  0.1113178E+04  0.7818608E-02  0.9192442E-01
         -1   -1    0    0    0  501 -0.00000000000E+00  0.00000000000E+00  0.41467170367E+03  0.41467170367E+03  0.00000000000E+00 0.  1.
          1   -1    0    0  501    0  0.00000000000E+00 -0.00000000000E+00 -0.74707583459E+03  0.74707583459E+03  0.00000000000E+00 0. -1.
         23    2    1    2    0    0 -0.97892241145E+02  0.54029128820E+03 -0.23858152039E+03  0.60470153547E+03  0.85118964621E+02 0.  0.
         11    1    3    3    0    0 -0.38650427877E+02  0.31865411464E+03 -0.97910833331E+02  0.33559027345E+03  0.00000000000E+00 0. -1.
        -11    1    3    3    0    0 -0.59241813268E+02  0.22163717356E+03 -0.14067068706E+03  0.26911126201E+03  0.00000000000E+00 0.  1.
         22    1    1    2    0    0  0.97892241145E+02 -0.54029128820E+03 -0.93822610530E+02  0.55704600280E+03  0.00000000000E+00 0. -1.
<mgrwt>
<rscale>  0 0.11131778E+04</rscale>
<asrwt>0</asrwt>
<pdfrwt beam="1">  1        1 0.11493474E+00 0.11131778E+04</pdfrwt>
<pdfrwt beam="2">  1       -1 0.63795647E-01 0.11131778E+04</pdfrwt>
<totfact> 0.61149923E+01</totfact>
</mgrwt>
</event>
<event>
 6    1  0.1072514E-005  0.9770304E+03  0.7818608E-02  0.9334102E-01
         -2   -1    0    0    0  501 -0.00000000000E+00  0.00000000000E+00  0.25682270054E+03  0.25682270054E+03  0.00000000000E+00 0.  1.
          2   -1    0    0  501    0  0.00000000000E+00 -0.00000000000E+00 -0.92922901518E+03  0.92922901518E+03  0.00000000000E+00 0. -1.
         23    2    1    2    0    0 -0.40286750080E+03  0.25732828329E+03 -0.43368930608E+03  0.65172421431E+03  0.90210690762E+02 0.  0.
         11    1    3    3    0    0 -0.21717690698E+03  0.13026973455E+03 -0.28879037583E+03  0.38410401435E+03  0.00000000000E+00 0. -1.
        -11    1    3    3    0    0 -0.18569059382E+03  0.12705854874E+03 -0.14489893025E+03  0.26762019996E+03  0.00000000000E+00 0.  1.
         22    1    1    2    0    0  0.40286750080E+03 -0.25732828329E+03 -0.23871700857E+03  0.53432750141E+03  0.00000000000E+00 0.  1.
<mgrwt>
<rscale>  0 0.97703041E+03</rscale>
<asrwt>0</asrwt>
<pdfrwt beam="1">  1        2 0.14295831E+00 0.97703041E+03</pdfrwt>
<pdfrwt beam="2">  1       -2 0.39511184E-01 0.97703041E+03</pdfrwt>
<totfact> 0.16955430E+02</totfact>
</mgrwt>
</event>
<event>
 6    1  0.1072514E-005  0.1443529E+04  0.7818608E-02  0.8922899E-01
         -1   -1    0    0    0  501 -0.00000000000E+00  0.00000000000E+00  0.35970620239E+03  0.35970620239E+03  0.00000000000E+00 0.  1.
          1   -1    0    0  501    0  0.00000000000E+00 -0.00000000000E+00 -0.14482484373E+04  0.14482484373E+04  0.00000000000E+00 0. -1.
         23    2    1    2    0    0  0.63293906955E+03 -0.33593523220E+03 -0.62059187425E+03  0.95212645249E+03  0.89141242669E+02 0.  0.
         13    1    3    3    0    0  0.14107625931E+03 -0.46115599357E+02 -0.16321411289E+03  0.22060826388E+03  0.00000000000E+00 0. -1.
        -13    1    3    3    0    0  0.49186281024E+03 -0.28981963284E+03 -0.45737776136E+03  0.73151818861E+03  0.00000000000E+00 0.  1.
         22    1    1    2    0    0 -0.63293906955E+03  0.33593523220E+03 -0.46795036067E+03  0.85582818722E+03  0.00000000000E+00 0. -1.
<mgrwt>
<rscale>  0 0.14435289E+04</rscale>
<asrwt>0</asrwt>
<pdfrwt beam="1">  1        1 0.22280745E+00 0.14435289E+04</pdfrwt>
<pdfrwt beam="2">  1       -1 0.55339416E-01 0.14435289E+04</pdfrwt>
<totfact> 0.22799029E+01</totfact>
</mgrwt>
</event>
<event>
 6    1  0.1072514E-005  0.1094383E+04  0.7818608E-02  0.9210684E-01
         -1   -1    0    0    0  501 -0.00000000000E+00  0.00000000000E+00  0.20467613394E+03  0.20467613394E+03  0.00000000000E+00 0.  1.
          1   -1    0    0  501    0  0.00000000000E+00 -0.00000000000E+00 -0.14628892137E+04  0.14628892137E+04  0.00000000000E+00 0. -1.
         23    2    1    2    0    0  0.29492504986E+03  0.40162415845E+03 -0.96134185642E+03  0.10875521815E+04  0.10153242244E+03 0.  0.
         13    1    3    3    0    0  0.15319623604E+03  0.29046908405E+03 -0.62389404000E+03  0.70504265734E+03  0.00000000000E+00 0. -1.
        -13    1    3    3    0    0  0.14172881383E+03  0.11115507439E+03 -0.33744781642E+03  0.38250952411E+03  0.00000000000E+00 0.  1.
         22    1    1    2    0    0 -0.29492504986E+03 -0.40162415845E+03 -0.29687122330E+03  0.58001316615E+03  0.00000000000E+00 0.  1.
<mgrwt>
<rscale>  0 0.10943829E+04</rscale>
<asrwt>0</asrwt>
<pdfrwt beam="1">  1        1 0.22505988E+00 0.10943829E+04</pdfrwt>
<pdfrwt beam="2">  1       -1 0.31488636E-01 0.10943829E+04</pdfrwt>
<totfact> 0.64809658E+01</totfact>
</mgrwt>
</event>
<event>
 6    1  0.1072514E-005  0.1858656E+04  0.7818608E-02  0.8675714E-01
         -2   -1    0    0    0  501 -0.00000000000E+00  0.00000000000E+00  0.11826237188E+04  0.11826237188E+04  0.00000000000E+00 0. -1.
          2   -1    0    0  501    0  0.00000000000E+00 -0.00000000000E+00 -0.73028359622E+03  0.73028359622E+03  0.00000000000E+00 0.  1.
         23    2    1    2    0    0  0.62768917267E+02  0.59171772708E+03  0.95832971971E+03  0.11318213544E+04  0.92487410207E+02 0.  0.
         13    1    3    3    0    0 -0.50708057210E+01  0.29750223208E+03  0.52923156179E+03  0.60714029446E+03  0.00000000000E+00 0.  1.
        -13    1    3    3    0    0  0.67839722988E+02  0.29421549499E+03  0.42909815792E+03  0.52468105992E+03  0.00000000000E+00 0. -1.
         22    1    1    2    0    0 -0.62768917267E+02 -0.59171772708E+03 -0.50598959713E+03  0.78108596064E+03  0.00000000000E+00 0.  1.
<mgrwt>
<rscale>  0 0.18586562E+04</rscale>
<asrwt>0</asrwt>
<pdfrwt beam="1">  1        2 0.11235132E+00 0.18586562E+04</pdfrwt>
<pdfrwt beam="2">  1       -2 0.18194211E+00 0.18586562E+04</pdfrwt>
<totfact> 0.64084575E+00</totfact>
</mgrwt>
</event>
<event>
 6    1  0.1072514E-005  0.3920951E+04  0.7818608E-02  0.8020686E-01
         -1   -1    0    0    0  501 -0.00000000000E+00  0.00000000000E+00  0.12459167605E+04  0.12459167605E+04  0.00000000000E+00 0.  1.
          1   -1    0    0  501    0  0.00000000000E+00 -0.00000000000E+00 -0.30848483582E+04  0.30848483582E+04  0.00000000000E+00 0. -1.
         23    2    1    2    0    0 -0.33965955312E+03  0.93876420141E+03  0.94278072941E+03  0.13753344719E+04  0.77862493718E+02 0.  0.
         11    1    3    3    0    0 -0.27917203278E+03  0.69258160412E+03  0.67503730601E+03  0.10066189283E+04  0.00000000000E+00 0. -1.
        -11    1    3    3    0    0 -0.60487520337E+02  0.24618259728E+03  0.26774342340E+03  0.36871554361E+03  0.00000000000E+00 0.  1.
         22    1    1    2    0    0  0.33965955312E+03 -0.93876420141E+03 -0.27817123270E+04  0.29554306468E+04  0.00000000000E+00 0. -1.
<mgrwt>
<rscale>  0 0.39209510E+04</rscale>
<asrwt>0</asrwt>
<pdfrwt beam="1">  1        1 0.47459205E+00 0.39209510E+04</pdfrwt>
<pdfrwt beam="2">  1       -1 0.19167950E+00 0.39209510E+04</pdfrwt>
<totfact> 0.70100255E-02</totfact>
</mgrwt>
</event>
<event>
 6    1  0.1072514E-005  0.2659747E+04  0.7818608E-02  0.8348185E-01
         -1   -1    0    0    0  501 -0.00000000000E+00  0.00000000000E+00  0.17143310401E+04  0.17143310401E+04  0.00000000000E+00 0.  1.
          1   -1    0    0  501    0  0.00000000000E+00 -0.00000000000E+00 -0.10316345743E+04  0.10316345743E+04  0.00000000000E+00 0. -1.
         23    2    1    2    0    0 -0.15759644836E+03 -0.93156038608E+03 -0.62223301722E+03  0.11349155378E+04  0.90652947206E+02 0.  0.
         13    1    3    3    0    0 -0.13946026025E+03 -0.68878700572E+03 -0.50015113623E+03  0.86257049713E+03  0.00000000000E+00 0. -1.
        -13    1    3    3    0    0 -0.18136188113E+02 -0.24277338035E+03 -0.12208188099E+03  0.27234504070E+03  0.00000000000E+00 0.  1.
         22    1    1    2    0    0  0.15759644836E+03  0.93156038608E+03  0.13049294831E+04  0.16110500766E+04  0.00000000000E+00 0.  1.
<mgrwt>
<rscale>  0 0.26597467E+04</rscale>
<asrwt>0</asrwt>
<pdfrwt beam="1">  1        1 0.15871301E+00 0.26597467E+04</pdfrwt>
<pdfrwt beam="2">  1       -1 0.26374324E+00 0.26597467E+04</pdfrwt>
<totfact> 0.71068533E-01</totfact>
</mgrwt>
</event>
<event>
 6    1  0.1072514E-005  0.1587240E+04  0.7818608E-02  0.8828426E-01
         -1   -1    0    0    0  501 -0.00000000000E+00  0.00000000000E+00  0.39781438979E+03  0.39781438979E+03  0.00000000000E+00 0.  1.
          1   -1    0    0  501    0  0.00000000000E+00 -0.00000000000E+00 -0.15832318491E+04  0.15832318491E+04  0.00000000000E+00 0. -1.
         23    2    1    2    0    0  0.65842270029E+03  0.42029483379E+03 -0.73336831104E+03  0.10785404871E+04  0.12350021495E+03 0.  0.
         11    1    3    3    0    0  0.99367546608E+02  0.45249849234E+02 -0.52858076848E+02  0.12130719048E+03  0.00000000000E+00 0. -1.
        -11    1    3    3    0    0  0.55905515368E+03  0.37504498456E+03 -0.68051023419E+03  0.95723329661E+03  0.00000000000E+00 0.  1.
         22    1    1    2    0    0 -0.65842270029E+03 -0.42029483379E+03 -0.45204914825E+03  0.90250575179E+03  0.00000000000E+00 0. -1.
<mgrwt>
<rscale>  0 0.15872396E+04</rscale>
<asrwt>0</asrwt>
<pdfrwt beam="1">  1        1 0.24357413E+00 0.15872396E+04</pdfrwt>
<pdfrwt beam="2">  1       -1 0.61202215E-01 0.15872396E+04</pdfrwt>
<totfact> 0.14902764E+01</totfact>
</mgrwt>
</event>
<event>
 6    1  0.1072514E-005  0.1946670E+04  0.7818608E-02  0.8631968E-01
          2   -1    0    0  501    0  0.00000000000E+00  0.00000000000E+00  0.13147100857E+04  0.13147100857E+04  0.00000000000E+00 0. -1.
         -2   -1    0    0    0  501 -0.00000000000E+00 -0.00000000000E+00 -0.72060056209E+03  0.72060056209E+03  0.00000000000E+00 0.  1.
         23    2    1    2    0    0 -0.41370435527E+03 -0.12418774813E+03  0.12066042663E+04  0.12858283597E+04  0.10433994806E+03 0.  0.
         13    1    3    3    0    0 -0.25702778165E+03 -0.12571108138E+03  0.72696109004E+03  0.78124194905E+03  0.00000000000E+00 0.  1.
        -13    1    3    3    0    0 -0.15667657362E+03  0.15233332476E+01  0.47964317631E+03  0.50458641068E+03  0.00000000000E+00 0. -1.
         22    1    1    2    0    0  0.41370435527E+03  0.12418774813E+03 -0.61249474270E+03  0.74948228811E+03  0.00000000000E+00 0.  1.
<mgrwt>
<rscale>  0 0.19466698E+04</rscale>
<asrwt>0</asrwt>
<pdfrwt beam="1">  1        2 0.20226309E+00 0.19466698E+04</pdfrwt>
<pdfrwt beam="2">  1       -2 0.11086162E+00 0.19466698E+04</pdfrwt>
<totfact> 0.97517040E+00</totfact>
</mgrwt>
</event>
<event>
 6    1  0.1072514E-005  0.8382143E+03  0.7818608E-02  0.9506293E-01
          2   -1    0    0  501    0  0.00000000000E+00  0.00000000000E+00  0.44385474052E+03  0.44385474052E+03  0.00000000000E+00 0. -1.
         -2   -1    0    0    0  501 -0.00000000000E+00 -0.00000000000E+00 -0.39573934083E+03  0.39573934083E+03  0.00000000000E+00 0.  1.
         23    2    1    2    0    0  0.39635811444E+03  0.11371830271E+03 -0.15077324845E+02  0.42243113035E+03  0.90493794874E+02 0.  0.
         11    1    3    3    0    0  0.25570025907E+03  0.11744607831E+03 -0.13729857563E+02  0.28171743430E+03  0.00000000000E+00 0. -1.
        -11    1    3    3    0    0  0.14065785537E+03 -0.37277756030E+01 -0.13474672821E+01  0.14071369606E+03  0.00000000000E+00 0.  1.
         22    1    1    2    0    0 -0.39635811444E+03 -0.11371830271E+03  0.63192724531E+02  0.41716295100E+03  0.00000000000E+00 0. -1.
<mgrwt>
<rscale>  0 0.83821425E+03</rscale>
<asrwt>0</asrwt>
<pdfrwt beam="1">  1        2 0.68285344E-01 0.83821425E+03</pdfrwt>
<pdfrwt beam="2">  1       -2 0.60882976E-01 0.83821425E+03</pdfrwt>
<totfact> 0.17853638E+02</totfact>
</mgrwt>
</event>
<event>
 6    1  0.1072514E-005  0.1873831E+04  0.7818608E-02  0.8667993E-01
         -3   -1    0    0    0  501 -0.00000000000E+00  0.00000000000E+00  0.26731607997E+04  0.26731607997E+04  0.00000000000E+00 0.  1.
          3   -1    0    0  501    0  0.00000000000E+00 -0.00000000000E+00 -0.32837926941E+03  0.32837926941E+03  0.00000000000E+00 0. -1.
         23    2    1    2    0    0  0.35818075817E+03 -0.67917189097E+03  0.32407506511E+03  0.83986883337E+03  0.10386094754E+03 0.  0.
         13    1    3    3    0    0  0.63461739306E+02 -0.15111287049E+03  0.11415483403E+03  0.19973436889E+03  0.00000000000E+00 0.  1.
        -13    1    3    3    0    0  0.29471901887E+03 -0.52805902048E+03  0.20992023108E+03  0.64013446448E+03  0.00000000000E+00 0. -1.
         22    1    1    2    0    0 -0.35818075817E+03  0.67917189097E+03  0.20207064652E+04  0.21616712358E+04  0.00000000000E+00 0.  1.
<mgrwt>
<rscale>  0 0.18738309E+04</rscale>
<asrwt>0</asrwt>
<pdfrwt beam="1">  1        3 0.50519889E-01 0.18738309E+04</pdfrwt>
<pdfrwt beam="2">  1       -3 0.41125549E+00 0.18738309E+04</pdfrwt>
<totfact> 0.87853867E-02</totfact>
</mgrwt>
</event>
<event>
 6    1  0.1072514E-005  0.1991148E+04  0.7818608E-02  0.8610770E-01
          2   -1    0    0  501    0  0.00000000000E+00  0.00000000000E+00  0.45137668018E+04  0.45137668018E+04  0.00000000000E+00 0. -1.
         -2   -1    0    0    0  501 -0.00000000000E+00 -0.00000000000E+00 -0.21958766732E+03  0.21958766732E+03  0.00000000000E+00 0.  1.
         23    2    1    2    0    0  0.74360632683E+03 -0.31508723400E+03  0.77753205144E+03  0.11251641968E+04  0.95958556001E+02 0.  0.
         13    1    3    3    0    0  0.58996470032E+03 -0.28994097735E+03  0.63928986920E+03  0.91696000722E+03  0.00000000000E+00 0. -1.
        -13    1    3    3    0    0  0.15364162651E+03 -0.25146256644E+02  0.13824218224E+03  0.20820418961E+03  0.00000000000E+00 0.  1.
         22    1    1    2    0    0 -0.74360632683E+03  0.31508723400E+03  0.35166470830E+04  0.36081902722E+04  0.00000000000E+00 0. -1.
<mgrwt>
<rscale>  0 0.19911479E+04</rscale>
<asrwt>0</asrwt>
<pdfrwt beam="1">  1        2 0.69442559E+00 0.19911479E+04</pdfrwt>
<pdfrwt beam="2">  1       -2 0.33782721E-01 0.19911479E+04</pdfrwt>
<totfact> 0.92482633E-01</totfact>
</mgrwt>
</event>
<event>
 6    1  0.1072514E-005  0.1004881E+04  0.7818608E-02  0.9303207E-01
         -2   -1    0    0    0  501 -0.00000000000E+00  0.00000000000E+00  0.14995682156E+03  0.14995682156E+03  0.00000000000E+00 0.  1.
          2   -1    0    0  501    0  0.00000000000E+00 -0.00000000000E+00 -0.16834625948E+04  0.16834625948E+04  0.00000000000E+00 0. -1.
         23    2    1    2    0    0  0.28628307424E+02 -0.46777650853E+03 -0.45805151133E+03  0.66028842991E+03  0.80840470843E+02 0.  0.
         11    1    3    3    0    0 -0.19168298441E+02 -0.14936432438E+03 -0.11244935643E+03  0.18794143456E+03  0.00000000000E+00 0. -1.
        -11    1    3    3    0    0  0.47796605865E+02 -0.31841218414E+03 -0.34560215490E+03  0.47234699535E+03  0.00000000000E+00 0.  1.
         22    1    1    2    0    0 -0.28628307424E+02  0.46777650853E+03 -0.10754542619E+04  0.11731309864E+04  0.00000000000E+00 0. -1.
<mgrwt>
<rscale>  0 0.10048815E+04</rscale>
<asrwt>0</asrwt>
<pdfrwt beam="1">  1        2 0.25899423E+00 0.10048815E+04</pdfrwt>
<pdfrwt beam="2">  1       -2 0.23070281E-01 0.10048815E+04</pdfrwt>
<totfact> 0.16586723E+02</totfact>
</mgrwt>
</event>
<event>
 6    1  0.1072514E-005  0.1544118E+04  0.7818608E-02  0.8855634E-01
         -2   -1    0    0    0  501 -0.00000000000E+00  0.00000000000E+00  0.20335324878E+03  0.20335324878E+03  0.00000000000E+00 0.  1.
          2   -1    0    0  501    0  0.00000000000E+00 -0.00000000000E+00 -0.29312301436E+04  0.29312301436E+04  0.00000000000E+00 0. -1.
         23    2    1    2    0    0 -0.55249666200E+02 -0.67427178617E+03 -0.62525931294E+03  0.92580643150E+03  0.92050925847E+02 0.  0.
         13    1    3    3    0    0 -0.79024125256E+01 -0.34962109359E+03 -0.26673763199E+03  0.43982533070E+03  0.00000000000E+00 0.  1.
        -13    1    3    3    0    0 -0.47347253675E+02 -0.32465069258E+03 -0.35852168095E+03  0.48598110080E+03  0.00000000000E+00 0. -1.
         22    1    1    2    0    0  0.55249666200E+02  0.67427178617E+03 -0.21026175819E+04  0.22087769609E+04  0.00000000000E+00 0. -1.
<mgrwt>
<rscale>  0 0.15441181E+04</rscale>
<asrwt>0</asrwt>
<pdfrwt beam="1">  1        2 0.45095846E+00 0.15441181E+04</pdfrwt>
<pdfrwt beam="2">  1       -2 0.31285117E-01 0.15441181E+04</pdfrwt>
<totfact> 0.17647923E+01</totfact>
</mgrwt>
</event>
<event>
 6    1  0.1072514E-005  0.1168167E+04  0.7818608E-02  0.9141186E-01
         -2   -1    0    0    0  501 -0.00000000000E+00  0.00000000000E+00  0.91278062876E+02  0.91278062876E+02  0.00000000000E+00 0.  1.
          2   -1    0    0  501    0  0.00000000000E+00 -0.00000000000E+00 -0.37375167992E+04  0.37375167992E+04  0.00000000000E+00 0. -1.
         23    2    1    2    0    0 -0.27594512829E+03  0.39120650044E+03 -0.75839071514E+03  0.90153429403E+03  0.91757106929E+02 0.  0.
         11    1    3    3    0    0 -0.31151996836E+02  0.89855839826E+02 -0.10645771749E+03  0.14275070743E+03  0.00000000000E+00 0. -1.
        -11    1    3    3    0    0 -0.24479313146E+03  0.30135066062E+03 -0.65193299765E+03  0.75878358660E+03  0.00000000000E+00 0.  1.
         22    1    1    2    0    0  0.27594512829E+03 -0.39120650044E+03 -0.28878480212E+04  0.29272605681E+04  0.00000000000E+00 0. -1.
<mgrwt>
<rscale>  0 0.11681666E+04</rscale>
<asrwt>0</asrwt>
<pdfrwt beam="1">  1        2 0.57500244E+00 0.11681666E+04</pdfrwt>
<pdfrwt beam="2">  1       -2 0.14042782E-01 0.11681666E+04</pdfrwt>
<totfact> 0.21984990E+01</totfact>
</mgrwt>
</event>
<event>
 6    1  0.1072514E-005  0.4225337E+04  0.7818608E-02  0.7960570E-01
         -1   -1    0    0    0  501 -0.00000000000E+00  0.00000000000E+00  0.12549520967E+04  0.12549520967E+04  0.00000000000E+00 0.  1.
          1   -1    0    0  501    0  0.00000000000E+00 -0.00000000000E+00 -0.35566044807E+04  0.35566044807E+04  0.00000000000E+00 0. -1.
         23    2    1    2    0    0 -0.19919230943E+04  0.61450904876E+03 -0.76820034196E+03  0.22237285015E+04  0.97250698767E+02 0.  0.
         11    1    3    3    0    0 -0.63640294320E+03  0.20854203264E+03 -0.20028561355E+03  0.69900844951E+03  0.00000000000E+00 0. -1.
        -11    1    3    3    0    0 -0.13555201511E+04  0.40596701612E+03 -0.56791472841E+03  0.15247200520E+04  0.00000000000E+00 0.  1.
         22    1    1    2    0    0  0.19919230943E+04 -0.61450904876E+03 -0.15334520420E+04  0.25878280758E+04  0.00000000000E+00 0.  1.
<mgrwt>
<rscale>  0 0.42253370E+04</rscale>
<asrwt>0</asrwt>
<pdfrwt beam="1">  1        1 0.54716991E+00 0.42253370E+04</pdfrwt>
<pdfrwt beam="2">  1       -1 0.19306956E+00 0.42253370E+04</pdfrwt>
<totfact> 0.29069743E-02</totfact>
</mgrwt>
</event>
<event>
 6    1  0.1072514E-005  0.1660006E+04  0.7818608E-02  0.8784509E-01
          2   -1    0    0  501    0  0.00000000000E+00  0.00000000000E+00  0.53241658105E+03  0.53241658105E+03  0.00000000000E+00 0. -1.
         -2   -1    0    0    0  501 -0.00000000000E+00 -0.00000000000E+00 -0.12939217081E+04  0.12939217081E+04  0.00000000000E+00 0.  1.
         23    2    1    2    0    0  0.68840199078E+02  0.31822491915E+03  0.45502930404E+03  0.56698841950E+03  0.91750357681E+02 0.  0.
         13    1    3    3    0    0 -0.87136995567E+01  0.78116891008E+02  0.62799130103E+02  0.10060769336E+03  0.00000000000E+00 0.  1.
        -13    1    3    3    0    0  0.77553898635E+02  0.24010802814E+03  0.39223017394E+03  0.46638072614E+03  0.00000000000E+00 0. -1.
         22    1    1    2    0    0 -0.68840199078E+02 -0.31822491915E+03 -0.12165344311E+04  0.12593498697E+04  0.00000000000E+00 0.  1.
<mgrwt>
<rscale>  0 0.16600065E+04</rscale>
<asrwt>0</asrwt>
<pdfrwt beam="1">  1        2 0.81910243E-01 0.16600065E+04</pdfrwt>
<pdfrwt beam="2">  1       -2 0.19906488E+00 0.16600065E+04</pdfrwt>
<totfact> 0.73593544E+00</totfact>
</mgrwt>
</event>
<event>
 6    1  0.1072514E-005  0.8233334E+03  0.7818608E-02  0.9526844E-01
         -1   -1    0    0    0  501 -0.00000000000E+00  0.00000000000E+00  0.86080220063E+02  0.86080220063E+02  0.00000000000E+00 0.  1.
          1   -1    0    0  501    0  0.00000000000E+00 -0.00000000000E+00 -0.19687388458E+04  0.19687388458E+04  0.00000000000E+00 0. -1.
         23    2    1    2    0    0  0.25034834389E+03  0.50923936682E+02 -0.17423291884E+04  0.17633402646E+04  0.91598839113E+02 0.  0.
         13    1    3    3    0    0  0.13498244774E+03  0.11632467313E+02 -0.63300025307E+03  0.64733677161E+03  0.00000000000E+00 0. -1.
        -13    1    3    3    0    0  0.11536589615E+03  0.39291469368E+02 -0.11093289353E+04  0.11160034930E+04  0.00000000000E+00 0.  1.
         22    1    1    2    0    0 -0.25034834389E+03 -0.50923936682E+02 -0.14032943734E+03  0.29147880129E+03  0.00000000000E+00 0.  1.
<mgrwt>
<rscale>  0 0.82333340E+03</rscale>
<asrwt>0</asrwt>
<pdfrwt beam="1">  1        1 0.30288292E+00 0.82333340E+03</pdfrwt>
<pdfrwt beam="2">  1       -1 0.13243110E-01 0.82333340E+03</pdfrwt>
<totfact> 0.12881069E+02</totfact>
</mgrwt>
</event>
<event>
 6    1  0.1072514E-005  0.2741336E+04  0.7818608E-02  0.8321716E-01
         -2   -1    0    0    0  501 -0.00000000000E+00  0.00000000000E+00  0.51973158200E+03  0.51973158200E+03  0.00000000000E+00 0.  1.
          2   -1    0    0  501    0  0.00000000000E+00 -0.00000000000E+00 -0.36148098431E+04  0.36148098431E+04  0.00000000000E+00 0. -1.
         23    2    1    2    0    0  0.17327482738E+03 -0.11311770456E+04 -0.41512543766E+03  0.12204836339E+04  0.87552826457E+02 0.  0.
         11    1    3    3    0    0  0.91020347508E+02 -0.83808144555E+03 -0.29288764924E+03  0.89243957113E+03  0.00000000000E+00 0. -1.
        -11    1    3    3    0    0  0.82254479870E+02 -0.29309560006E+03 -0.12223778842E+03  0.32804406282E+03  0.00000000000E+00 0.  1.
         22    1    1    2    0    0 -0.17327482738E+03  0.11311770456E+04 -0.26799528234E+04  0.29140577911E+04  0.00000000000E+00 0. -1.
<mgrwt>
<rscale>  0 0.27413361E+04</rscale>
<asrwt>0</asrwt>
<pdfrwt beam="1">  1        2 0.55612459E+00 0.27413361E+04</pdfrwt>
<pdfrwt beam="2">  1       -2 0.79958706E-01 0.27413361E+04</pdfrwt>
<totfact> 0.81529478E-01</totfact>
</mgrwt>
</event>
<event>
 6    1  0.1072514E-005  0.1453246E+04  0.7818608E-02  0.8916153E-01
         -2   -1    0    0    0  501 -0.00000000000E+00  0.00000000000E+00  0.31030210946E+03  0.31030210946E+03  0.00000000000E+00 0.  1.
          2   -1    0    0  501    0  0.00000000000E+00 -0.00000000000E+00 -0.17015060722E+04  0.17015060722E+04  0.00000000000E+00 0. -1.
         23    2    1    2    0    0 -0.31608807051E+03  0.91689722521E+02 -0.15907041595E+04  0.16269458659E+04  0.91073892509E+02 0.  0.
         13    1    3    3    0    0 -0.17564130661E+03  0.46795331074E+01 -0.86660854847E+03  0.88424099820E+03  0.00000000000E+00 0.  1.
        -13    1    3    3    0    0 -0.14044676390E+03  0.87010189413E+02 -0.72409561107E+03  0.74270486772E+03  0.00000000000E+00 0. -1.
         22    1    1    2    0    0  0.31608807051E+03 -0.91689722521E+02  0.19950019682E+03  0.38486231573E+03  0.00000000000E+00 0.  1.
<mgrwt>
<rscale>  0 0.14532459E+04</rscale>
<asrwt>0</asrwt>
<pdfrwt beam="1">  1        2 0.26177016E+00 0.14532459E+04</pdfrwt>
<pdfrwt beam="2">  1       -2 0.47738786E-01 0.14532459E+04</pdfrwt>
<totfact> 0.39452428E+01</totfact>
</mgrwt>
</event>
<event>
 6    1  0.1072514E-005  0.1319875E+04  0.7818608E-02  0.9013951E-01
          1   -1    0    0  501    0  0.00000000000E+00  0.00000000000E+00  0.86388599094E+03  0.86388599094E+03  0.00000000000E+00 0. -1.
         -1   -1    0    0    0  501 -0.00000000000E+00 -0.00000000000E+00 -0.50413775086E+03  0.50413775086E+03  0.00000000000E+00 0.  1.
         23    2    1    2    0    0  0.19418556053E+03 -0.45497057825E+03  0.62843696517E+03  0.80508512172E+03  0.92318876875E+02 0.  0.
         13    1    3    3    0    0  0.12291335818E+03 -0.37451536915E+03  0.46659725434E+03  0.61080475858E+03  0.00000000000E+00 0.  1.
        -13    1    3    3    0    0  0.71272202347E+02 -0.80455209104E+02  0.16183971083E+03  0.19428036313E+03  0.00000000000E+00 0. -1.
         22    1    1    2    0    0 -0.19418556053E+03  0.45497057825E+03 -0.26868872509E+03  0.56293862009E+03  0.00000000000E+00 0.  1.
<mgrwt>
<rscale>  0 0.13198751E+04</rscale>
<asrwt>0</asrwt>
<pdfrwt beam="1">  1        1 0.13290554E+00 0.13198751E+04</pdfrwt>
<pdfrwt beam="2">  1       -1 0.77559654E-01 0.13198751E+04</pdfrwt>
<totfact> 0.31875755E+01</totfact>
</mgrwt>
</event>
<event>
 6    1  0.1072514E-005  0.1148299E+04  0.7818608E-02  0.9159354E-01
          2   -1    0    0  501    0  0.00000000000E+00  0.00000000000E+00  0.26458858915E+04  0.26458858915E+04  0.00000000000E+00 0. -1.
         -2   -1    0    0    0  501 -0.00000000000E+00 -0.00000000000E+00 -0.12458871223E+03  0.12458871223E+03  0.00000000000E+00 0.  1.
         23    2    1    2    0    0 -0.36620530522E+03 -0.38979604779E+03  0.78910814662E+03  0.95759674540E+03  0.90843686053E+02 0.  0.
         11    1    3    3    0    0 -0.17556924142E+03 -0.18899128155E+03  0.46107144527E+03  0.52832673667E+03  0.00000000000E+00 0. -1.
        -11    1    3    3    0    0 -0.19063606380E+03 -0.20080476623E+03  0.32803670136E+03  0.42927000873E+03  0.00000000000E+00 0.  1.
         22    1    1    2    0    0  0.36620530522E+03  0.38979604779E+03  0.17321890327E+04  0.18128778584E+04  0.00000000000E+00 0. -1.
<mgrwt>
<rscale>  0 0.11482988E+04</rscale>
<asrwt>0</asrwt>
<pdfrwt beam="1">  1        2 0.40705932E+00 0.11482988E+04</pdfrwt>
<pdfrwt beam="2">  1       -2 0.19167496E-01 0.11482988E+04</pdfrwt>
<totfact> 0.65838208E+01</totfact>
</mgrwt>
</event>
<event>
 6    1  0.1342800E-005  0.3413664E+04  0.7818608E-02  0.8134561E-01
         -2   -1    0    0    0  501 -0.00000000000E+00  0.00000000000E+00  0.15012246795E+04  0.15012246795E+04  0.00000000000E+00 0.  1.
          2   -1    0    0  501    0  0.00000000000E+00 -0.00000000000E+00 -0.19405988559E+04  0.19405988559E+04  0.00000000000E+00 0. -1.
         23    2    1    2    0    0  0.49294668051E+03  0.16119509675E+04  0.44481050338E+02  0.16881136871E+04  0.79792891395E+02 0.  0.
         13    1    3    3    0    0  0.36471843692E+03  0.10809299864E+04  0.11995622843E+02  0.11408650528E+04  0.00000000000E+00 0. -1.
        -13    1    3    3    0    0  0.12822824358E+03  0.53102098101E+03  0.32485427496E+02  0.54724863428E+03  0.00000000000E+00 0.  1.
         22    1    1    2    0    0 -0.49294668051E+03 -0.16119509675E+04 -0.48385522673E+03  0.17537098482E+04  0.00000000000E+00 0.  1.
<mgrwt>
<rscale>  0 0.34136637E+04</rscale>
<asrwt>0</asrwt>
<pdfrwt beam="1">  1        2 0.29855367E+00 0.34136637E+04</pdfrwt>
<pdfrwt beam="2">  1       -2 0.23095764E+00 0.34136637E+04</pdfrwt>
<totfact> 0.50310729E-01</totfact>
</mgrwt>
</event>
<event>
 6    1  0.1072514E-005  0.2256733E+04  0.7818608E-02  0.8495179E-01
          1   -1    0    0  501    0  0.00000000000E+00  0.00000000000E+00  0.18961625445E+04  0.18961625445E+04  0.00000000000E+00 0. -1.
         -1   -1    0    0    0  501 -0.00000000000E+00 -0.00000000000E+00 -0.67146735726E+03  0.67146735726E+03  0.00000000000E+00 0.  1.
         23    2    1    2    0    0  0.10202416414E+04 -0.36959121016E+03  0.95750122411E+03  0.14500954354E+04  0.92073384209E+02 0.  0.
         11    1    3    3    0    0  0.59050461579E+03 -0.20342472746E+03  0.60968408879E+03  0.87280697129E+03  0.00000000000E+00 0. -1.
        -11    1    3    3    0    0  0.42973702564E+03 -0.16616648270E+03  0.34781713533E+03  0.57728846412E+03  0.00000000000E+00 0.  1.
         22    1    1    2    0    0 -0.10202416414E+04  0.36959121016E+03  0.26719396311E+03  0.11175344663E+04  0.00000000000E+00 0.  1.
<mgrwt>
<rscale>  0 0.22567333E+04</rscale>
<asrwt>0</asrwt>
<pdfrwt beam="1">  1        1 0.29171731E+00 0.22567333E+04</pdfrwt>
<pdfrwt beam="2">  1       -1 0.10330267E+00 0.22567333E+04</pdfrwt>
<totfact> 0.28115062E+00</totfact>
</mgrwt>
</event>
<event>
 6    1  0.1072514E-005  0.3428378E+04  0.7818608E-02  0.8130976E-01
          1   -1    0    0  501    0  0.00000000000E+00  0.00000000000E+00  0.12436091464E+04  0.12436091464E+04  0.00000000000E+00 0. -1.
         -1   -1    0    0    0  501 -0.00000000000E+00 -0.00000000000E+00 -0.23628350179E+04  0.23628350179E+04  0.00000000000E+00 0.  1.
         23    2    1    2    0    0 -0.38705395852E+03 -0.55136705247E+03 -0.22167190432E+04  0.23186912163E+04  0.93108789060E+02 0.  0.
         13    1    3    3    0    0 -0.27160607922E+03 -0.35817322784E+03 -0.13323766469E+04  0.14061598247E+04  0.00000000000E+00 0. -1.
        -13    1    3    3    0    0 -0.11544787931E+03 -0.19319382463E+03 -0.88434239633E+03  0.91253139160E+03  0.00000000000E+00 0.  1.
         22    1    1    2    0    0  0.38705395852E+03  0.55136705247E+03  0.10974931717E+04  0.12877529480E+04  0.00000000000E+00 0. -1.
<mgrwt>
<rscale>  0 0.34283776E+04</rscale>
<asrwt>0</asrwt>
<pdfrwt beam="1">  1        1 0.19132449E+00 0.34283776E+04</pdfrwt>
<pdfrwt beam="2">  1       -1 0.36351307E+00 0.34283776E+04</pdfrwt>
<totfact> 0.10289255E-01</totfact>
</mgrwt>
</event>
<event>
 6    1  0.1072514E-005  0.7230704E+03  0.7818608E-02  0.9678572E-01
          1   -1    0    0  501    0  0.00000000000E+00  0.00000000000E+00  0.15886645884E+04  0.15886645884E+04  0.00000000000E+00 0. -1.
         -1   -1    0    0    0  501 -0.00000000000E+00 -0.00000000000E+00 -0.82275196717E+02  0.82275196717E+02  0.00000000000E+00 0.  1.
         23    2    1    2    0    0  0.28960174870E+03  0.17177038621E+03  0.50302880420E+03  0.61258884760E+03  0.94089743992E+02 0.  0.
         13    1    3    3    0    0  0.17982088939E+03  0.12121468287E+03  0.39437538670E+03  0.45006721413E+03  0.00000000000E+00 0. -1.
        -13    1    3    3    0    0  0.10978085931E+03  0.50555703336E+02  0.10865341750E+03  0.16252163347E+03  0.00000000000E+00 0.  1.
         22    1    1    2    0    0 -0.28960174870E+03 -0.17177038621E+03  0.10033605874E+04  0.10583509375E+04  0.00000000000E+00 0. -1.
<mgrwt>
<rscale>  0 0.72307037E+03</rscale>
<asrwt>0</asrwt>
<pdfrwt beam="1">  1        1 0.24440991E+00 0.72307037E+03</pdfrwt>
<pdfrwt beam="2">  1       -1 0.12657724E-01 0.72307037E+03</pdfrwt>
<totfact> 0.25143795E+02</totfact>
</mgrwt>
</event>
<event>
 6    1  0.1072514E-005  0.2190074E+04  0.7818608E-02  0.8522571E-01
         -2   -1    0    0    0  501 -0.00000000000E+00  0.00000000000E+00  0.60050231832E+03  0.60050231832E+03  0.00000000000E+00 0.  1.
          2   -1    0    0  501    0  0.00000000000E+00 -0.00000000000E+00 -0.19968378495E+04  0.19968378495E+04  0.00000000000E+00 0. -1.
         23    2    1    2    0    0 -0.47886396677E+02 -0.21711138439E+03 -0.19686992549E+04  0.19833119173E+04  0.91208250608E+02 0.  0.
         13    1    3    3    0    0 -0.71748583215E+02 -0.11758403188E+03 -0.10874929123E+04  0.10961818727E+04  0.00000000000E+00 0.  1.
        -13    1    3    3    0    0  0.23862186539E+02 -0.99527352509E+02 -0.88120634259E+03  0.88713004462E+03  0.00000000000E+00 0. -1.
         22    1    1    2    0    0  0.47886396677E+02  0.21711138439E+03  0.57236372370E+03  0.61402825051E+03  0.00000000000E+00 0.  1.
<mgrwt>
<rscale>  0 0.21900738E+04</rscale>
<asrwt>0</asrwt>
<pdfrwt beam="1">  1        2 0.30720582E+00 0.21900738E+04</pdfrwt>
<pdfrwt beam="2">  1       -2 0.92384974E-01 0.21900738E+04</pdfrwt>
<totfact> 0.61035128E+00</totfact>
</mgrwt>
</event>
<event>
 6    1  0.1072514E-005  0.3832611E+04  0.7818608E-02  0.8039193E-01
         -2   -1    0    0    0  501 -0.00000000000E+00  0.00000000000E+00  0.26226955178E+04  0.26226955178E+04  0.00000000000E+00 0.  1.
          2   -1    0    0  501    0  0.00000000000E+00 -0.00000000000E+00 -0.14001729435E+04  0.14001729435E+04  0.00000000000E+00 0. -1.
         23    2    1    2    0    0 -0.38176387028E+03  0.61595348558E+03 -0.12492518072E+04  0.14470557852E+04  0.90542909418E+02 0.  0.
         13    1    3    3    0    0 -0.11396305028E+03  0.26649995727E+03 -0.51215643090E+03  0.58848450597E+03  0.00000000000E+00 0.  1.
        -13    1    3    3    0    0 -0.26780082001E+03  0.34945352831E+03 -0.73709537635E+03  0.85857127921E+03  0.00000000000E+00 0. -1.
         22    1    1    2    0    0  0.38176387028E+03 -0.61595348558E+03  0.24717743816E+04  0.25758126761E+04  0.00000000000E+00 0.  1.
<mgrwt>
<rscale>  0 0.38326113E+04</rscale>
<asrwt>0</asrwt>
<pdfrwt beam="1">  1        2 0.21541122E+00 0.38326113E+04</pdfrwt>
<pdfrwt beam="2">  1       -2 0.40349162E+00 0.38326113E+04</pdfrwt>
<totfact> 0.81413306E-02</totfact>
</mgrwt>
</event>
<event>
 6    1  0.1072514E-005  0.4030569E+04  0.7818608E-02  0.7998408E-01
          2   -1    0    0  501    0  0.00000000000E+00  0.00000000000E+00  0.35350548616E+04  0.35350548616E+04  0.00000000000E+00 0. -1.
         -2   -1    0    0    0  501 -0.00000000000E+00 -0.00000000000E+00 -0.11488848497E+04  0.11488848497E+04  0.00000000000E+00 0.  1.
         23    2    1    2    0    0 -0.17715517208E+04  0.71782082814E+03  0.45565279221E+03  0.19672212909E+04  0.93155245053E+02 0.  0.
         11    1    3    3    0    0 -0.13185468385E+04  0.52628792035E+03  0.29698187083E+03  0.14504285477E+04  0.00000000000E+00 0. -1.
        -11    1    3    3    0    0 -0.45300488229E+03  0.19153290779E+03  0.15867092138E+03  0.51679274321E+03  0.00000000000E+00 0.  1.
         22    1    1    2    0    0  0.17715517208E+04 -0.71782082814E+03  0.19305172197E+04  0.27167184205E+04  0.00000000000E+00 0. -1.
<mgrwt>
<rscale>  0 0.40305687E+04</rscale>
<asrwt>0</asrwt>
<pdfrwt beam="1">  1        2 0.54385459E+00 0.40305687E+04</pdfrwt>
<pdfrwt beam="2">  1       -2 0.17675152E+00 0.40305687E+04</pdfrwt>
<totfact> 0.11522623E-01</totfact>
</mgrwt>
</event>
<event>
 6    1  0.1072514E-005  0.3197299E+04  0.7818608E-02  0.8189531E-01
         -3   -1    0    0    0  501 -0.00000000000E+00  0.00000000000E+00  0.25911103330E+04  0.25911103330E+04  0.00000000000E+00 0.  1.
          3   -1    0    0  501    0  0.00000000000E+00 -0.00000000000E+00 -0.98632628433E+03  0.98632628433E+03  0.00000000000E+00 0. -1.
         23    2    1    2    0    0 -0.43691388987E+03  0.56804586711E+03 -0.79405587419E+03  0.10738386405E+04  0.95051775980E+02 0.  0.
         13    1    3    3    0    0 -0.17509679103E+03  0.18151401574E+03 -0.22689211009E+03  0.33924364956E+03  0.00000000000E+00 0. -1.
        -13    1    3    3    0    0 -0.26181709884E+03  0.38653185137E+03 -0.56716376409E+03  0.73459499091E+03  0.00000000000E+00 0.  1.
         22    1    1    2    0    0  0.43691388987E+03 -0.56804586711E+03  0.23988399229E+04  0.25035979769E+04  0.00000000000E+00 0.  1.
<mgrwt>
<rscale>  0 0.31972990E+04</rscale>
<asrwt>0</asrwt>
<pdfrwt beam="1">  1        3 0.15174251E+00 0.31972990E+04</pdfrwt>
<pdfrwt beam="2">  1       -3 0.39863236E+00 0.31972990E+04</pdfrwt>
<totfact> 0.73728677E-03</totfact>
</mgrwt>
</event>
<event>
 6    1  0.1072514E-005  0.9258476E+03  0.7818608E-02  0.9393835E-01
         -2   -1    0    0    0  501 -0.00000000000E+00  0.00000000000E+00  0.13521169260E+03  0.13521169260E+03  0.00000000000E+00 0.  1.
          2   -1    0    0  501    0  0.00000000000E+00 -0.00000000000E+00 -0.15849104812E+04  0.15849104812E+04  0.00000000000E+00 0. -1.
         23    2    1    2    0    0 -0.53721893616E+02 -0.45554044039E+03 -0.73594958330E+03  0.87168769622E+03  0.88399750530E+02 0.  0.
         13    1    3    3    0    0 -0.56679646123E+02 -0.13879338110E+03 -0.25466765835E+03  0.29551954442E+03  0.00000000000E+00 0. -1.
        -13    1    3    3    0    0  0.29577525065E+01 -0.31674705928E+03 -0.48128192495E+03  0.57616815180E+03  0.00000000000E+00 0.  1.
         22    1    1    2    0    0  0.53721893616E+02  0.45554044039E+03 -0.71374920531E+03  0.84843447759E+03  0.00000000000E+00 0.  1.
<mgrwt>
<rscale>  0 0.92584757E+03</rscale>
<asrwt>0</asrwt>
<pdfrwt beam="1">  1        2 0.24383237E+00 0.92584757E+03</pdfrwt>
<pdfrwt beam="2">  1       -2 0.20801800E-01 0.92584757E+03</pdfrwt>
<totfact> 0.22723860E+02</totfact>
</mgrwt>
</event>
<event>
 6    1  0.1140448E-005  0.2955702E+04  0.7818608E-02  0.8256495E-01
         -1   -1    0    0    0  501 -0.00000000000E+00  0.00000000000E+00  0.10229949014E+04  0.10229949014E+04  0.00000000000E+00 0.  1.
          1   -1    0    0  501    0  0.00000000000E+00 -0.00000000000E+00 -0.21349500790E+04  0.21349500790E+04  0.00000000000E+00 0. -1.
         23    2    1    2    0    0  0.42251476858E+03 -0.19049845855E+03  0.94137818709E+03  0.10529541731E+04  0.87813479101E+02 0.  0.
         11    1    3    3    0    0  0.16148955459E+03 -0.43887963173E+02  0.41367578463E+03  0.44624285355E+03  0.00000000000E+00 0. -1.
        -11    1    3    3    0    0  0.26102521399E+03 -0.14661049538E+03  0.52770240246E+03  0.60671131954E+03  0.00000000000E+00 0.  1.
         22    1    1    2    0    0 -0.42251476858E+03  0.19049845855E+03 -0.20533333647E+04  0.21049908073E+04  0.00000000000E+00 0. -1.
<mgrwt>
<rscale>  0 0.29557016E+04</rscale>
<asrwt>0</asrwt>
<pdfrwt beam="1">  1        1 0.32845385E+00 0.29557016E+04</pdfrwt>
<pdfrwt beam="2">  1       -1 0.15738383E+00 0.29557016E+04</pdfrwt>
<totfact> 0.63053769E-01</totfact>
</mgrwt>
</event>
<event>
 6    1  0.1072514E-005  0.2445521E+04  0.7818608E-02  0.8422655E-01
         -1   -1    0    0    0  501 -0.00000000000E+00  0.00000000000E+00  0.16077758955E+04  0.16077758955E+04  0.00000000000E+00 0.  1.
          1   -1    0    0  501    0  0.00000000000E+00 -0.00000000000E+00 -0.92994471837E+03  0.92994471837E+03  0.00000000000E+00 0. -1.
         23    2    1    2    0    0  0.52500410560E+03  0.82054024365E+03  0.11033073643E+04  0.14747316261E+04  0.92901166545E+02 0.  0.
         11    1    3    3    0    0  0.34453663131E+03  0.49647979703E+03  0.74158271021E+03  0.95663085632E+03  0.00000000000E+00 0. -1.
        -11    1    3    3    0    0  0.18046747429E+03  0.32406044662E+03  0.36172465406E+03  0.51810076983E+03  0.00000000000E+00 0.  1.
         22    1    1    2    0    0 -0.52500410560E+03 -0.82054024365E+03 -0.42547618709E+03  0.10629889878E+04  0.00000000000E+00 0. -1.
<mgrwt>
<rscale>  0 0.24455206E+04</rscale>
<asrwt>0</asrwt>
<pdfrwt beam="1">  1        1 0.14306842E+00 0.24455206E+04</pdfrwt>
<pdfrwt beam="2">  1       -1 0.24735014E+00 0.24455206E+04</pdfrwt>
<totfact> 0.11140616E+00</totfact>
</mgrwt>
</event>
<event>
 6    1  0.1072514E-005  0.6476995E+03  0.7818608E-02  0.9811105E-01
          3   -1    0    0  501    0  0.00000000000E+00  0.00000000000E+00  0.14031853359E+03  0.14031853359E+03  0.00000000000E+00 0. -1.
         -3   -1    0    0    0  501 -0.00000000000E+00 -0.00000000000E+00 -0.74743274050E+03  0.74743274050E+03  0.00000000000E+00 0.  1.
         23    2    1    2    0    0 -0.25001052336E+03 -0.97219180129E+02 -0.54213386750E+03  0.61174534067E+03  0.91468031384E+02 0.  0.
         13    1    3    3    0    0 -0.19379653058E+03 -0.35203812963E+02 -0.41727334363E+03  0.46142545120E+03  0.00000000000E+00 0. -1.
        -13    1    3    3    0    0 -0.56213992785E+02 -0.62015367166E+02 -0.12486052388E+03  0.15031988948E+03  0.00000000000E+00 0.  1.
         22    1    1    2    0    0  0.25001052336E+03  0.97219180129E+02 -0.64980339411E+02  0.27600593343E+03  0.00000000000E+00 0.  1.
<mgrwt>
<rscale>  0 0.64769952E+03</rscale>
<asrwt>0</asrwt>
<pdfrwt beam="1">  1        3 0.21587466E-01 0.64769952E+03</pdfrwt>
<pdfrwt beam="2">  1       -3 0.11498966E+00 0.64769952E+03</pdfrwt>
<totfact> 0.33015292E+01</totfact>
</mgrwt>
</event>
<event>
 6    1  0.1072514E-005  0.1927590E+04  0.7818608E-02  0.8641244E-01
          2   -1    0    0  501    0  0.00000000000E+00  0.00000000000E+00  0.12519973243E+04  0.12519973243E+04  0.00000000000E+00 0. -1.
         -2   -1    0    0    0  501 -0.00000000000E+00 -0.00000000000E+00 -0.74193490973E+03  0.74193490973E+03  0.00000000000E+00 0.  1.
         23    2    1    2    0    0  0.96067980676E+03  0.34130911846E+02  0.28093438547E+03  0.10057165369E+04  0.92038108442E+02 0.  0.
         11    1    3    3    0    0  0.70824546002E+03  0.64630910827E+02  0.21644377960E+03  0.74339538336E+03  0.00000000000E+00 0.  1.
        -11    1    3    3    0    0  0.25243434674E+03 -0.30499998981E+02  0.64490605871E+02  0.26232115355E+03  0.00000000000E+00 0. -1.
         22    1    1    2    0    0 -0.96067980676E+03 -0.34130911846E+02  0.22912802907E+03  0.98821569709E+03  0.00000000000E+00 0.  1.
<mgrwt>
<rscale>  0 0.19275897E+04</rscale>
<asrwt>0</asrwt>
<pdfrwt beam="1">  1        2 0.19261497E+00 0.19275897E+04</pdfrwt>
<pdfrwt beam="2">  1       -2 0.11414383E+00 0.19275897E+04</pdfrwt>
<totfact> 0.99006778E+00</totfact>
</mgrwt>
</event>
<event>
 6    1  0.1072514E-005  0.1584491E+04  0.7818608E-02  0.8830133E-01
         -2   -1    0    0    0  501 -0.00000000000E+00  0.00000000000E+00  0.39794255969E+03  0.39794255969E+03  0.00000000000E+00 0.  1.
          2   -1    0    0  501    0  0.00000000000E+00 -0.00000000000E+00 -0.15772458247E+04  0.15772458247E+04  0.00000000000E+00 0. -1.
         23    2    1    2    0    0 -0.51761278759E+03 -0.46871678836E+03 -0.10511604123E+04  0.12652313320E+04  0.90849796347E+02 0.  0.
         13    1    3    3    0    0 -0.47745214932E+03 -0.39740473817E+03 -0.90438247390E+03  0.10971776246E+04  0.00000000000E+00 0. -1.
        -13    1    3    3    0    0 -0.40160638268E+02 -0.71312050194E+02 -0.14677793842E+03  0.16805370741E+03  0.00000000000E+00 0.  1.
         22    1    1    2    0    0  0.51761278759E+03  0.46871678836E+03 -0.12814285273E+03  0.70995705241E+03  0.00000000000E+00 0.  1.
<mgrwt>
<rscale>  0 0.15844914E+04</rscale>
<asrwt>0</asrwt>
<pdfrwt beam="1">  1        2 0.24265320E+00 0.15844914E+04</pdfrwt>
<pdfrwt beam="2">  1       -2 0.61221933E-01 0.15844914E+04</pdfrwt>
<totfact> 0.27356602E+01</totfact>
</mgrwt>
</event>
<event>
 6    1  0.1072514E-005  0.1485737E+04  0.7818608E-02  0.8893993E-01
          1   -1    0    0  501    0  0.00000000000E+00  0.00000000000E+00  0.89409727370E+03  0.89409727370E+03  0.00000000000E+00 0. -1.
         -1   -1    0    0    0  501 -0.00000000000E+00 -0.00000000000E+00 -0.61721902642E+03  0.61721902642E+03  0.00000000000E+00 0.  1.
         23    2    1    2    0    0 -0.41520320468E+03 -0.27188310459E+03 -0.41941774708E+03  0.65624774409E+03  0.91846237330E+02 0.  0.
         13    1    3    3    0    0 -0.35092639494E+03 -0.23632064207E+03 -0.31016042236E+03  0.52459152503E+03  0.00000000000E+00 0.  1.
        -13    1    3    3    0    0 -0.64276809744E+02 -0.35562462517E+02 -0.10925732472E+03  0.13165621906E+03  0.00000000000E+00 0. -1.
         22    1    1    2    0    0  0.41520320468E+03  0.27188310459E+03  0.69629599437E+03  0.85506855603E+03  0.00000000000E+00 0. -1.
<mgrwt>
<rscale>  0 0.14857373E+04</rscale>
<asrwt>0</asrwt>
<pdfrwt beam="1">  1        1 0.13755343E+00 0.14857373E+04</pdfrwt>
<pdfrwt beam="2">  1       -1 0.94956773E-01 0.14857373E+04</pdfrwt>
<totfact> 0.19107738E+01</totfact>
</mgrwt>
</event>
<event>
 6    1  0.1072514E-005  0.1196967E+04  0.7818608E-02  0.9115515E-01
         -1   -1    0    0    0  501 -0.00000000000E+00  0.00000000000E+00  0.26266888216E+03  0.26266888216E+03  0.00000000000E+00 0.  1.
          1   -1    0    0  501    0  0.00000000000E+00 -0.00000000000E+00 -0.13636281670E+04  0.13636281670E+04  0.00000000000E+00 0. -1.
         23    2    1    2    0    0  0.45389687420E+03 -0.78078847562E+02 -0.10629444644E+04  0.11641674078E+04  0.11539558135E+03 0.  0.
         11    1    3    3    0    0  0.40052009443E+03 -0.79803084634E+02 -0.82810869662E+03  0.92333574163E+03  0.00000000000E+00 0.  1.
        -11    1    3    3    0    0  0.53376779770E+02  0.17242370725E+01 -0.23483576776E+03  0.24083166617E+03  0.00000000000E+00 0. -1.
         22    1    1    2    0    0 -0.45389687420E+03  0.78078847562E+02 -0.38014820447E+02  0.46212964135E+03  0.00000000000E+00 0.  1.
<mgrwt>
<rscale>  0 0.11969673E+04</rscale>
<asrwt>0</asrwt>
<pdfrwt beam="1">  1        1 0.20978895E+00 0.11969673E+04</pdfrwt>
<pdfrwt beam="2">  1       -1 0.40410596E-01 0.11969673E+04</pdfrwt>
<totfact> 0.48211420E+01</totfact>
</mgrwt>
</event>
<event>
 6    1  0.1072514E-005  0.1934309E+04  0.7818608E-02  0.8637965E-01
          2   -1    0    0  501    0  0.00000000000E+00  0.00000000000E+00  0.15090214758E+04  0.15090214758E+04  0.00000000000E+00 0. -1.
         -2   -1    0    0    0  501 -0.00000000000E+00 -0.00000000000E+00 -0.61986390955E+03  0.61986390955E+03  0.00000000000E+00 0.  1.
         23    2    1    2    0    0  0.60714835009E+03  0.74217650099E+03  0.56384967831E+03  0.11163241281E+04  0.93797770211E+02 0.  0.
         11    1    3    3    0    0  0.23845406375E+03  0.22148893551E+03  0.18905397237E+03  0.37637626591E+03  0.00000000000E+00 0. -1.
        -11    1    3    3    0    0  0.36869428634E+03  0.52068756548E+03  0.37479570594E+03  0.73994786223E+03  0.00000000000E+00 0.  1.
         22    1    1    2    0    0 -0.60714835009E+03 -0.74217650099E+03  0.32530788792E+03  0.10125612572E+04  0.00000000000E+00 0.  1.
<mgrwt>
<rscale>  0 0.19343091E+04</rscale>
<asrwt>0</asrwt>
<pdfrwt beam="1">  1        2 0.23215715E+00 0.19343091E+04</pdfrwt>
<pdfrwt beam="2">  1       -2 0.95363679E-01 0.19343091E+04</pdfrwt>
<totfact> 0.10824548E+01</totfact>
</mgrwt>
</event>
<event>
 6    1  0.1072514E-005  0.4988260E+03  0.7818608E-02  0.1014086E+00
          1   -1    0    0  501    0  0.00000000000E+00  0.00000000000E+00  0.83343897272E+03  0.83343897272E+03  0.00000000000E+00 0. -1.
         -1   -1    0    0    0  501 -0.00000000000E+00 -0.00000000000E+00 -0.74638746502E+02  0.74638746502E+02  0.00000000000E+00 0.  1.
         23    2    1    2    0    0  0.13552586474E+03 -0.12758080130E+03  0.67064714574E+03  0.70212848647E+03  0.92588857592E+02 0.  0.
         11    1    3    3    0    0  0.80159979656E+02 -0.83849391623E+02  0.55226584124E+03  0.56431720000E+03  0.00000000000E+00 0.  1.
        -11    1    3    3    0    0  0.55365885086E+02 -0.43731409678E+02  0.11838130449E+03  0.13781128646E+03  0.00000000000E+00 0. -1.
         22    1    1    2    0    0 -0.13552586474E+03  0.12758080130E+03  0.88153080484E+02  0.20594923276E+03  0.00000000000E+00 0.  1.
<mgrwt>
<rscale>  0 0.49882598E+03</rscale>
<asrwt>0</asrwt>
<pdfrwt beam="1">  1        1 0.12822137E+00 0.49882598E+03</pdfrwt>
<pdfrwt beam="2">  1       -1 0.11482885E-01 0.49882598E+03</pdfrwt>
<totfact> 0.10578483E+03</totfact>
</mgrwt>
</event>
<event>
 6    1  0.1072514E-005  0.2415504E+04  0.7818608E-02  0.8433722E-01
          2   -1    0    0  501    0  0.00000000000E+00  0.00000000000E+00  0.31783728435E+04  0.31783728435E+04  0.00000000000E+00 0.  1.
         -2   -1    0    0    0  501 -0.00000000000E+00 -0.00000000000E+00 -0.45893457854E+03  0.45893457854E+03  0.00000000000E+00 0. -1.
         23    2    1    2    0    0 -0.31960616113E+03  0.19070444221E+03  0.30890880887E+04  0.31127530639E+04  0.90830250878E+02 0.  0.
         11    1    3    3    0    0 -0.75938609903E+02  0.92157995796E+02  0.10634273590E+04  0.10701109833E+04  0.00000000000E+00 0.  1.
        -11    1    3    3    0    0 -0.24366755123E+03  0.98546446410E+02  0.20256607297E+04  0.20426420807E+04  0.00000000000E+00 0. -1.
         22    1    1    2    0    0  0.31960616113E+03 -0.19070444221E+03 -0.36964982372E+03  0.52455435818E+03  0.00000000000E+00 0. -1.
<mgrwt>
<rscale>  0 0.24155043E+04</rscale>
<asrwt>0</asrwt>
<pdfrwt beam="1">  1        2 0.48898042E+00 0.24155043E+04</pdfrwt>
<pdfrwt beam="2">  1       -2 0.70605322E-01 0.24155043E+04</pdfrwt>
<totfact> 0.21963578E+00</totfact>
</mgrwt>
</event>
<event>
 6    1  0.1072514E-005  0.2970937E+04  0.7818608E-02  0.8252079E-01
          2   -1    0    0  501    0  0.00000000000E+00  0.00000000000E+00  0.16083397201E+04  0.16083397201E+04  0.00000000000E+00 0. -1.
         -2   -1    0    0    0  501 -0.00000000000E+00 -0.00000000000E+00 -0.13719839693E+04  0.13719839693E+04  0.00000000000E+00 0.  1.
         23    2    1    2    0    0  0.34013097115E+03 -0.12117292874E+04 -0.66958392533E+03  0.14296130007E+04  0.10711561525E+03 0.  0.
         11    1    3    3    0    0  0.23352773453E+03 -0.63449768012E+03 -0.35552814633E+03  0.76388662229E+03  0.00000000000E+00 0.  1.
        -11    1    3    3    0    0  0.10660323663E+03 -0.57723160732E+03 -0.31405577900E+03  0.66572637838E+03  0.00000000000E+00 0. -1.
         22    1    1    2    0    0 -0.34013097115E+03  0.12117292874E+04  0.90593967612E+03  0.15507106888E+04  0.00000000000E+00 0. -1.
<mgrwt>
<rscale>  0 0.29709368E+04</rscale>
<asrwt>0</asrwt>
<pdfrwt beam="1">  1        2 0.24743688E+00 0.29709368E+04</pdfrwt>
<pdfrwt beam="2">  1       -2 0.21107446E+00 0.29709368E+04</pdfrwt>
<totfact> 0.10669938E+00</totfact>
</mgrwt>
</event>
<event>
 6    1  0.1072514E-005  0.1283663E+04  0.7818608E-02  0.9042622E-01
          4   -1    0    0  501    0  0.00000000000E+00  0.00000000000E+00  0.67827715062E+03  0.67827715062E+03  0.00000000000E+00 0. -1.
         -4   -1    0    0    0  501 -0.00000000000E+00 -0.00000000000E+00 -0.60734401888E+03  0.60734401888E+03  0.00000000000E+00 0.  1.
         23    2    1    2    0    0 -0.26564578008E+03  0.54643662195E+03  0.23251763955E+03  0.65691597990E+03  0.91178339845E+02 0.  0.
         11    1    3    3    0    0 -0.24538521536E+03  0.44352443444E+03  0.16908204862E+03  0.53433750292E+03  0.00000000000E+00 0. -1.
        -11    1    3    3    0    0 -0.20260564721E+02  0.10291218752E+03  0.63435590924E+02  0.12257847698E+03  0.00000000000E+00 0.  1.
         22    1    1    2    0    0  0.26564578008E+03 -0.54643662195E+03 -0.16158450781E+03  0.62870518961E+03  0.00000000000E+00 0.  1.
<mgrwt>
<rscale>  0 0.12836628E+04</rscale>
<asrwt>0</asrwt>
<pdfrwt beam="1">  1        4 0.10435033E+00 0.12836628E+04</pdfrwt>
<pdfrwt beam="2">  1       -4 0.93437541E-01 0.12836628E+04</pdfrwt>
<totfact> 0.14154508E+00</totfact>
</mgrwt>
</event>
<event>
 6    1  0.1072514E-005  0.9935006E+03  0.7818608E-02  0.9315702E-01
         -1   -1    0    0    0  501 -0.00000000000E+00  0.00000000000E+00  0.20206254852E+03  0.20206254852E+03  0.00000000000E+00 0.  1.
          1   -1    0    0  501    0  0.00000000000E+00 -0.00000000000E+00 -0.12212103045E+04  0.12212103045E+04  0.00000000000E+00 0. -1.
         23    2    1    2    0    0  0.27281753242E+03 -0.35099287518E+03 -0.82041736713E+03  0.93632401394E+03  0.77411874849E+02 0.  0.
         13    1    3    3    0    0  0.12105661469E+03 -0.10465844227E+03 -0.25219881419E+03  0.29868434070E+03  0.00000000000E+00 0.  1.
        -13    1    3    3    0    0  0.15176091773E+03 -0.24633443291E+03 -0.56821855293E+03  0.63763967324E+03  0.00000000000E+00 0. -1.
         22    1    1    2    0    0 -0.27281753242E+03  0.35099287518E+03 -0.19873038885E+03  0.48694883908E+03  0.00000000000E+00 0.  1.
<mgrwt>
<rscale>  0 0.99350061E+03</rscale>
<asrwt>0</asrwt>
<pdfrwt beam="1">  1        1 0.18787851E+00 0.99350061E+03</pdfrwt>
<pdfrwt beam="2">  1       -1 0.31086545E-01 0.99350061E+03</pdfrwt>
<totfact> 0.99011311E+01</totfact>
</mgrwt>
</event>
<event>
 6    1  0.1072514E-005  0.2858501E+04  0.7818608E-02  0.8285333E-01
          1   -1    0    0  501    0  0.00000000000E+00  0.00000000000E+00  0.12873354572E+04  0.12873354572E+04  0.00000000000E+00 0. -1.
         -1   -1    0    0    0  501 -0.00000000000E+00 -0.00000000000E+00 -0.15868102062E+04  0.15868102062E+04  0.00000000000E+00 0.  1.
         23    2    1    2    0    0  0.13500595344E+04 -0.30341548762E+03  0.20413060985E+03  0.14016172046E+04  0.90220716088E+02 0.  0.
         13    1    3    3    0    0  0.71873715961E+03 -0.12203241356E+03  0.83791633789E+02  0.73382290265E+03  0.00000000000E+00 0. -1.
        -13    1    3    3    0    0  0.63132237483E+03 -0.18138307405E+03  0.12033897606E+03  0.66779430192E+03  0.00000000000E+00 0.  1.
         22    1    1    2    0    0 -0.13500595344E+04  0.30341548762E+03 -0.50360535884E+03  0.14725284589E+04  0.00000000000E+00 0.  1.
<mgrwt>
<rscale>  0 0.28585010E+04</rscale>
<asrwt>0</asrwt>
<pdfrwt beam="1">  1        1 0.19805161E+00 0.28585010E+04</pdfrwt>
<pdfrwt beam="2">  1       -1 0.24412465E+00 0.28585010E+04</pdfrwt>
<totfact> 0.60606885E-01</totfact>
</mgrwt>
</event>
<event>
 6    1  0.1072514E-005  0.2656406E+04  0.7818608E-02  0.8349290E-01
          1   -1    0    0  501    0  0.00000000000E+00  0.00000000000E+00  0.92314896815E+03  0.92314896815E+03  0.00000000000E+00 0. -1.
         -1   -1    0    0    0  501 -0.00000000000E+00 -0.00000000000E+00 -0.19109841957E+04  0.19109841957E+04  0.00000000000E+00 0.  1.
         23    2    1    2    0    0 -0.19377570737E+03 -0.49987747846E+03  0.80033780268E+03  0.96732055829E+03  0.87988327991E+02 0.  0.
         11    1    3    3    0    0 -0.13925074471E+03 -0.33800969933E+03  0.46996468037E+03  0.59540585111E+03  0.00000000000E+00 0. -1.
        -11    1    3    3    0    0 -0.54524962653E+02 -0.16186777913E+03  0.33037312231E+03  0.37191470718E+03  0.00000000000E+00 0.  1.
         22    1    1    2    0    0  0.19377570737E+03  0.49987747846E+03 -0.17881730303E+04  0.18668126056E+04  0.00000000000E+00 0.  1.
<mgrwt>
<rscale>  0 0.26564059E+04</rscale>
<asrwt>0</asrwt>
<pdfrwt beam="1">  1        1 0.14202292E+00 0.26564059E+04</pdfrwt>
<pdfrwt beam="2">  1       -1 0.29399756E+00 0.26564059E+04</pdfrwt>
<totfact> 0.55151699E-01</totfact>
</mgrwt>
</event>
<event>
 6    1  0.1072514E-005  0.3465624E+04  0.7818608E-02  0.8121985E-01
         -2   -1    0    0    0  501 -0.00000000000E+00  0.00000000000E+00  0.23761317572E+04  0.23761317572E+04  0.00000000000E+00 0.  1.
          2   -1    0    0  501    0  0.00000000000E+00 -0.00000000000E+00 -0.12636665451E+04  0.12636665451E+04  0.00000000000E+00 0. -1.
         23    2    1    2    0    0 -0.64440867812E+03  0.13837269210E+04  0.14153721074E+04  0.20836121554E+04  0.90546537000E+02 0.  0.
         11    1    3    3    0    0 -0.15810029247E+03  0.40203772330E+03  0.35856139800E+03  0.56142346724E+03  0.00000000000E+00 0.  1.
        -11    1    3    3    0    0 -0.48630838565E+03  0.98168919772E+03  0.10568107094E+04  0.15221886882E+04  0.00000000000E+00 0. -1.
         22    1    1    2    0    0  0.64440867812E+03 -0.13837269210E+04 -0.30290689530E+03  0.15561861468E+04  0.00000000000E+00 0. -1.
<mgrwt>
<rscale>  0 0.34656245E+04</rscale>
<asrwt>0</asrwt>
<pdfrwt beam="1">  1        2 0.19441024E+00 0.34656245E+04</pdfrwt>
<pdfrwt beam="2">  1       -2 0.36555873E+00 0.34656245E+04</pdfrwt>
<totfact> 0.17722773E-01</totfact>
</mgrwt>
</event>
<event>
 6    1  0.1072514E-005  0.1411240E+04  0.7818608E-02  0.8945723E-01
          1   -1    0    0  501    0  0.00000000000E+00  0.00000000000E+00  0.58054971824E+03  0.58054971824E+03  0.00000000000E+00 0. -1.
         -1   -1    0    0    0  501 -0.00000000000E+00 -0.00000000000E+00 -0.85763421291E+03  0.85763421291E+03  0.00000000000E+00 0.  1.
         23    2    1    2    0    0 -0.40247503785E+03 -0.38494369923E+03  0.29763531918E+03  0.63788981516E+03  0.90270844662E+02 0.  0.
         13    1    3    3    0    0 -0.11593765612E+03 -0.15755652063E+03  0.13430559531E+03  0.23728377575E+03  0.00000000000E+00 0.  1.
        -13    1    3    3    0    0 -0.28653738172E+03 -0.22738717860E+03  0.16332972387E+03  0.40060603941E+03  0.00000000000E+00 0. -1.
         22    1    1    2    0    0  0.40247503785E+03  0.38494369923E+03 -0.57471981385E+03  0.80029411599E+03  0.00000000000E+00 0.  1.
<mgrwt>
<rscale>  0 0.14112396E+04</rscale>
<asrwt>0</asrwt>
<pdfrwt beam="1">  1        1 0.89315341E-01 0.14112396E+04</pdfrwt>
<pdfrwt beam="2">  1       -1 0.13194372E+00 0.14112396E+04</pdfrwt>
<totfact> 0.17092842E+01</totfact>
</mgrwt>
</event>
<event>
 6    1  0.1072514E-005  0.3301329E+04  0.7818608E-02  0.8162557E-01
         -2   -1    0    0    0  501 -0.00000000000E+00  0.00000000000E+00  0.11478748999E+04  0.11478748999E+04  0.00000000000E+00 0.  1.
          2   -1    0    0  501    0  0.00000000000E+00 -0.00000000000E+00 -0.23736846958E+04  0.23736846958E+04  0.00000000000E+00 0. -1.
         23    2    1    2    0    0  0.51963187080E+03  0.13463886360E+04  0.23821344478E+03  0.14658009304E+04  0.95116150686E+02 0.  0.
         11    1    3    3    0    0  0.42631891627E+03  0.11895349845E+04  0.20041916089E+03  0.12794174994E+04  0.00000000000E+00 0.  1.
        -11    1    3    3    0    0  0.93312954535E+02  0.15685365145E+03  0.37794283890E+02  0.18638343101E+03  0.00000000000E+00 0. -1.
         22    1    1    2    0    0 -0.51963187080E+03 -0.13463886360E+04 -0.14640232408E+04  0.20557586653E+04  0.00000000000E+00 0. -1.
<mgrwt>
<rscale>  0 0.33013289E+04</rscale>
<asrwt>0</asrwt>
<pdfrwt beam="1">  1        2 0.36518226E+00 0.33013289E+04</pdfrwt>
<pdfrwt beam="2">  1       -2 0.17659614E+00 0.33013289E+04</pdfrwt>
<totfact> 0.65812008E-01</totfact>
</mgrwt>
</event>
<event>
 6    1  0.1253659E-005  0.5140453E+04  0.7818608E-02  0.7807199E-01
          2   -1    0    0  501    0  0.00000000000E+00  0.00000000000E+00  0.34847121099E+04  0.34847121099E+04  0.00000000000E+00 0. -1.
         -2   -1    0    0    0  501 -0.00000000000E+00 -0.00000000000E+00 -0.18957276876E+04  0.18957276876E+04  0.00000000000E+00 0.  1.
         23    2    1    2    0    0  0.20340609198E+02 -0.34622738566E+03  0.34596434932E+04  0.34779013609E+04  0.79860086615E+02 0.  0.
         11    1    3    3    0    0  0.26368900256E+02 -0.96475781454E+02  0.72420986320E+03  0.73108332033E+03  0.00000000000E+00 0. -1.
        -11    1    3    3    0    0 -0.60282910579E+01 -0.24975160421E+03  0.27354336300E+04  0.27468180406E+04  0.00000000000E+00 0.  1.
         22    1    1    2    0    0 -0.20340609198E+02  0.34622738566E+03 -0.18706590709E+04  0.19025384366E+04  0.00000000000E+00 0.  1.
<mgrwt>
<rscale>  0 0.51404534E+04</rscale>
<asrwt>0</asrwt>
<pdfrwt beam="1">  1        2 0.53610955E+00 0.51404534E+04</pdfrwt>
<pdfrwt beam="2">  1       -2 0.29165041E+00 0.51404534E+04</pdfrwt>
<totfact> 0.21404897E-02</totfact>
</mgrwt>
</event>
<event>
 6    1  0.1072514E-005  0.2497253E+04  0.7818608E-02  0.8403965E-01
          2   -1    0    0  501    0  0.00000000000E+00  0.00000000000E+00  0.17866945853E+04  0.17866945853E+04  0.00000000000E+00 0. -1.
         -2   -1    0    0    0  501 -0.00000000000E+00 -0.00000000000E+00 -0.87259942871E+03  0.87259942871E+03  0.00000000000E+00 0.  1.
         23    2    1    2    0    0  0.12833316015E+03  0.10889312674E+04  0.10900775959E+04  0.15487938906E+04  0.90844073152E+02 0.  0.
         11    1    3    3    0    0  0.13985541151E+03  0.10045226944E+04  0.98889608734E+03  0.14165242148E+04  0.00000000000E+00 0. -1.
        -11    1    3    3    0    0 -0.11522251361E+02  0.84408572987E+02  0.10118150852E+03  0.13226967580E+03  0.00000000000E+00 0.  1.
         22    1    1    2    0    0 -0.12833316015E+03 -0.10889312674E+04 -0.17598243931E+03  0.11105001233E+04  0.00000000000E+00 0.  1.
<mgrwt>
<rscale>  0 0.24972534E+04</rscale>
<asrwt>0</asrwt>
<pdfrwt beam="1">  1        2 0.27487609E+00 0.24972534E+04</pdfrwt>
<pdfrwt beam="2">  1       -2 0.13424607E+00 0.24972534E+04</pdfrwt>
<totfact> 0.31338162E+00</totfact>
</mgrwt>
</event>
<event>
 6    1  0.1072514E-005  0.4112500E+04  0.7818608E-02  0.7982228E-01
          2   -1    0    0  501    0  0.00000000000E+00  0.00000000000E+00  0.18200265303E+04  0.18200265303E+04  0.00000000000E+00 0. -1.
         -2   -1    0    0    0  501 -0.00000000000E+00 -0.00000000000E+00 -0.23231330562E+04  0.23231330562E+04  0.00000000000E+00 0.  1.
         23    2    1    2    0    0  0.19677481720E+04 -0.58194543136E+03 -0.36885591350E+03  0.20867752399E+04  0.88785490622E+02 0.  0.
         13    1    3    3    0    0  0.13341311644E+04 -0.39860701782E+03 -0.29211677304E+03  0.14227177259E+04  0.00000000000E+00 0. -1.
        -13    1    3    3    0    0  0.63361700761E+03 -0.18333841354E+03 -0.76739140467E+02  0.66405751400E+03  0.00000000000E+00 0.  1.
         22    1    1    2    0    0 -0.19677481720E+04  0.58194543136E+03 -0.13425061241E+03  0.20563843465E+04  0.00000000000E+00 0.  1.
<mgrwt>
<rscale>  0 0.41124999E+04</rscale>
<asrwt>0</asrwt>
<pdfrwt beam="1">  1        2 0.28000408E+00 0.41124999E+04</pdfrwt>
<pdfrwt beam="2">  1       -2 0.35740509E+00 0.41124999E+04</pdfrwt>
<totfact> 0.91817959E-02</totfact>
</mgrwt>
</event>
<event>
 6    1  0.1072514E-005  0.1471507E+04  0.7818608E-02  0.8903625E-01
         -1   -1    0    0    0  501 -0.00000000000E+00  0.00000000000E+00  0.57395686650E+03  0.57395686650E+03  0.00000000000E+00 0.  1.
          1   -1    0    0  501    0  0.00000000000E+00 -0.00000000000E+00 -0.94315980544E+03  0.94315980544E+03  0.00000000000E+00 0. -1.
         23    2    1    2    0    0 -0.45577012288E+03  0.47373033068E+03 -0.51946662297E+03  0.84278292234E+03  0.91053010321E+02 0.  0.
         11    1    3    3    0    0 -0.12209778507E+03  0.16868575659E+03 -0.20394272156E+03  0.29147107450E+03  0.00000000000E+00 0.  1.
        -11    1    3    3    0    0 -0.33367233781E+03  0.30504457409E+03 -0.31552390141E+03  0.55131184783E+03  0.00000000000E+00 0. -1.
         22    1    1    2    0    0  0.45577012288E+03 -0.47373033068E+03  0.15026368403E+03  0.67433374960E+03  0.00000000000E+00 0.  1.
<mgrwt>
<rscale>  0 0.14715068E+04</rscale>
<asrwt>0</asrwt>
<pdfrwt beam="1">  1        1 0.14510151E+00 0.14715068E+04</pdfrwt>
<pdfrwt beam="2">  1       -1 0.88301057E-01 0.14715068E+04</pdfrwt>
<totfact> 0.20508144E+01</totfact>
</mgrwt>
</event>
<event>
 6    1  0.1072514E-005  0.1911644E+04  0.7818608E-02  0.8649082E-01
         -1   -1    0    0    0  501 -0.00000000000E+00  0.00000000000E+00  0.35559159993E+03  0.35559159993E+03  0.00000000000E+00 0.  1.
          1   -1    0    0  501    0  0.00000000000E+00 -0.00000000000E+00 -0.25692284013E+04  0.25692284013E+04  0.00000000000E+00 0. -1.
         23    2    1    2    0    0 -0.50325104615E+03 -0.51962378848E+03 -0.20599921900E+04  0.21853085655E+04  0.93462327687E+02 0.  0.
         13    1    3    3    0    0 -0.41489556773E+03 -0.42306660685E+03 -0.17844457069E+04  0.18802580054E+04  0.00000000000E+00 0. -1.
        -13    1    3    3    0    0 -0.88355478419E+02 -0.96557181631E+02 -0.27554648307E+03  0.30505056011E+03  0.00000000000E+00 0.  1.
         22    1    1    2    0    0  0.50325104615E+03  0.51962378848E+03 -0.15364461144E+03  0.73951143577E+03  0.00000000000E+00 0.  1.
<mgrwt>
<rscale>  0 0.19116444E+04</rscale>
<asrwt>0</asrwt>
<pdfrwt beam="1">  1        1 0.39526591E+00 0.19116444E+04</pdfrwt>
<pdfrwt beam="2">  1       -1 0.54706400E-01 0.19116444E+04</pdfrwt>
<totfact> 0.38292715E+00</totfact>
</mgrwt>
</event>
<event>
 6    1  0.1072514E-005  0.2249561E+04  0.7818608E-02  0.8498078E-01
          2   -1    0    0  501    0  0.00000000000E+00  0.00000000000E+00  0.20160231331E+04  0.20160231331E+04  0.00000000000E+00 0. -1.
         -2   -1    0    0    0  501 -0.00000000000E+00 -0.00000000000E+00 -0.62753793310E+03  0.62753793310E+03  0.00000000000E+00 0.  1.
         23    2    1    2    0    0  0.90305221405E+01  0.74791420455E+03 -0.28918678530E+03  0.80670492105E+03  0.87673400472E+02 0.  0.
         11    1    3    3    0    0  0.43758034754E+01  0.67272327941E+03 -0.23022944298E+03  0.71104244229E+03  0.00000000000E+00 0. -1.
        -11    1    3    3    0    0  0.46547186651E+01  0.75190925141E+02 -0.58957342321E+02  0.95662478762E+02  0.00000000000E+00 0.  1.
         22    1    1    2    0    0 -0.90305221405E+01 -0.74791420455E+03  0.16776719853E+04  0.18368561451E+04  0.00000000000E+00 0. -1.
<mgrwt>
<rscale>  0 0.22495608E+04</rscale>
<asrwt>0</asrwt>
<pdfrwt beam="1">  1        2 0.31015740E+00 0.22495608E+04</pdfrwt>
<pdfrwt beam="2">  1       -2 0.96544298E-01 0.22495608E+04</pdfrwt>
<totfact> 0.53470250E+00</totfact>
</mgrwt>
</event>
<event>
 6    1  0.1072514E-005  0.2162833E+04  0.7818608E-02  0.8534059E-01
          2   -1    0    0  501    0  0.00000000000E+00  0.00000000000E+00  0.24045320847E+04  0.24045320847E+04  0.00000000000E+00 0. -1.
         -2   -1    0    0    0  501 -0.00000000000E+00 -0.00000000000E+00 -0.48635745183E+03  0.48635745183E+03  0.00000000000E+00 0.  1.
         23    2    1    2    0    0  0.10786968751E+04 -0.19297707646E+02  0.91325186585E+03  0.14164984359E+04  0.92084193949E+02 0.  0.
         11    1    3    3    0    0  0.32076752980E+03 -0.11404194691E+02  0.21838605313E+03  0.38821943799E+03  0.00000000000E+00 0. -1.
        -11    1    3    3    0    0  0.75792934526E+03 -0.78935129545E+01  0.69486581272E+03  0.10282789980E+04  0.00000000000E+00 0.  1.
         22    1    1    2    0    0 -0.10786968751E+04  0.19297707646E+02  0.10049227670E+04  0.14743911006E+04  0.00000000000E+00 0. -1.
<mgrwt>
<rscale>  0 0.21628334E+04</rscale>
<asrwt>0</asrwt>
<pdfrwt beam="1">  1        2 0.36992801E+00 0.21628334E+04</pdfrwt>
<pdfrwt beam="2">  1       -2 0.74824225E-01 0.21628334E+04</pdfrwt>
<totfact> 0.58158794E+00</totfact>
</mgrwt>
</event>
<event>
 6    1  0.1072514E-005  0.9738675E+03  0.7818608E-02  0.9337680E-01
          1   -1    0    0  501    0  0.00000000000E+00  0.00000000000E+00  0.10068227642E+04  0.10068227642E+04  0.00000000000E+00 0. -1.
         -1   -1    0    0    0  501 -0.00000000000E+00 -0.00000000000E+00 -0.23549770955E+03  0.23549770955E+03  0.00000000000E+00 0.  1.
         23    2    1    2    0    0 -0.33366690603E+03  0.34828820811E+03  0.36449190674E+03  0.61132800918E+03  0.90715514902E+02 0.  0.
         13    1    3    3    0    0 -0.29118431949E+03  0.29722843468E+03  0.34910829179E+03  0.54314790775E+03  0.00000000000E+00 0. -1.
        -13    1    3    3    0    0 -0.42482586537E+02  0.51059773439E+02  0.15383614949E+02  0.68180101433E+02  0.00000000000E+00 0.  1.
         22    1    1    2    0    0  0.33366690603E+03 -0.34828820811E+03  0.40683314786E+03  0.63099246453E+03  0.00000000000E+00 0.  1.
<mgrwt>
<rscale>  0 0.97386745E+03</rscale>
<asrwt>0</asrwt>
<pdfrwt beam="1">  1        1 0.15489581E+00 0.97386745E+03</pdfrwt>
<pdfrwt beam="2">  1       -1 0.36230417E-01 0.97386745E+03</pdfrwt>
<totfact> 0.10930341E+02</totfact>
</mgrwt>
</event>
<event>
 6    1  0.1072514E-005  0.2276585E+04  0.7818608E-02  0.8487211E-01
          2   -1    0    0  501    0  0.00000000000E+00  0.00000000000E+00  0.12370600181E+04  0.12370600181E+04  0.00000000000E+00 0. -1.
         -2   -1    0    0    0  501 -0.00000000000E+00 -0.00000000000E+00 -0.10474103402E+04  0.10474103402E+04  0.00000000000E+00 0.  1.
         23    2    1    2    0    0 -0.15853566874E+03 -0.10952007130E+04  0.35487743307E+03  0.11655877143E+04  0.89769522816E+02 0.  0.
         13    1    3    3    0    0 -0.15253952848E+03 -0.10725482058E+04  0.33258076955E+03  0.11332422203E+04  0.00000000000E+00 0. -1.
        -13    1    3    3    0    0 -0.59961402620E+01 -0.22652507167E+02  0.22296663517E+02  0.32345494014E+02  0.00000000000E+00 0.  1.
         22    1    1    2    0    0  0.15853566874E+03  0.10952007130E+04 -0.16522775511E+03  0.11188826440E+04  0.00000000000E+00 0.  1.
<mgrwt>
<rscale>  0 0.22765847E+04</rscale>
<asrwt>0</asrwt>
<pdfrwt beam="1">  1        2 0.19031693E+00 0.22765847E+04</pdfrwt>
<pdfrwt beam="2">  1       -2 0.16114005E+00 0.22765847E+04</pdfrwt>
<totfact> 0.40402649E+00</totfact>
</mgrwt>
</event>
<event>
 6    1  0.1072514E-005  0.3049243E+04  0.7818608E-02  0.8229807E-01
          2   -1    0    0  501    0  0.00000000000E+00  0.00000000000E+00  0.30574715900E+04  0.30574715900E+04  0.00000000000E+00 0. -1.
         -2   -1    0    0    0  501 -0.00000000000E+00 -0.00000000000E+00 -0.76025930469E+03  0.76025930469E+03  0.00000000000E+00 0.  1.
         23    2    1    2    0    0  0.11436157989E+04  0.87792042436E+03  0.53369655181E+03  0.15398834219E+04  0.88360493065E+02 0.  0.
         11    1    3    3    0    0  0.29501035174E+03  0.25654072648E+03  0.11164117945E+03  0.40658087132E+03  0.00000000000E+00 0. -1.
        -11    1    3    3    0    0  0.84860544714E+03  0.62137969788E+03  0.42205537236E+03  0.11333025506E+04  0.00000000000E+00 0.  1.
         22    1    1    2    0    0 -0.11436157989E+04 -0.87792042436E+03  0.17635157336E+04  0.22778474728E+04  0.00000000000E+00 0. -1.
<mgrwt>
<rscale>  0 0.30492433E+04</rscale>
<asrwt>0</asrwt>
<pdfrwt beam="1">  1        2 0.47038024E+00 0.30492433E+04</pdfrwt>
<pdfrwt beam="2">  1       -2 0.11696297E+00 0.30492433E+04</pdfrwt>
<totfact> 0.77199985E-01</totfact>
</mgrwt>
</event>
<event>
 6    1  0.1072514E-005  0.1580352E+04  0.7818608E-02  0.8832710E-01
          2   -1    0    0  501    0  0.00000000000E+00  0.00000000000E+00  0.22153687123E+04  0.22153687123E+04  0.00000000000E+00 0. -1.
         -2   -1    0    0    0  501 -0.00000000000E+00 -0.00000000000E+00 -0.28183944329E+03  0.28183944329E+03  0.00000000000E+00 0.  1.
         23    2    1    2    0    0  0.60785202299E+03  0.12087129142E+02  0.17610758174E+04  0.18652505830E+04  0.90230384344E+02 0.  0.
         13    1    3    3    0    0  0.31775907716E+03  0.43483570509E+02  0.84446756198E+03  0.90332005139E+03  0.00000000000E+00 0.  1.
        -13    1    3    3    0    0  0.29009294583E+03 -0.31396441366E+02  0.91660825540E+03  0.96193053160E+03  0.00000000000E+00 0. -1.
         22    1    1    2    0    0 -0.60785202299E+03 -0.12087129142E+02  0.17245345160E+03  0.63195757256E+03  0.00000000000E+00 0.  1.
<mgrwt>
<rscale>  0 0.15803522E+04</rscale>
<asrwt>0</asrwt>
<pdfrwt beam="1">  1        2 0.34082594E+00 0.15803522E+04</pdfrwt>
<pdfrwt beam="2">  1       -2 0.43359916E-01 0.15803522E+04</pdfrwt>
<totfact> 0.24539145E+01</totfact>
</mgrwt>
</event>
<event>
 6    1  0.1072514E-005  0.1048971E+04  0.7818608E-02  0.9256408E-01
          2   -1    0    0  501    0  0.00000000000E+00  0.00000000000E+00  0.48062382172E+03  0.48062382172E+03  0.00000000000E+00 0.  1.
         -2   -1    0    0    0  501 -0.00000000000E+00 -0.00000000000E+00 -0.57234944841E+03  0.57234944841E+03  0.00000000000E+00 0. -1.
         23    2    1    2    0    0  0.24050192207E+03 -0.72900157128E+02 -0.50390090117E+03  0.57022689331E+03  0.89927661077E+02 0.  0.
         13    1    3    3    0    0  0.16979129904E+03 -0.38934328475E+02 -0.25165014344E+03  0.30606006250E+03  0.00000000000E+00 0. -1.
        -13    1    3    3    0    0  0.70710623025E+02 -0.33965828653E+02 -0.25225075773E+03  0.26416683081E+03  0.00000000000E+00 0.  1.
         22    1    1    2    0    0 -0.24050192207E+03  0.72900157128E+02  0.41217527449E+03  0.48274637682E+03  0.00000000000E+00 0.  1.
<mgrwt>
<rscale>  0 0.10489705E+04</rscale>
<asrwt>0</asrwt>
<pdfrwt beam="1">  1        2 0.73942126E-01 0.10489705E+04</pdfrwt>
<pdfrwt beam="2">  1       -2 0.88053762E-01 0.10489705E+04</pdfrwt>
<totfact> 0.71390639E+01</totfact>
</mgrwt>
</event>
<event>
 6    1  0.1072514E-005  0.1672387E+04  0.7818608E-02  0.8777272E-01
         -2   -1    0    0    0  501 -0.00000000000E+00  0.00000000000E+00  0.40541423934E+03  0.40541423934E+03  0.00000000000E+00 0. -1.
          2   -1    0    0  501    0  0.00000000000E+00 -0.00000000000E+00 -0.17247032025E+04  0.17247032025E+04  0.00000000000E+00 0.  1.
         23    2    1    2    0    0  0.32126574770E+03  0.77301136299E+02  0.31193497750E+03  0.46576210392E+03  0.10219472070E+03 0.  0.
         11    1    3    3    0    0  0.17120357192E+03  0.68108185450E+02  0.11205515954E+03  0.21565191106E+03  0.00000000000E+00 0. -1.
        -11    1    3    3    0    0  0.15006217578E+03  0.91929508486E+01  0.19987981796E+03  0.25011019286E+03  0.00000000000E+00 0.  1.
         22    1    1    2    0    0 -0.32126574770E+03 -0.77301136299E+02 -0.16312239406E+04  0.16643553379E+04  0.00000000000E+00 0.  1.
<mgrwt>
<rscale>  0 0.16723866E+04</rscale>
<asrwt>0</asrwt>
<pdfrwt beam="1">  1        2 0.26533897E+00 0.16723866E+04</pdfrwt>
<pdfrwt beam="2">  1       -2 0.62371419E-01 0.16723866E+04</pdfrwt>
<totfact> 0.21607880E+01</totfact>
</mgrwt>
</event>
<event>
 6    1  0.1072514E-005  0.3475526E+04  0.7818608E-02  0.8119614E-01
          2   -1    0    0  501    0  0.00000000000E+00  0.00000000000E+00  0.12462122135E+04  0.12462122135E+04  0.00000000000E+00 0.  1.
         -2   -1    0    0    0  501 -0.00000000000E+00 -0.00000000000E+00 -0.24231995787E+04  0.24231995787E+04  0.00000000000E+00 0. -1.
         23    2    1    2    0    0 -0.57806399057E+03  0.15374782789E+04  0.61987112162E+01  0.16450781421E+04  0.90808780423E+02 0.  0.
         13    1    3    3    0    0 -0.36582756560E+03  0.85185483510E+03 -0.11018410393E+02  0.92715040485E+03  0.00000000000E+00 0.  1.
        -13    1    3    3    0    0 -0.21223642497E+03  0.68562344376E+03  0.17217121609E+02  0.71792773730E+03  0.00000000000E+00 0. -1.
         22    1    1    2    0    0  0.57806399057E+03 -0.15374782789E+04 -0.11831860765E+04  0.20243336501E+04  0.00000000000E+00 0.  1.
<mgrwt>
<rscale>  0 0.34755264E+04</rscale>
<asrwt>0</asrwt>
<pdfrwt beam="1">  1        2 0.19172496E+00 0.34755264E+04</pdfrwt>
<pdfrwt beam="2">  1       -2 0.37279993E+00 0.34755264E+04</pdfrwt>
<totfact> 0.16296704E-01</totfact>
</mgrwt>
</event>
<event>
 6    1  0.1072514E-005  0.2668497E+04  0.7818608E-02  0.8345300E-01
          1   -1    0    0  501    0  0.00000000000E+00  0.00000000000E+00  0.28937308456E+04  0.28937308456E+04  0.00000000000E+00 0. -1.
         -1   -1    0    0    0  501 -0.00000000000E+00 -0.00000000000E+00 -0.61519857852E+03  0.61519857852E+03  0.00000000000E+00 0.  1.
         23    2    1    2    0    0  0.10271716968E+04 -0.62227763347E+03  0.19001807742E+04  0.22497785197E+04  0.92223994925E+02 0.  0.
         13    1    3    3    0    0  0.31214051500E+03 -0.16557138435E+03  0.49151986874E+03  0.60534070223E+03  0.00000000000E+00 0. -1.
        -13    1    3    3    0    0  0.71503118185E+03 -0.45670624912E+03  0.14086609054E+04  0.16444378175E+04  0.00000000000E+00 0.  1.
         22    1    1    2    0    0 -0.10271716968E+04  0.62227763347E+03  0.37835149290E+03  0.12591509044E+04  0.00000000000E+00 0. -1.
<mgrwt>
<rscale>  0 0.26684970E+04</rscale>
<asrwt>0</asrwt>
<pdfrwt beam="1">  1        1 0.44518935E+00 0.26684970E+04</pdfrwt>
<pdfrwt beam="2">  1       -1 0.94645937E-01 0.26684970E+04</pdfrwt>
<totfact> 0.67458233E-01</totfact>
</mgrwt>
</event>
<event>
 6    1  0.1072514E-005  0.2900076E+04  0.7818608E-02  0.8272855E-01
          2   -1    0    0  501    0  0.00000000000E+00  0.00000000000E+00  0.15035403431E+04  0.15035403431E+04  0.00000000000E+00 0. -1.
         -2   -1    0    0    0  501 -0.00000000000E+00 -0.00000000000E+00 -0.13984398707E+04  0.13984398707E+04  0.00000000000E+00 0.  1.
         23    2    1    2    0    0 -0.88968169014E+03  0.52358712652E+03  0.10697336695E+04  0.14891128479E+04  0.86313158862E+02 0.  0.
         11    1    3    3    0    0 -0.21788809532E+03  0.12754703442E+03  0.31691152989E+03  0.40518685301E+03  0.00000000000E+00 0. -1.
        -11    1    3    3    0    0 -0.67179359482E+03  0.39604009209E+03  0.75282213956E+03  0.10839259949E+04  0.00000000000E+00 0.  1.
         22    1    1    2    0    0  0.88968169014E+03 -0.52358712652E+03 -0.96463319705E+03  0.14128673659E+04  0.00000000000E+00 0.  1.
<mgrwt>
<rscale>  0 0.29000764E+04</rscale>
<asrwt>0</asrwt>
<pdfrwt beam="1">  1        2 0.23131390E+00 0.29000764E+04</pdfrwt>
<pdfrwt beam="2">  1       -2 0.21514460E+00 0.29000764E+04</pdfrwt>
<totfact> 0.11573973E+00</totfact>
</mgrwt>
</event>
<event>
 6    1  0.1072514E-005  0.8382699E+03  0.7818608E-02  0.9506217E-01
         -1   -1    0    0    0  501 -0.00000000000E+00  0.00000000000E+00  0.55170725470E+03  0.55170725470E+03  0.00000000000E+00 0.  1.
          1   -1    0    0  501    0  0.00000000000E+00 -0.00000000000E+00 -0.31841902565E+03  0.31841902565E+03  0.00000000000E+00 0. -1.
         23    2    1    2    0    0 -0.99417906524E+02  0.21104961700E+03 -0.23736033672E+03  0.34483023674E+03  0.90233595464E+02 0.  0.
         11    1    3    3    0    0 -0.29479630179E+02  0.71904348365E+02 -0.14296772021E+03  0.16272385483E+03  0.00000000000E+00 0.  1.
        -11    1    3    3    0    0 -0.69938276344E+02  0.13914526863E+03 -0.94392616512E+02  0.18210638191E+03  0.00000000000E+00 0. -1.
         22    1    1    2    0    0  0.99417906524E+02 -0.21104961700E+03  0.47064856577E+03  0.52529604361E+03  0.00000000000E+00 0.  1.
<mgrwt>
<rscale>  0 0.83826985E+03</rscale>
<asrwt>0</asrwt>
<pdfrwt beam="1">  1        1 0.48987542E-01 0.83826985E+03</pdfrwt>
<pdfrwt beam="2">  1       -1 0.84878039E-01 0.83826985E+03</pdfrwt>
<totfact> 0.11262391E+02</totfact>
</mgrwt>
</event>
<event>
 6    1  0.1072514E-005  0.2964196E+04  0.7818608E-02  0.8254030E-01
         -1   -1    0    0    0  501 -0.00000000000E+00  0.00000000000E+00  0.10611386258E+04  0.10611386258E+04  0.00000000000E+00 0.  1.
          1   -1    0    0  501    0  0.00000000000E+00 -0.00000000000E+00 -0.20700537832E+04  0.20700537832E+04  0.00000000000E+00 0. -1.
         23    2    1    2    0    0 -0.61453983222E+03 -0.70083611447E+03 -0.17204339890E+04  0.19585503014E+04  0.84827518778E+02 0.  0.
         13    1    3    3    0    0 -0.44493038731E+03 -0.51964545131E+03 -0.11825803483E+04  0.13661957125E+04  0.00000000000E+00 0.  1.
        -13    1    3    3    0    0 -0.16960944491E+03 -0.18119066316E+03 -0.53785364067E+03  0.59235458890E+03  0.00000000000E+00 0. -1.
         22    1    1    2    0    0  0.61453983222E+03  0.70083611447E+03  0.71151883157E+03  0.11726421076E+04  0.00000000000E+00 0.  1.
<mgrwt>
<rscale>  0 0.29641957E+04</rscale>
<asrwt>0</asrwt>
<pdfrwt beam="1">  1        1 0.31846981E+00 0.29641957E+04</pdfrwt>
<pdfrwt beam="2">  1       -1 0.16325210E+00 0.29641957E+04</pdfrwt>
<totfact> 0.62963691E-01</totfact>
</mgrwt>
</event>
<event>
 6    1  0.1072514E-005  0.1431534E+04  0.7818608E-02  0.8931304E-01
         -1   -1    0    0    0  501 -0.00000000000E+00  0.00000000000E+00  0.87417334163E+03  0.87417334163E+03  0.00000000000E+00 0.  1.
          1   -1    0    0  501    0  0.00000000000E+00 -0.00000000000E+00 -0.58606495259E+03  0.58606495259E+03  0.00000000000E+00 0. -1.
         23    2    1    2    0    0 -0.44745615493E+03  0.55284863983E+03  0.95403296277E+02  0.72335710845E+03  0.91022460191E+02 0.  0.
         13    1    3    3    0    0 -0.18382859910E+03  0.16572574377E+03  0.13367492820E+02  0.24786420851E+03  0.00000000000E+00 0.  1.
        -13    1    3    3    0    0 -0.26362755583E+03  0.38712289606E+03  0.82035803457E+02  0.47549289994E+03  0.00000000000E+00 0. -1.
         22    1    1    2    0    0  0.44745615493E+03 -0.55284863983E+03  0.19270509277E+03  0.73688118576E+03  0.00000000000E+00 0.  1.
<mgrwt>
<rscale>  0 0.14315339E+04</rscale>
<asrwt>0</asrwt>
<pdfrwt beam="1">  1        1 0.90163839E-01 0.14315339E+04</pdfrwt>
<pdfrwt beam="2">  1       -1 0.13448821E+00 0.14315339E+04</pdfrwt>
<totfact> 0.16033295E+01</totfact>
</mgrwt>
</event>
<event>
 6    1  0.1619427E-005  0.2692601E+04  0.7818608E-02  0.8337410E-01
          1   -1    0    0  501    0  0.00000000000E+00  0.00000000000E+00  0.12490392223E+04  0.12490392223E+04  0.00000000000E+00 0. -1.
         -1   -1    0    0    0  501 -0.00000000000E+00 -0.00000000000E+00 -0.14511348685E+04  0.14511348685E+04  0.00000000000E+00 0.  1.
         23    2    1    2    0    0  0.80229096572E+03  0.32922880328E+03  0.92956248789E+03  0.12744418119E+04  0.89739146962E+02 0.  0.
         13    1    3    3    0    0  0.27346309544E+03  0.14194199268E+03  0.37857217427E+03  0.48810499382E+03  0.00000000000E+00 0. -1.
        -13    1    3    3    0    0  0.52882787028E+03  0.18728681060E+03  0.55099031361E+03  0.78633681810E+03  0.00000000000E+00 0.  1.
         22    1    1    2    0    0 -0.80229096572E+03 -0.32922880328E+03 -0.11316581341E+04  0.14257322789E+04  0.00000000000E+00 0.  1.
<mgrwt>
<rscale>  0 0.26926005E+04</rscale>
<asrwt>0</asrwt>
<pdfrwt beam="1">  1        1 0.19215988E+00 0.26926005E+04</pdfrwt>
<pdfrwt beam="2">  1       -1 0.22325152E+00 0.26926005E+04</pdfrwt>
<totfact> 0.90014429E-01</totfact>
</mgrwt>
</event>
<event>
 6    1  0.1072514E-005  0.4510267E+04  0.7818608E-02  0.7908842E-01
         -2   -1    0    0    0  501 -0.00000000000E+00  0.00000000000E+00  0.15240535920E+04  0.15240535920E+04  0.00000000000E+00 0.  1.
          2   -1    0    0  501    0  0.00000000000E+00 -0.00000000000E+00 -0.33369080612E+04  0.33369080612E+04  0.00000000000E+00 0. -1.
         23    2    1    2    0    0  0.71720678983E+03 -0.19548310347E+04  0.23885448445E+02  0.20843875989E+04  0.91384870576E+02 0.  0.
         13    1    3    3    0    0  0.36372553914E+03 -0.86023240690E+03  0.15687710605E+02  0.93409965527E+03  0.00000000000E+00 0. -1.
        -13    1    3    3    0    0  0.35348125068E+03 -0.10945986278E+04  0.81977378402E+01  0.11502879437E+04  0.00000000000E+00 0.  1.
         22    1    1    2    0    0 -0.71720678983E+03  0.19548310347E+04 -0.18367399177E+04  0.27765740543E+04  0.00000000000E+00 0.  1.
<mgrwt>
<rscale>  0 0.45102668E+04</rscale>
<asrwt>0</asrwt>
<pdfrwt beam="1">  1        2 0.51337047E+00 0.45102668E+04</pdfrwt>
<pdfrwt beam="2">  1       -2 0.23446978E+00 0.45102668E+04</pdfrwt>
<totfact> 0.63777036E-02</totfact>
</mgrwt>
</event>
<event>
 6    1  0.1072514E-005  0.3504398E+04  0.7818608E-02  0.8112749E-01
         -1   -1    0    0    0  501 -0.00000000000E+00  0.00000000000E+00  0.13638713146E+04  0.13638713146E+04  0.00000000000E+00 0.  1.
          1   -1    0    0  501    0  0.00000000000E+00 -0.00000000000E+00 -0.22510927727E+04  0.22510927727E+04  0.00000000000E+00 0. -1.
         23    2    1    2    0    0  0.17036845990E+04  0.20446467379E+01 -0.25289376918E+02  0.17056520892E+04  0.77872351847E+02 0.  0.
         13    1    3    3    0    0  0.10373166819E+04 -0.38049071048E+01 -0.53063239670E+02  0.10386799715E+04  0.00000000000E+00 0. -1.
        -13    1    3    3    0    0  0.66636791715E+03  0.58495538427E+01  0.27773862751E+02  0.66697211766E+03  0.00000000000E+00 0.  1.
         22    1    1    2    0    0 -0.17036845990E+04 -0.20446467379E+01 -0.86193208119E+03  0.19093119981E+04  0.00000000000E+00 0. -1.
<mgrwt>
<rscale>  0 0.35043977E+04</rscale>
<asrwt>0</asrwt>
<pdfrwt beam="1">  1        1 0.34632196E+00 0.35043977E+04</pdfrwt>
<pdfrwt beam="2">  1       -1 0.20982636E+00 0.35043977E+04</pdfrwt>
<totfact> 0.21135131E-01</totfact>
</mgrwt>
</event>
<event>
 6    1  0.1072514E-005  0.1645324E+04  0.7818608E-02  0.8793178E-01
          1   -1    0    0  501    0  0.00000000000E+00  0.00000000000E+00  0.14313258298E+04  0.14313258298E+04  0.00000000000E+00 0. -1.
         -1   -1    0    0    0  501 -0.00000000000E+00 -0.00000000000E+00 -0.47282921053E+03  0.47282921053E+03  0.00000000000E+00 0.  1.
         23    2    1    2    0    0  0.34363149049E+03 -0.25041608382E+03  0.12923641918E+04  0.13635457801E+04  0.90890451156E+02 0.  0.
         11    1    3    3    0    0  0.32891624490E+03 -0.23754800531E+03  0.12727469727E+04  0.13358517162E+04  0.00000000000E+00 0. -1.
        -11    1    3    3    0    0  0.14715245591E+02 -0.12868078508E+02  0.19617219038E+02  0.27694063986E+02  0.00000000000E+00 0.  1.
         22    1    1    2    0    0 -0.34363149049E+03  0.25041608382E+03 -0.33386757246E+03  0.54060926022E+03  0.00000000000E+00 0.  1.
<mgrwt>
<rscale>  0 0.16453239E+04</rscale>
<asrwt>0</asrwt>
<pdfrwt beam="1">  1        1 0.22020397E+00 0.16453239E+04</pdfrwt>
<pdfrwt beam="2">  1       -1 0.72742956E-01 0.16453239E+04</pdfrwt>
<totfact> 0.13304674E+01</totfact>
</mgrwt>
</event>
<event>
 6    1  0.1072514E-005  0.3921993E+04  0.7818608E-02  0.8020471E-01
          2   -1    0    0  501    0  0.00000000000E+00  0.00000000000E+00  0.43782511292E+04  0.43782511292E+04  0.00000000000E+00 0. -1.
         -2   -1    0    0    0  501 -0.00000000000E+00 -0.00000000000E+00 -0.87832026788E+03  0.87832026788E+03  0.00000000000E+00 0.  1.
         23    2    1    2    0    0 -0.88309392121E+03 -0.13280782660E+04  0.32777497877E+04  0.36462884456E+04  0.90160985888E+02 0.  0.
         11    1    3    3    0    0 -0.49407499012E+03 -0.79905202477E+03  0.18563655788E+04  0.20805497822E+04  0.00000000000E+00 0. -1.
        -11    1    3    3    0    0 -0.38901893109E+03 -0.52902624125E+03  0.14213842089E+04  0.15657386634E+04  0.00000000000E+00 0.  1.
         22    1    1    2    0    0  0.88309392121E+03  0.13280782660E+04  0.22218107362E+03  0.16102829515E+04  0.00000000000E+00 0.  1.
<mgrwt>
<rscale>  0 0.39219927E+04</rscale>
<asrwt>0</asrwt>
<pdfrwt beam="1">  1        2 0.67357709E+00 0.39219927E+04</pdfrwt>
<pdfrwt beam="2">  1       -2 0.13512620E+00 0.39219927E+04</pdfrwt>
<totfact> 0.49953019E-02</totfact>
</mgrwt>
</event>
<event>
 6    1  0.1072514E-005  0.2297894E+04  0.7818608E-02  0.8478752E-01
          2   -1    0    0  501    0  0.00000000000E+00  0.00000000000E+00  0.26004016286E+04  0.26004016286E+04  0.00000000000E+00 0. -1.
         -2   -1    0    0    0  501 -0.00000000000E+00 -0.00000000000E+00 -0.50764416589E+03  0.50764416589E+03  0.00000000000E+00 0.  1.
         23    2    1    2    0    0 -0.40436075373E+03 -0.14733702651E+03  0.24865502318E+04  0.25247032164E+04  0.77320483072E+02 0.  0.
         13    1    3    3    0    0 -0.66787905469E+02 -0.47790836908E+02  0.60140974146E+03  0.60699115770E+03  0.00000000000E+00 0.  1.
        -13    1    3    3    0    0 -0.33757284826E+03 -0.99546189601E+02  0.18851404903E+04  0.19177120587E+04  0.00000000000E+00 0. -1.
         22    1    1    2    0    0  0.40436075373E+03  0.14733702651E+03 -0.39379276903E+03  0.58334257814E+03  0.00000000000E+00 0.  1.
<mgrwt>
<rscale>  0 0.22978936E+04</rscale>
<asrwt>0</asrwt>
<pdfrwt beam="1">  1        2 0.40006178E+00 0.22978936E+04</pdfrwt>
<pdfrwt beam="2">  1       -2 0.78099104E-01 0.22978936E+04</pdfrwt>
<totfact> 0.40241876E+00</totfact>
</mgrwt>
</event>
<event>
 6    1  0.1072514E-005  0.4799025E+03  0.7818608E-02  0.1019162E+00
         -2   -1    0    0    0  501 -0.00000000000E+00  0.00000000000E+00  0.13471885441E+03  0.13471885441E+03  0.00000000000E+00 0.  1.
          2   -1    0    0  501    0  0.00000000000E+00 -0.00000000000E+00 -0.42738348066E+03  0.42738348066E+03  0.00000000000E+00 0. -1.
         23    2    1    2    0    0  0.28960104759E+02  0.21192159857E+03 -0.49302296064E+02  0.23810437928E+03  0.92268778170E+02 0.  0.
         13    1    3    3    0    0 -0.21741992333E+02  0.10574227522E+03  0.59406950979E+01  0.10811768984E+03  0.00000000000E+00 0. -1.
        -13    1    3    3    0    0  0.50702097092E+02  0.10617932335E+03 -0.55242991162E+02  0.12998668943E+03  0.00000000000E+00 0.  1.
         22    1    1    2    0    0 -0.28960104759E+02 -0.21192159857E+03 -0.24336233019E+03  0.32399795580E+03  0.00000000000E+00 0. -1.
<mgrwt>
<rscale>  0 0.47990254E+03</rscale>
<asrwt>0</asrwt>
<pdfrwt beam="1">  1        2 0.65751304E-01 0.47990254E+03</pdfrwt>
<pdfrwt beam="2">  1       -2 0.20725978E-01 0.47990254E+03</pdfrwt>
<totfact> 0.14751327E+03</totfact>
</mgrwt>
</event>
<event>
 6    1  0.1072514E-005  0.6128236E+04  0.7818608E-02  0.7674702E-01
          2   -1    0    0  501    0  0.00000000000E+00  0.00000000000E+00  0.43701179136E+04  0.43701179136E+04  0.00000000000E+00 0. -1.
         -2   -1    0    0    0  501 -0.00000000000E+00 -0.00000000000E+00 -0.21484132619E+04  0.21484132619E+04  0.00000000000E+00 0.  1.
         23    2    1    2    0    0  0.75136395008E+03  0.26699144602E+04 -0.27226812536E+03  0.27885323520E+04  0.93764255949E+02 0.  0.
         13    1    3    3    0    0  0.36055908964E+03  0.11267612148E+04 -0.96000026664E+02  0.11869328951E+04  0.00000000000E+00 0.  1.
        -13    1    3    3    0    0  0.39080486044E+03  0.15431532454E+04 -0.17626809870E+03  0.16015994569E+04  0.00000000000E+00 0. -1.
         22    1    1    2    0    0 -0.75136395008E+03 -0.26699144602E+04  0.24939727771E+04  0.37299988235E+04  0.00000000000E+00 0. -1.
<mgrwt>
<rscale>  0 0.61282361E+04</rscale>
<asrwt>0</asrwt>
<pdfrwt beam="1">  1        2 0.67232583E+00 0.61282361E+04</pdfrwt>
<pdfrwt beam="2">  1       -2 0.33052512E+00 0.61282361E+04</pdfrwt>
<totfact> 0.22250123E-03</totfact>
</mgrwt>
</event>
<event>
 6    1  0.1072514E-005  0.1110144E+04  0.7818608E-02  0.9195360E-01
          2   -1    0    0  501    0  0.00000000000E+00  0.00000000000E+00  0.10732387525E+04  0.10732387525E+04  0.00000000000E+00 0. -1.
         -2   -1    0    0    0  501 -0.00000000000E+00 -0.00000000000E+00 -0.28707978725E+03  0.28707978725E+03  0.00000000000E+00 0.  1.
         23    2    1    2    0    0  0.29557704623E+03  0.20120016637E+03 -0.11879370925E+03  0.38728892031E+03  0.89629600188E+02 0.  0.
         13    1    3    3    0    0  0.15327859917E+03  0.10389149656E+03 -0.10844904396E+03  0.21459023080E+03  0.00000000000E+00 0.  1.
        -13    1    3    3    0    0  0.14229844707E+03  0.97308669814E+02 -0.10344665294E+02  0.17269868951E+03  0.00000000000E+00 0. -1.
         22    1    1    2    0    0 -0.29557704623E+03 -0.20120016637E+03  0.90495267455E+03  0.97302961948E+03  0.00000000000E+00 0. -1.
<mgrwt>
<rscale>  0 0.11101444E+04</rscale>
<asrwt>0</asrwt>
<pdfrwt beam="1">  1        2 0.16511365E+00 0.11101444E+04</pdfrwt>
<pdfrwt beam="2">  1       -2 0.44166122E-01 0.11101444E+04</pdfrwt>
<totfact> 0.10913922E+02</totfact>
</mgrwt>
</event>
<event>
 6    1  0.1072514E-005  0.9640786E+03  0.7818608E-02  0.9348845E-01
         -2   -1    0    0    0  501 -0.00000000000E+00  0.00000000000E+00  0.10074348602E+04  0.10074348602E+04  0.00000000000E+00 0.  1.
          2   -1    0    0  501    0  0.00000000000E+00 -0.00000000000E+00 -0.23064705241E+03  0.23064705241E+03  0.00000000000E+00 0. -1.
         23    2    1    2    0    0 -0.33639167960E+03 -0.20348688884E+03  0.43690850855E+02  0.40621808704E+03  0.92401124235E+02 0.  0.
         13    1    3    3    0    0 -0.23169024566E+03 -0.11294378832E+03 -0.95017219186E+01  0.25792819150E+03  0.00000000000E+00 0. -1.
        -13    1    3    3    0    0 -0.10470143394E+03 -0.90543100520E+02  0.53192572773E+02  0.14828989554E+03  0.00000000000E+00 0.  1.
         22    1    1    2    0    0  0.33639167960E+03  0.20348688884E+03  0.73309695696E+03  0.83186382560E+03  0.00000000000E+00 0.  1.
<mgrwt>
<rscale>  0 0.96407859E+03</rscale>
<asrwt>0</asrwt>
<pdfrwt beam="1">  1        2 0.35484163E-01 0.96407859E+03</pdfrwt>
<pdfrwt beam="2">  1       -2 0.15498998E+00 0.96407859E+03</pdfrwt>
<totfact> 0.40428465E+01</totfact>
</mgrwt>
</event>
<event>
 6    1  0.1072514E-005  0.2619607E+04  0.7818608E-02  0.8361572E-01
         -1   -1    0    0    0  501 -0.00000000000E+00  0.00000000000E+00  0.12390057906E+04  0.12390057906E+04  0.00000000000E+00 0.  1.
          1   -1    0    0  501    0  0.00000000000E+00 -0.00000000000E+00 -0.13846463917E+04  0.13846463917E+04  0.00000000000E+00 0. -1.
         23    2    1    2    0    0 -0.32543568023E+03  0.20036965886E+03  0.11799913573E+04  0.12440303242E+04  0.95788632837E+02 0.  0.
         13    1    3    3    0    0 -0.80660634309E+02  0.84573003000E+02  0.26091259967E+03  0.28589178972E+03  0.00000000000E+00 0.  1.
        -13    1    3    3    0    0 -0.24477504592E+03  0.11579665586E+03  0.91907875759E+03  0.95813853449E+03  0.00000000000E+00 0. -1.
         22    1    1    2    0    0  0.32543568023E+03 -0.20036965886E+03 -0.13256319584E+04  0.13796218581E+04  0.00000000000E+00 0. -1.
<mgrwt>
<rscale>  0 0.26196068E+04</rscale>
<asrwt>0</asrwt>
<pdfrwt beam="1">  1        1 0.21302252E+00 0.26196068E+04</pdfrwt>
<pdfrwt beam="2">  1       -1 0.19061628E+00 0.26196068E+04</pdfrwt>
<totfact> 0.12116374E+00</totfact>
</mgrwt>
</event>
<event>
 6    1  0.1072514E-005  0.9718856E+03  0.7818608E-02  0.9339929E-01
          2   -1    0    0  501    0  0.00000000000E+00  0.00000000000E+00  0.18132530357E+04  0.18132530357E+04  0.00000000000E+00 0. -1.
         -2   -1    0    0    0  501 -0.00000000000E+00 -0.00000000000E+00 -0.13023025869E+03  0.13023025869E+03  0.00000000000E+00 0.  1.
         23    2    1    2    0    0  0.19051092912E+03 -0.43648498801E+03  0.99582761683E+03  0.11073907475E+04  0.88476359739E+02 0.  0.
         11    1    3    3    0    0  0.18839762447E+03 -0.34703162405E+03  0.81778461842E+03  0.90812790681E+03  0.00000000000E+00 0. -1.
        -11    1    3    3    0    0  0.21133046540E+01 -0.89453363957E+02  0.17804299841E+03  0.19926284065E+03  0.00000000000E+00 0.  1.
         22    1    1    2    0    0 -0.19051092912E+03  0.43648498801E+03  0.68719516016E+03  0.83609254692E+03  0.00000000000E+00 0.  1.
<mgrwt>
<rscale>  0 0.97188561E+03</rscale>
<asrwt>0</asrwt>
<pdfrwt beam="1">  1        2 0.27896199E+00 0.97188561E+03</pdfrwt>
<pdfrwt beam="2">  1       -2 0.20035426E-01 0.97188561E+03</pdfrwt>
<totfact> 0.18108156E+02</totfact>
</mgrwt>
</event>
<event>
 6    1  0.1072514E-005  0.1627921E+04  0.7818608E-02  0.8803576E-01
          1   -1    0    0  501    0  0.00000000000E+00  0.00000000000E+00  0.20486549319E+04  0.20486549319E+04  0.00000000000E+00 0. -1.
         -1   -1    0    0    0  501 -0.00000000000E+00 -0.00000000000E+00 -0.32339853065E+03  0.32339853065E+03  0.00000000000E+00 0.  1.
         23    2    1    2    0    0  0.49237438854E+03 -0.35330111443E+03  0.78989771177E+02  0.61778779474E+03  0.90377870219E+02 0.  0.
         13    1    3    3    0    0  0.12480255890E+03 -0.10507394688E+03 -0.16853095063E+02  0.16401292581E+03  0.00000000000E+00 0.  1.
        -13    1    3    3    0    0  0.36757182964E+03 -0.24822716755E+03  0.95842866240E+02  0.45377486892E+03  0.00000000000E+00 0. -1.
         22    1    1    2    0    0 -0.49237438854E+03  0.35330111443E+03  0.16462666301E+04  0.17542656678E+04  0.00000000000E+00 0. -1.
<mgrwt>
<rscale>  0 0.16279214E+04</rscale>
<asrwt>0</asrwt>
<pdfrwt beam="1">  1        1 0.31517768E+00 0.16279214E+04</pdfrwt>
<pdfrwt beam="2">  1       -1 0.49753621E-01 0.16279214E+04</pdfrwt>
<totfact> 0.10717629E+01</totfact>
</mgrwt>
</event>
<event>
 6    1  0.1072514E-005  0.1904493E+04  0.7818608E-02  0.8652623E-01
          1   -1    0    0  501    0  0.00000000000E+00  0.00000000000E+00  0.80961660390E+03  0.80961660390E+03  0.00000000000E+00 0. -1.
         -1   -1    0    0    0  501 -0.00000000000E+00 -0.00000000000E+00 -0.11200031297E+04  0.11200031297E+04  0.00000000000E+00 0.  1.
         23    2    1    2    0    0  0.54825328811E+03 -0.68026148632E+03 -0.53385311301E+03  0.10278023057E+04  0.89672044534E+02 0.  0.
         11    1    3    3    0    0  0.42535607853E+03 -0.46342805031E+03 -0.38209477962E+03  0.73599576899E+03  0.00000000000E+00 0. -1.
        -11    1    3    3    0    0  0.12289720957E+03 -0.21683343601E+03 -0.15175833340E+03  0.29180653668E+03  0.00000000000E+00 0.  1.
         22    1    1    2    0    0 -0.54825328811E+03  0.68026148632E+03  0.22346658724E+03  0.90181742792E+03  0.00000000000E+00 0. -1.
<mgrwt>
<rscale>  0 0.19044927E+04</rscale>
<asrwt>0</asrwt>
<pdfrwt beam="1">  1        1 0.12455640E+00 0.19044927E+04</pdfrwt>
<pdfrwt beam="2">  1       -1 0.17230817E+00 0.19044927E+04</pdfrwt>
<totfact> 0.47999960E+00</totfact>
</mgrwt>
</event>
<event>
 6    1  0.1072514E-005  0.3163181E+04  0.7818608E-02  0.8198609E-01
         -2   -1    0    0    0  501 -0.00000000000E+00  0.00000000000E+00  0.64320215746E+03  0.64320215746E+03  0.00000000000E+00 0. -1.
          2   -1    0    0  501    0  0.00000000000E+00 -0.00000000000E+00 -0.38890234458E+04  0.38890234458E+04  0.00000000000E+00 0.  1.
         23    2    1    2    0    0  0.32623246289E+03 -0.14237128383E+04 -0.24874576105E+04  0.28864730904E+04  0.10438233434E+03 0.  0.
         11    1    3    3    0    0  0.17793994539E+03 -0.89919029878E+03 -0.14751508064E+04  0.17367428477E+04  0.00000000000E+00 0. -1.
        -11    1    3    3    0    0  0.14829251750E+03 -0.52452253953E+03 -0.10123068041E+04  0.11497302427E+04  0.00000000000E+00 0.  1.
         22    1    1    2    0    0 -0.32623246289E+03  0.14237128383E+04 -0.75836367786E+03  0.16457525129E+04  0.00000000000E+00 0. -1.
<mgrwt>
<rscale>  0 0.31631808E+04</rscale>
<asrwt>0</asrwt>
<pdfrwt beam="1">  1        2 0.59831131E+00 0.31631808E+04</pdfrwt>
<pdfrwt beam="2">  1       -2 0.98954176E-01 0.31631808E+04</pdfrwt>
<totfact> 0.29946225E-01</totfact>
</mgrwt>
</event>
<event>
 6    1  0.1072514E-005  0.3869325E+04  0.7818608E-02  0.8031439E-01
          1   -1    0    0  501    0  0.00000000000E+00  0.00000000000E+00  0.15592578893E+04  0.15592578893E+04  0.00000000000E+00 0. -1.
         -1   -1    0    0    0  501 -0.00000000000E+00 -0.00000000000E+00 -0.24004489432E+04  0.24004489432E+04  0.00000000000E+00 0.  1.
         23    2    1    2    0    0 -0.84036365131E+03  0.16091125707E+04  0.26045605019E+03  0.18362472324E+04  0.92261653481E+02 0.  0.
         11    1    3    3    0    0 -0.21140794453E+03  0.46713026510E+03  0.10376690891E+03  0.52313628719E+03  0.00000000000E+00 0.  1.
        -11    1    3    3    0    0 -0.62895570678E+03  0.11419823056E+04  0.15668914129E+03  0.13131109452E+04  0.00000000000E+00 0. -1.
         22    1    1    2    0    0  0.84036365131E+03 -0.16091125707E+04 -0.11016471041E+04  0.21234596002E+04  0.00000000000E+00 0. -1.
<mgrwt>
<rscale>  0 0.38693250E+04</rscale>
<asrwt>0</asrwt>
<pdfrwt beam="1">  1        1 0.23988583E+00 0.38693250E+04</pdfrwt>
<pdfrwt beam="2">  1       -1 0.36929984E+00 0.38693250E+04</pdfrwt>
<totfact> 0.54359045E-02</totfact>
</mgrwt>
</event>
<event>
 6    1  0.1072514E-005  0.1130349E+04  0.7818608E-02  0.9176106E-01
         -3   -1    0    0    0  501 -0.00000000000E+00  0.00000000000E+00  0.31606180212E+03  0.31606180212E+03  0.00000000000E+00 0.  1.
          3   -1    0    0  501    0  0.00000000000E+00 -0.00000000000E+00 -0.10106329527E+04  0.10106329527E+04  0.00000000000E+00 0. -1.
         23    2    1    2    0    0 -0.46141656261E+03 -0.31541290224E+03 -0.26047300464E+03  0.61900008657E+03  0.54077517289E+02 0.  0.
         13    1    3    3    0    0 -0.15908739388E+03 -0.89551873347E+02 -0.63364374773E+02  0.19324435542E+03  0.00000000000E+00 0. -1.
        -13    1    3    3    0    0 -0.30232916873E+03 -0.22586102889E+03 -0.19710862987E+03  0.42575573115E+03  0.00000000000E+00 0.  1.
         22    1    1    2    0    0  0.46141656261E+03  0.31541290224E+03 -0.43409814589E+03  0.70769466821E+03  0.00000000000E+00 0. -1.
<mgrwt>
<rscale>  0 0.11303495E+04</rscale>
<asrwt>0</asrwt>
<pdfrwt beam="1">  1        3 0.15548199E+00 0.11303495E+04</pdfrwt>
<pdfrwt beam="2">  1       -3 0.48624892E-01 0.11303495E+04</pdfrwt>
<totfact> 0.32163602E+00</totfact>
</mgrwt>
</event>
<event>
 6    1  0.1072514E-005  0.1322624E+04  0.7818608E-02  0.9011814E-01
         -2   -1    0    0    0  501 -0.00000000000E+00  0.00000000000E+00  0.35287758722E+03  0.35287758722E+03  0.00000000000E+00 0.  1.
          2   -1    0    0  501    0  0.00000000000E+00 -0.00000000000E+00 -0.12393343184E+04  0.12393343184E+04  0.00000000000E+00 0. -1.
         23    2    1    2    0    0  0.32911343036E+03  0.17198002047E+03  0.20954687228E+03  0.43500981597E+03  0.86202498913E+02 0.  0.
         11    1    3    3    0    0  0.17126650487E+03  0.81862751965E+02  0.58371335520E+02  0.19859742863E+03  0.00000000000E+00 0. -1.
        -11    1    3    3    0    0  0.15784692550E+03  0.90117268505E+02  0.15117553676E+03  0.23641238733E+03  0.00000000000E+00 0.  1.
         22    1    1    2    0    0 -0.32911343036E+03 -0.17198002047E+03 -0.10960036034E+04  0.11572020896E+04  0.00000000000E+00 0. -1.
<mgrwt>
<rscale>  0 0.13226236E+04</rscale>
<asrwt>0</asrwt>
<pdfrwt beam="1">  1        2 0.19066682E+00 0.13226236E+04</pdfrwt>
<pdfrwt beam="2">  1       -2 0.54288859E-01 0.13226236E+04</pdfrwt>
<totfact> 0.56093346E+01</totfact>
</mgrwt>
</event>
<event>
 6    1  0.1072514E-005  0.1919823E+04  0.7818608E-02  0.8645052E-01
          1   -1    0    0  501    0  0.00000000000E+00  0.00000000000E+00  0.14218965108E+04  0.14218965108E+04  0.00000000000E+00 0. -1.
         -1   -1    0    0    0  501 -0.00000000000E+00 -0.00000000000E+00 -0.64802877312E+03  0.64802877312E+03  0.00000000000E+00 0.  1.
         23    2    1    2    0    0 -0.89134455137E+03 -0.33408900156E+03  0.27341248289E+03  0.99448768355E+03  0.90226363770E+02 0.  0.
         13    1    3    3    0    0 -0.36447116123E+03 -0.15789382923E+03  0.72777738427E+02  0.40381467022E+03  0.00000000000E+00 0. -1.
        -13    1    3    3    0    0 -0.52687339014E+03 -0.17619517233E+03  0.20063474446E+03  0.59067301333E+03  0.00000000000E+00 0.  1.
         22    1    1    2    0    0  0.89134455137E+03  0.33408900156E+03  0.50045525476E+03  0.10754376003E+04  0.00000000000E+00 0.  1.
<mgrwt>
<rscale>  0 0.19198228E+04</rscale>
<asrwt>0</asrwt>
<pdfrwt beam="1">  1        1 0.21875331E+00 0.19198228E+04</pdfrwt>
<pdfrwt beam="2">  1       -1 0.99696735E-01 0.19198228E+04</pdfrwt>
<totfact> 0.66478708E+00</totfact>
</mgrwt>
</event>
<event>
 6    1  0.1072514E-005  0.2715803E+04  0.7818608E-02  0.8329896E-01
          1   -1    0    0  501    0  0.00000000000E+00  0.00000000000E+00  0.26466042859E+04  0.26466042859E+04  0.00000000000E+00 0. -1.
         -1   -1    0    0    0  501 -0.00000000000E+00 -0.00000000000E+00 -0.69670251319E+03  0.69670251319E+03  0.00000000000E+00 0.  1.
         23    2    1    2    0    0 -0.55307247174E+03  0.10863969364E+04  0.24416907573E+03  0.12467211233E+04  0.92453011226E+02 0.  0.
         13    1    3    3    0    0 -0.28327150750E+03  0.61829449351E+03  0.98955608912E+02  0.68725762288E+03  0.00000000000E+00 0.  1.
        -13    1    3    3    0    0 -0.26980096424E+03  0.46810244290E+03  0.14521346682E+03  0.55946350042E+03  0.00000000000E+00 0. -1.
         22    1    1    2    0    0  0.55307247174E+03 -0.10863969364E+04  0.17057326970E+04  0.20965856758E+04  0.00000000000E+00 0. -1.
<mgrwt>
<rscale>  0 0.27158025E+04</rscale>
<asrwt>0</asrwt>
<pdfrwt beam="1">  1        1 0.40716988E+00 0.27158025E+04</pdfrwt>
<pdfrwt beam="2">  1       -1 0.10718500E+00 0.27158025E+04</pdfrwt>
<totfact> 0.75670545E-01</totfact>
</mgrwt>
</event>
<event>
 6    1  0.1201551E-005  0.5099434E+04  0.7818608E-02  0.7813349E-01
         -1   -1    0    0    0  501 -0.00000000000E+00  0.00000000000E+00  0.21193751325E+04  0.21193751325E+04  0.00000000000E+00 0.  1.
          1   -1    0    0  501    0  0.00000000000E+00 -0.00000000000E+00 -0.30674407075E+04  0.30674407075E+04  0.00000000000E+00 0. -1.
         23    2    1    2    0    0  0.69441260649E+03 -0.61094194474E+03 -0.28900610634E+04  0.30358148161E+04  0.90883000216E+02 0.  0.
         11    1    3    3    0    0  0.23733145282E+03 -0.23003232140E+03 -0.90309056619E+03  0.96167232368E+03  0.00000000000E+00 0.  1.
        -11    1    3    3    0    0  0.45708115367E+03 -0.38090962334E+03 -0.19869704972E+04  0.20741424924E+04  0.00000000000E+00 0. -1.
         22    1    1    2    0    0 -0.69441260649E+03  0.61094194474E+03  0.19419954884E+04  0.21510010239E+04  0.00000000000E+00 0.  1.
<mgrwt>
<rscale>  0 0.50994343E+04</rscale>
<asrwt>0</asrwt>
<pdfrwt beam="1">  1        1 0.47191396E+00 0.50994343E+04</pdfrwt>
<pdfrwt beam="2">  1       -1 0.32605771E+00 0.50994343E+04</pdfrwt>
<totfact> 0.85348731E-03</totfact>
</mgrwt>
</event>
<event>
 6    1  0.1072514E-005  0.1436467E+04  0.7818608E-02  0.8927836E-01
          2   -1    0    0  501    0  0.00000000000E+00  0.00000000000E+00  0.82924228021E+03  0.82924228021E+03  0.00000000000E+00 0.  1.
         -2   -1    0    0    0  501 -0.00000000000E+00 -0.00000000000E+00 -0.62208558307E+03  0.62208558307E+03  0.00000000000E+00 0. -1.
         23    2    1    2    0    0 -0.49354964231E+03 -0.24590563100E+03 -0.35630472611E+03  0.66294369026E+03  0.92089357801E+02 0.  0.
         11    1    3    3    0    0 -0.44415060342E+03 -0.21532397886E+03 -0.28148353069E+03  0.56821400233E+03  0.00000000000E+00 0. -1.
        -11    1    3    3    0    0 -0.49399038885E+02 -0.30581652139E+02 -0.74821195420E+02  0.94729687925E+02  0.00000000000E+00 0.  1.
         22    1    1    2    0    0  0.49354964231E+03  0.24590563100E+03  0.56346142325E+03  0.78838417302E+03  0.00000000000E+00 0.  1.
<mgrwt>
<rscale>  0 0.14364674E+04</rscale>
<asrwt>0</asrwt>
<pdfrwt beam="1">  1        2 0.12757574E+00 0.14364674E+04</pdfrwt>
<pdfrwt beam="2">  1       -2 0.95705474E-01 0.14364674E+04</pdfrwt>
<totfact> 0.29195308E+01</totfact>
</mgrwt>
</event>
<event>
 6    1  0.1072514E-005  0.5543609E+04  0.7818608E-02  0.7749717E-01
         -1   -1    0    0    0  501 -0.00000000000E+00  0.00000000000E+00  0.23982735823E+04  0.23982735823E+04  0.00000000000E+00 0.  1.
          1   -1    0    0  501    0  0.00000000000E+00 -0.00000000000E+00 -0.32035133198E+04  0.32035133198E+04  0.00000000000E+00 0. -1.
         23    2    1    2    0    0  0.15441803649E+04  0.14050234230E+04 -0.22439938154E+04  0.30663190724E+04  0.90667481339E+02 0.  0.
         13    1    3    3    0    0  0.78338440227E+03  0.69672941223E+03 -0.10625879469E+04  0.14927210524E+04  0.00000000000E+00 0. -1.
        -13    1    3    3    0    0  0.76079596260E+03  0.70829401072E+03 -0.11814058685E+04  0.15735980200E+04  0.00000000000E+00 0.  1.
         22    1    1    2    0    0 -0.15441803649E+04 -0.14050234230E+04  0.14387540780E+04  0.25354678296E+04  0.00000000000E+00 0.  1.
<mgrwt>
<rscale>  0 0.55436094E+04</rscale>
<asrwt>0</asrwt>
<pdfrwt beam="1">  1        1 0.49284820E+00 0.55436094E+04</pdfrwt>
<pdfrwt beam="2">  1       -1 0.36896517E+00 0.55436094E+04</pdfrwt>
<totfact> 0.33930872E-03</totfact>
</mgrwt>
</event>
<event>
 6    1  0.1072514E-005  0.1991688E+03  0.7818608E-02  0.1150442E+00
         -1   -1    0    0    0  501 -0.00000000000E+00  0.00000000000E+00  0.10243412485E+02  0.10243412485E+02  0.00000000000E+00 0.  1.
          1   -1    0    0  501    0  0.00000000000E+00 -0.00000000000E+00 -0.96813993580E+03  0.96813993580E+03  0.00000000000E+00 0. -1.
         23    2    1    2    0    0  0.11128050185E+02  0.33619790024E+02 -0.92550430692E+03  0.93038981263E+03  0.88390370110E+02 0.  0.
         13    1    3    3    0    0 -0.22950025902E+01 -0.24374860153E+02 -0.10887502921E+03  0.11159378491E+03  0.00000000000E+00 0. -1.
        -13    1    3    3    0    0  0.13423052775E+02  0.57994650177E+02 -0.81662927771E+03  0.81879602772E+03  0.00000000000E+00 0.  1.
         22    1    1    2    0    0 -0.11128050185E+02 -0.33619790024E+02 -0.32392216396E+02  0.47993535661E+02  0.00000000000E+00 0.  1.
<mgrwt>
<rscale>  0 0.19916884E+03</rscale>
<asrwt>0</asrwt>
<pdfrwt beam="1">  1        1 0.14894458E+00 0.19916884E+03</pdfrwt>
<pdfrwt beam="2">  1       -1 0.15759099E-02 0.19916884E+03</pdfrwt>
<totfact> 0.16115467E+04</totfact>
</mgrwt>
</event>
<event>
 6    1  0.1072514E-005  0.1470581E+04  0.7818608E-02  0.8904255E-01
          2   -1    0    0  501    0  0.00000000000E+00  0.00000000000E+00  0.25722622721E+04  0.25722622721E+04  0.00000000000E+00 0. -1.
         -2   -1    0    0    0  501 -0.00000000000E+00 -0.00000000000E+00 -0.21018542394E+03  0.21018542394E+03  0.00000000000E+00 0.  1.
         23    2    1    2    0    0  0.21693121540E+03 -0.34299759192E+03  0.23394195658E+04  0.23759752459E+04  0.87566912795E+02 0.  0.
         13    1    3    3    0    0  0.15773669652E+03 -0.19116566655E+03  0.15747170468E+04  0.15941013001E+04  0.00000000000E+00 0.  1.
        -13    1    3    3    0    0  0.59194518882E+02 -0.15183192537E+03  0.76470251901E+03  0.78187394586E+03  0.00000000000E+00 0. -1.
         22    1    1    2    0    0 -0.21693121540E+03  0.34299759192E+03  0.22657282397E+02  0.40647245014E+03  0.00000000000E+00 0.  1.
<mgrwt>
<rscale>  0 0.14705809E+04</rscale>
<asrwt>0</asrwt>
<pdfrwt beam="1">  1        2 0.39573264E+00 0.14705809E+04</pdfrwt>
<pdfrwt beam="2">  1       -2 0.32336221E-01 0.14705809E+04</pdfrwt>
<totfact> 0.27345350E+01</totfact>
</mgrwt>
</event>
<event>
 6    1  0.1072514E-005  0.1583968E+04  0.7818608E-02  0.8830458E-01
         -2   -1    0    0    0  501 -0.00000000000E+00  0.00000000000E+00  0.60184956060E+03  0.60184956060E+03  0.00000000000E+00 0. -1.
          2   -1    0    0  501    0  0.00000000000E+00 -0.00000000000E+00 -0.10421853224E+04  0.10421853224E+04  0.00000000000E+00 0.  1.
         23    2    1    2    0    0  0.12309835986E+03 -0.49272256127E+03  0.40635805581E+03  0.65670558161E+03  0.90590412301E+02 0.  0.
         13    1    3    3    0    0  0.69552405399E+02 -0.38220798635E+03  0.34436739178E+03  0.51914293065E+03  0.00000000000E+00 0.  1.
        -13    1    3    3    0    0  0.53545954460E+02 -0.11051457493E+03  0.61990664029E+02  0.13756265095E+03  0.00000000000E+00 0. -1.
         22    1    1    2    0    0 -0.12309835986E+03  0.49272256127E+03 -0.84669381757E+03  0.98732930135E+03  0.00000000000E+00 0.  1.
<mgrwt>
<rscale>  0 0.15839682E+04</rscale>
<asrwt>0</asrwt>
<pdfrwt beam="1">  1        2 0.16033620E+00 0.15839682E+04</pdfrwt>
<pdfrwt beam="2">  1       -2 0.92592239E-01 0.15839682E+04</pdfrwt>
<totfact> 0.22497363E+01</totfact>
</mgrwt>
</event>
<event>
 6    1  0.1072514E-005  0.5075179E+04  0.7818608E-02  0.7817014E-01
          2   -1    0    0  501    0  0.00000000000E+00  0.00000000000E+00  0.29500409898E+04  0.29500409898E+04  0.00000000000E+00 0. -1.
         -2   -1    0    0    0  501 -0.00000000000E+00 -0.00000000000E+00 -0.21828039405E+04  0.21828039405E+04  0.00000000000E+00 0.  1.
         23    2    1    2    0    0 -0.15200608563E+03 -0.39597824834E+03  0.29131849374E+04  0.29453813395E+04  0.93381650266E+02 0.  0.
         11    1    3    3    0    0 -0.10130726148E+03 -0.30718230225E+03  0.19327817844E+04  0.19596605711E+04  0.00000000000E+00 0. -1.
        -11    1    3    3    0    0 -0.50698824156E+02 -0.88795946091E+02  0.98040315300E+03  0.98572076838E+03  0.00000000000E+00 0.  1.
         22    1    1    2    0    0  0.15200608563E+03  0.39597824834E+03 -0.21459478880E+04  0.21874635909E+04  0.00000000000E+00 0.  1.
<mgrwt>
<rscale>  0 0.50751792E+04</rscale>
<asrwt>0</asrwt>
<pdfrwt beam="1">  1        2 0.45385246E+00 0.50751792E+04</pdfrwt>
<pdfrwt beam="2">  1       -2 0.33581599E+00 0.50751792E+04</pdfrwt>
<totfact> 0.25846523E-02</totfact>
</mgrwt>
</event>
<event>
 6    1  0.1072514E-005  0.3176431E+04  0.7818608E-02  0.8195070E-01
         -1   -1    0    0    0  501 -0.00000000000E+00  0.00000000000E+00  0.86824542091E+03  0.86824542091E+03  0.00000000000E+00 0.  1.
          1   -1    0    0  501    0  0.00000000000E+00 -0.00000000000E+00 -0.29052024737E+04  0.29052024737E+04  0.00000000000E+00 0. -1.
         23    2    1    2    0    0 -0.14451270427E+04 -0.60105802516E+03 -0.13332135591E+04  0.20573716072E+04  0.75210484019E+02 0.  0.
         13    1    3    3    0    0 -0.12214572785E+04 -0.53555555608E+03 -0.11238807314E+04  0.17441002079E+04  0.00000000000E+00 0.  1.
        -13    1    3    3    0    0 -0.22366976416E+03 -0.65502469080E+02 -0.20933282768E+03  0.31327139927E+03  0.00000000000E+00 0. -1.
         22    1    1    2    0    0  0.14451270427E+04  0.60105802516E+03 -0.70374349370E+03  0.17160762874E+04  0.00000000000E+00 0.  1.
<mgrwt>
<rscale>  0 0.31764312E+04</rscale>
<asrwt>0</asrwt>
<pdfrwt beam="1">  1        1 0.44695423E+00 0.31764312E+04</pdfrwt>
<pdfrwt beam="2">  1       -1 0.13357622E+00 0.31764312E+04</pdfrwt>
<totfact> 0.27771987E-01</totfact>
</mgrwt>
</event>
<event>
 6    1  0.1072514E-005  0.1126571E+04  0.7818608E-02  0.9179674E-01
          2   -1    0    0  501    0  0.00000000000E+00  0.00000000000E+00  0.21270185852E+04  0.21270185852E+04  0.00000000000E+00 0. -1.
         -2   -1    0    0    0  501 -0.00000000000E+00 -0.00000000000E+00 -0.14917150612E+03  0.14917150612E+03  0.00000000000E+00 0.  1.
         23    2    1    2    0    0  0.29315497464E+03 -0.28895450348E+03  0.17612059304E+04  0.18110364269E+04  0.92585452735E+02 0.  0.
         13    1    3    3    0    0  0.18625604556E+03 -0.18187115224E+03  0.12944878642E+04  0.13204042037E+04  0.00000000000E+00 0. -1.
        -13    1    3    3    0    0  0.10689892908E+03 -0.10708335123E+03  0.46671806618E+03  0.49063222320E+03  0.00000000000E+00 0.  1.
         22    1    1    2    0    0 -0.29315497464E+03  0.28895450348E+03  0.21664114873E+03  0.46515366446E+03  0.00000000000E+00 0.  1.
<mgrwt>
<rscale>  0 0.11265710E+04</rscale>
<asrwt>0</asrwt>
<pdfrwt beam="1">  1        2 0.32723361E+00 0.11265710E+04</pdfrwt>
<pdfrwt beam="2">  1       -2 0.22949464E-01 0.11265710E+04</pdfrwt>
<totfact> 0.94475685E+01</totfact>
</mgrwt>
</event>
<event>
 6    1  0.1072514E-005  0.3148997E+04  0.7818608E-02  0.8202418E-01
         -1   -1    0    0    0  501 -0.00000000000E+00  0.00000000000E+00  0.97128263744E+03  0.97128263744E+03  0.00000000000E+00 0.  1.
          1   -1    0    0  501    0  0.00000000000E+00 -0.00000000000E+00 -0.25523423544E+04  0.25523423544E+04  0.00000000000E+00 0. -1.
         23    2    1    2    0    0 -0.38933849747E+03  0.72222170627E+03  0.71081747141E+03  0.10893099536E+04  0.90255408811E+02 0.  0.
         11    1    3    3    0    0 -0.87443890233E+02  0.21288547983E+03  0.24323831003E+03  0.33486047382E+03  0.00000000000E+00 0. -1.
        -11    1    3    3    0    0 -0.30189460723E+03  0.50933622644E+03  0.46757916137E+03  0.75444947982E+03  0.00000000000E+00 0.  1.
         22    1    1    2    0    0  0.38933849747E+03 -0.72222170627E+03 -0.22918771884E+04  0.24343150382E+04  0.00000000000E+00 0. -1.
<mgrwt>
<rscale>  0 0.31489972E+04</rscale>
<asrwt>0</asrwt>
<pdfrwt beam="1">  1        1 0.39266806E+00 0.31489972E+04</pdfrwt>
<pdfrwt beam="2">  1       -1 0.14942810E+00 0.31489972E+04</pdfrwt>
<totfact> 0.36887551E-01</totfact>
</mgrwt>
</event>
<event>
 6    1  0.1072514E-005  0.3192711E+04  0.7818608E-02  0.8190745E-01
          2   -1    0    0  501    0  0.00000000000E+00  0.00000000000E+00  0.44578079470E+04  0.44578079470E+04  0.00000000000E+00 0. -1.
         -2   -1    0    0    0  501 -0.00000000000E+00 -0.00000000000E+00 -0.57166015285E+03  0.57166015285E+03  0.00000000000E+00 0.  1.
         23    2    1    2    0    0  0.15219691361E+04  0.21259065306E+03  0.12692013584E+04  0.19946709922E+04  0.79091350174E+02 0.  0.
         11    1    3    3    0    0  0.91800119763E+03  0.16723378005E+03  0.77055253432E+03  0.12101423653E+04  0.00000000000E+00 0. -1.
        -11    1    3    3    0    0  0.60396793852E+03  0.45356873014E+02  0.49864882407E+03  0.78452862691E+03  0.00000000000E+00 0.  1.
         22    1    1    2    0    0 -0.15219691361E+04 -0.21259065306E+03  0.26169464357E+04  0.30347971077E+04  0.00000000000E+00 0. -1.
<mgrwt>
<rscale>  0 0.31927112E+04</rscale>
<asrwt>0</asrwt>
<pdfrwt beam="1">  1        2 0.68581658E+00 0.31927112E+04</pdfrwt>
<pdfrwt beam="2">  1       -2 0.87947719E-01 0.31927112E+04</pdfrwt>
<totfact> 0.12667408E-01</totfact>
</mgrwt>
</event>
<event>
 6    1  0.1072514E-005  0.2953208E+04  0.7818608E-02  0.8257220E-01
          1   -1    0    0  501    0  0.00000000000E+00  0.00000000000E+00  0.17716852050E+04  0.17716852050E+04  0.00000000000E+00 0. -1.
         -1   -1    0    0    0  501 -0.00000000000E+00 -0.00000000000E+00 -0.12306699052E+04  0.12306699052E+04  0.00000000000E+00 0.  1.
         23    2    1    2    0    0 -0.42300977892E+03  0.13789925216E+04  0.58559387255E+03  0.15592525855E+04  0.88265474232E+02 0.  0.
         11    1    3    3    0    0 -0.34659282825E+03  0.11966064066E+04  0.52995518631E+03  0.13538264218E+04  0.00000000000E+00 0. -1.
        -11    1    3    3    0    0 -0.76416950668E+02  0.18238611499E+03  0.55638686236E+02  0.20542616361E+03  0.00000000000E+00 0.  1.
         22    1    1    2    0    0  0.42300977892E+03 -0.13789925216E+04 -0.44578572655E+02  0.14431025247E+04  0.00000000000E+00 0. -1.
<mgrwt>
<rscale>  0 0.29532082E+04</rscale>
<asrwt>0</asrwt>
<pdfrwt beam="1">  1        1 0.27256695E+00 0.29532082E+04</pdfrwt>
<pdfrwt beam="2">  1       -1 0.18933383E+00 0.29532082E+04</pdfrwt>
<totfact> 0.65001220E-01</totfact>
</mgrwt>
</event>
<event>
 6    1  0.1072514E-005  0.2369495E+04  0.7818608E-02  0.8451013E-01
         -1   -1    0    0    0  501 -0.00000000000E+00  0.00000000000E+00  0.16777599958E+04  0.16777599958E+04  0.00000000000E+00 0.  1.
          1   -1    0    0  501    0  0.00000000000E+00 -0.00000000000E+00 -0.83660774864E+03  0.83660774864E+03  0.00000000000E+00 0. -1.
         23    2    1    2    0    0  0.38808592831E+03  0.96174798782E+03 -0.18278184421E+03  0.10569690676E+04  0.90578846677E+02 0.  0.
         11    1    3    3    0    0  0.32746800422E+03  0.88005721849E+03 -0.15718150436E+03  0.95207249037E+03  0.00000000000E+00 0.  1.
        -11    1    3    3    0    0  0.60617924091E+02  0.81690769330E+02 -0.25600339847E+02  0.10489657723E+03  0.00000000000E+00 0. -1.
         22    1    1    2    0    0 -0.38808592831E+03 -0.96174798782E+03  0.10239340914E+04  0.14573986769E+04  0.00000000000E+00 0. -1.
<mgrwt>
<rscale>  0 0.23694953E+04</rscale>
<asrwt>0</asrwt>
<pdfrwt beam="1">  1        1 0.12870888E+00 0.23694953E+04</pdfrwt>
<pdfrwt beam="2">  1       -1 0.25811692E+00 0.23694953E+04</pdfrwt>
<totfact> 0.11400106E+00</totfact>
</mgrwt>
</event>
<event>
 6    1  0.1072514E-005  0.2751848E+04  0.7818608E-02  0.8318376E-01
          2   -1    0    0  501    0  0.00000000000E+00  0.00000000000E+00  0.37833173496E+04  0.37833173496E+04  0.00000000000E+00 0. -1.
         -2   -1    0    0    0  501 -0.00000000000E+00 -0.00000000000E+00 -0.50039853413E+03  0.50039853413E+03  0.00000000000E+00 0.  1.
         23    2    1    2    0    0 -0.11047669816E+04 -0.80710384709E+03  0.18524340507E+04  0.23042681411E+04  0.78822903215E+02 0.  0.
         13    1    3    3    0    0 -0.12633770925E+03 -0.11669431281E+03  0.26244281491E+03  0.31377541414E+03  0.00000000000E+00 0. -1.
        -13    1    3    3    0    0 -0.97842927239E+03 -0.69040953428E+03  0.15899912358E+04  0.19904927270E+04  0.00000000000E+00 0.  1.
         22    1    1    2    0    0  0.11047669816E+04  0.80710384709E+03  0.14304847647E+04  0.19794477426E+04  0.00000000000E+00 0.  1.
<mgrwt>
<rscale>  0 0.27518477E+04</rscale>
<asrwt>0</asrwt>
<pdfrwt beam="1">  1        2 0.58204880E+00 0.27518477E+04</pdfrwt>
<pdfrwt beam="2">  1       -2 0.76984392E-01 0.27518477E+04</pdfrwt>
<totfact> 0.66588187E-01</totfact>
</mgrwt>
</event>
<event>
 6    1  0.1072514E-005  0.1893859E+04  0.7818608E-02  0.8657919E-01
         -1   -1    0    0    0  501 -0.00000000000E+00  0.00000000000E+00  0.15811829421E+04  0.15811829421E+04  0.00000000000E+00 0.  1.
          1   -1    0    0  501    0  0.00000000000E+00 -0.00000000000E+00 -0.56709138410E+03  0.56709138410E+03  0.00000000000E+00 0. -1.
         23    2    1    2    0    0  0.12978409291E+03  0.55834751239E+03 -0.34360864709E+03  0.67452207352E+03  0.91199067736E+02 0.  0.
         13    1    3    3    0    0  0.57287259664E+02  0.24572693689E+03 -0.99132936575E+02  0.27109204479E+03  0.00000000000E+00 0.  1.
        -13    1    3    3    0    0  0.72496833241E+02  0.31262057549E+03 -0.24447571051E+03  0.40343002873E+03  0.00000000000E+00 0. -1.
         22    1    1    2    0    0 -0.12978409291E+03 -0.55834751239E+03  0.13577002051E+04  0.14737522526E+04  0.00000000000E+00 0.  1.
<mgrwt>
<rscale>  0 0.18938587E+04</rscale>
<asrwt>0</asrwt>
<pdfrwt beam="1">  1        1 0.87244829E-01 0.18938587E+04</pdfrwt>
<pdfrwt beam="2">  1       -1 0.24325891E+00 0.18938587E+04</pdfrwt>
<totfact> 0.26831511E+00</totfact>
</mgrwt>
</event>
<event>
 6    1  0.1072514E-005  0.6051901E+04  0.7818608E-02  0.7684000E-01
         -2   -1    0    0    0  501 -0.00000000000E+00  0.00000000000E+00  0.23121584903E+04  0.23121584903E+04  0.00000000000E+00 0.  1.
          2   -1    0    0  501    0  0.00000000000E+00 -0.00000000000E+00 -0.39600993302E+04  0.39600993302E+04  0.00000000000E+00 0. -1.
         23    2    1    2    0    0 -0.57651495876E+02 -0.11534194856E+04 -0.37221263586E+04  0.38982431257E+04  0.91513023431E+02 0.  0.
         13    1    3    3    0    0  0.21466990440E+02 -0.37226048211E+03 -0.11485176363E+04  0.12075311421E+04  0.00000000000E+00 0. -1.
        -13    1    3    3    0    0 -0.79118486316E+02 -0.78115900347E+03 -0.25736087223E+04  0.26907119837E+04  0.00000000000E+00 0.  1.
         22    1    1    2    0    0  0.57651495876E+02  0.11534194856E+04  0.20741855188E+04  0.23740146948E+04  0.00000000000E+00 0.  1.
<mgrwt>
<rscale>  0 0.60519013E+04</rscale>
<asrwt>0</asrwt>
<pdfrwt beam="1">  1        2 0.60924605E+00 0.60519013E+04</pdfrwt>
<pdfrwt beam="2">  1       -2 0.35571669E+00 0.60519013E+04</pdfrwt>
<totfact> 0.35183804E-03</totfact>
</mgrwt>
</event>
<event>
 6    1  0.1072514E-005  0.2186489E+04  0.7818608E-02  0.8524073E-01
          1   -1    0    0  501    0  0.00000000000E+00  0.00000000000E+00  0.95522341788E+03  0.95522341788E+03  0.00000000000E+00 0. -1.
         -1   -1    0    0    0  501 -0.00000000000E+00 -0.00000000000E+00 -0.12512084649E+04  0.12512084649E+04  0.00000000000E+00 0.  1.
         23    2    1    2    0    0  0.10059872097E+04 -0.51600747226E+01  0.27860786658E+03  0.10479009558E+04  0.91854109497E+02 0.  0.
         13    1    3    3    0    0  0.62885699862E+03 -0.22170322143E+01  0.12774501758E+03  0.64170462790E+03  0.00000000000E+00 0. -1.
        -13    1    3    3    0    0  0.37713021105E+03 -0.29430425084E+01  0.15086284900E+03  0.40619632790E+03  0.00000000000E+00 0.  1.
         22    1    1    2    0    0 -0.10059872097E+04  0.51600747226E+01 -0.57459291359E+03  0.11585309270E+04  0.00000000000E+00 0.  1.
<mgrwt>
<rscale>  0 0.21864891E+04</rscale>
<asrwt>0</asrwt>
<pdfrwt beam="1">  1        1 0.14695745E+00 0.21864891E+04</pdfrwt>
<pdfrwt beam="2">  1       -1 0.19249361E+00 0.21864891E+04</pdfrwt>
<totfact> 0.25431997E+00</totfact>
</mgrwt>
</event>
<event>
 6    1  0.1072514E-005  0.2772059E+04  0.7818608E-02  0.8311996E-01
          2   -1    0    0  501    0  0.00000000000E+00  0.00000000000E+00  0.12642967191E+04  0.12642967191E+04  0.00000000000E+00 0. -1.
         -2   -1    0    0    0  501 -0.00000000000E+00 -0.00000000000E+00 -0.15194829970E+04  0.15194829970E+04  0.00000000000E+00 0.  1.
         23    2    1    2    0    0 -0.58085725660E+03  0.20268972848E+03  0.11177773910E+04  0.12792839485E+04  0.93074413946E+02 0.  0.
         11    1    3    3    0    0 -0.74867920138E+02 -0.12076377066E+01  0.16918085241E+03  0.18501033668E+03  0.00000000000E+00 0. -1.
        -11    1    3    3    0    0 -0.50598933646E+03  0.20389736619E+03  0.94859653854E+03  0.10942736118E+04  0.00000000000E+00 0.  1.
         22    1    1    2    0    0  0.58085725660E+03 -0.20268972848E+03 -0.13729636689E+04  0.15044957676E+04  0.00000000000E+00 0.  1.
<mgrwt>
<rscale>  0 0.27720587E+04</rscale>
<asrwt>0</asrwt>
<pdfrwt beam="1">  1        2 0.19450719E+00 0.27720587E+04</pdfrwt>
<pdfrwt beam="2">  1       -2 0.23376661E+00 0.27720587E+04</pdfrwt>
<totfact> 0.12253227E+00</totfact>
</mgrwt>
</event>
<event>
 6    1  0.1072514E-005  0.2683837E+04  0.7818608E-02  0.8340269E-01
          1   -1    0    0  501    0  0.00000000000E+00  0.00000000000E+00  0.26548903871E+04  0.26548903871E+04  0.00000000000E+00 0. -1.
         -1   -1    0    0    0  501 -0.00000000000E+00 -0.00000000000E+00 -0.67827459281E+03  0.67827459281E+03  0.00000000000E+00 0.  1.
         23    2    1    2    0    0 -0.76040209172E+03 -0.89838370934E+03  0.17858444020E+04  0.21408150504E+04  0.92434959097E+02 0.  0.
         13    1    3    3    0    0 -0.35181326585E+03 -0.35013429886E+03  0.78213802278E+03  0.92634037370E+03  0.00000000000E+00 0.  1.
        -13    1    3    3    0    0 -0.40858882586E+03 -0.54824941047E+03  0.10037063792E+04  0.12144746767E+04  0.00000000000E+00 0. -1.
         22    1    1    2    0    0  0.76040209172E+03  0.89838370934E+03  0.19077139233E+03  0.11923499295E+04  0.00000000000E+00 0.  1.
<mgrwt>
<rscale>  0 0.26838366E+04</rscale>
<asrwt>0</asrwt>
<pdfrwt beam="1">  1        1 0.40844467E+00 0.26838366E+04</pdfrwt>
<pdfrwt beam="2">  1       -1 0.10434994E+00 0.26838366E+04</pdfrwt>
<totfact> 0.79710355E-01</totfact>
</mgrwt>
</event>
<event>
 6    1  0.1072514E-005  0.8085182E+03  0.7818608E-02  0.9547769E-01
          2   -1    0    0  501    0  0.00000000000E+00  0.00000000000E+00  0.14841676903E+04  0.14841676903E+04  0.00000000000E+00 0. -1.
         -2   -1    0    0    0  501 -0.00000000000E+00 -0.00000000000E+00 -0.11011250522E+03  0.11011250522E+03  0.00000000000E+00 0.  1.
         23    2    1    2    0    0 -0.31762819402E+03  0.78210768821E+02  0.23904765924E+03  0.41307459203E+03  0.80512366744E+02 0.  0.
         11    1    3    3    0    0 -0.19874019308E+03  0.54869398644E+02  0.19606966000E+03  0.28451999372E+03  0.00000000000E+00 0. -1.
        -11    1    3    3    0    0 -0.11888800093E+03  0.23341370178E+02  0.42977999238E+02  0.12855459831E+03  0.00000000000E+00 0.  1.
         22    1    1    2    0    0  0.31762819402E+03 -0.78210768821E+02  0.11350075258E+04  0.11812056035E+04  0.00000000000E+00 0. -1.
<mgrwt>
<rscale>  0 0.80851821E+03</rscale>
<asrwt>0</asrwt>
<pdfrwt beam="1">  1        2 0.22833348E+00 0.80851821E+03</pdfrwt>
<pdfrwt beam="2">  1       -2 0.16940386E-01 0.80851821E+03</pdfrwt>
<totfact> 0.37227031E+02</totfact>
</mgrwt>
</event>
<event>
 6    1  0.1072514E-005  0.1704766E+04  0.7818608E-02  0.8758651E-01
          1   -1    0    0  501    0  0.00000000000E+00  0.00000000000E+00  0.36249284131E+03  0.36249284131E+03  0.00000000000E+00 0. -1.
         -1   -1    0    0    0  501 -0.00000000000E+00 -0.00000000000E+00 -0.20043336591E+04  0.20043336591E+04  0.00000000000E+00 0.  1.
         23    2    1    2    0    0  0.13923775040E+03 -0.52551523574E+03  0.83905766012E+02  0.55747449331E+03  0.90466673371E+02 0.  0.
         13    1    3    3    0    0  0.41164214404E+02 -0.11025162130E+03 -0.17295354965E+02  0.11894974507E+03  0.00000000000E+00 0. -1.
        -13    1    3    3    0    0  0.98073535994E+02 -0.41526361444E+03  0.10120112098E+03  0.43852474825E+03  0.00000000000E+00 0.  1.
         22    1    1    2    0    0 -0.13923775040E+03  0.52551523574E+03 -0.17257465838E+04  0.18093520071E+04  0.00000000000E+00 0.  1.
<mgrwt>
<rscale>  0 0.17047658E+04</rscale>
<asrwt>0</asrwt>
<pdfrwt beam="1">  1        1 0.55768129E-01 0.17047658E+04</pdfrwt>
<pdfrwt beam="2">  1       -1 0.30835903E+00 0.17047658E+04</pdfrwt>
<totfact> 0.18990241E+00</totfact>
</mgrwt>
</event>
<event>
 6    1  0.1072514E-005  0.8856152E+03  0.7818608E-02  0.9443744E-01
         -2   -1    0    0    0  501 -0.00000000000E+00  0.00000000000E+00  0.32826270425E+03  0.32826270425E+03  0.00000000000E+00 0.  1.
          2   -1    0    0  501    0  0.00000000000E+00 -0.00000000000E+00 -0.59732205971E+03  0.59732205971E+03  0.00000000000E+00 0. -1.
         23    2    1    2    0    0 -0.26514479764E+03 -0.30594672977E+03  0.38946289428E+02  0.41688775940E+03  0.91506422192E+02 0.  0.
         11    1    3    3    0    0 -0.12907341830E+03 -0.21323553252E+03  0.82284012040E+01  0.24939335642E+03  0.00000000000E+00 0.  1.
        -11    1    3    3    0    0 -0.13607137934E+03 -0.92711197251E+02  0.30717888224E+02  0.16749440298E+03  0.00000000000E+00 0. -1.
         22    1    1    2    0    0  0.26514479764E+03  0.30594672977E+03 -0.30800564488E+03  0.50869700456E+03  0.00000000000E+00 0. -1.
<mgrwt>
<rscale>  0 0.88561516E+03</rscale>
<asrwt>0</asrwt>
<pdfrwt beam="1">  1        2 0.91895701E-01 0.88561516E+03</pdfrwt>
<pdfrwt beam="2">  1       -2 0.50501955E-01 0.88561516E+03</pdfrwt>
<totfact> 0.18562531E+02</totfact>
</mgrwt>
</event>
<event>
 6    1  0.1139197E-005  0.2117286E+04  0.7818608E-02  0.8553667E-01
          1   -1    0    0  501    0  0.00000000000E+00  0.00000000000E+00  0.18265312937E+04  0.18265312937E+04  0.00000000000E+00 0. -1.
         -1   -1    0    0    0  501 -0.00000000000E+00 -0.00000000000E+00 -0.61358104208E+03  0.61358104208E+03  0.00000000000E+00 0.  1.
         23    2    1    2    0    0  0.57336555231E+02  0.84565240526E+03  0.13348921981E+04  0.15837915376E+04  0.89682679593E+02 0.  0.
         13    1    3    3    0    0  0.59948506846E+02  0.57429818383E+03  0.83882616372E+03  0.10183523753E+04  0.00000000000E+00 0.  1.
        -13    1    3    3    0    0 -0.26119516146E+01  0.27135422144E+03  0.49606603438E+03  0.56543916229E+03  0.00000000000E+00 0. -1.
         22    1    1    2    0    0 -0.57336555231E+02 -0.84565240526E+03 -0.12194194646E+03  0.85632079818E+03  0.00000000000E+00 0.  1.
<mgrwt>
<rscale>  0 0.21172860E+04</rscale>
<asrwt>0</asrwt>
<pdfrwt beam="1">  1        1 0.28100481E+00 0.21172860E+04</pdfrwt>
<pdfrwt beam="2">  1       -1 0.94397084E-01 0.21172860E+04</pdfrwt>
<totfact> 0.38978020E+00</totfact>
</mgrwt>
</event>
<event>
 6    1  0.1072514E-005  0.1566218E+04  0.7818608E-02  0.8841575E-01
         -1   -1    0    0    0  501 -0.00000000000E+00  0.00000000000E+00  0.36297944259E+03  0.36297944259E+03  0.00000000000E+00 0.  1.
          1   -1    0    0  501    0  0.00000000000E+00 -0.00000000000E+00 -0.16895157274E+04  0.16895157274E+04  0.00000000000E+00 0. -1.
         23    2    1    2    0    0 -0.58296228876E+03 -0.40408690061E+03 -0.23892590686E+03  0.75402391981E+03  0.91297477062E+02 0.  0.
         11    1    3    3    0    0 -0.44962805962E+03 -0.33742936921E+03 -0.22035013236E+03  0.60380307388E+03  0.00000000000E+00 0. -1.
        -11    1    3    3    0    0 -0.13333422914E+03 -0.66657531395E+02 -0.18575774507E+02  0.15022084592E+03  0.00000000000E+00 0.  1.
         22    1    1    2    0    0  0.58296228876E+03  0.40408690061E+03 -0.10876103780E+04  0.12984712502E+04  0.00000000000E+00 0. -1.
<mgrwt>
<rscale>  0 0.15662177E+04</rscale>
<asrwt>0</asrwt>
<pdfrwt beam="1">  1        1 0.25992550E+00 0.15662177E+04</pdfrwt>
<pdfrwt beam="2">  1       -1 0.55842990E-01 0.15662177E+04</pdfrwt>
<totfact> 0.15121974E+01</totfact>
</mgrwt>
</event>
<event>
 6    1  0.1210635E-005  0.4120094E+04  0.7818608E-02  0.7980749E-01
          2   -1    0    0  501    0  0.00000000000E+00  0.00000000000E+00  0.19807167288E+04  0.19807167288E+04  0.00000000000E+00 0. -1.
         -2   -1    0    0    0  501 -0.00000000000E+00 -0.00000000000E+00 -0.21425543532E+04  0.21425543532E+04  0.00000000000E+00 0.  1.
         23    2    1    2    0    0  0.19340209782E+04  0.31100463724E+03  0.55399947005E+03  0.20377055053E+04  0.90373031882E+02 0.  0.
         13    1    3    3    0    0  0.10828529609E+04  0.17227381310E+03  0.26344855432E+03  0.11276763464E+04  0.00000000000E+00 0.  1.
        -13    1    3    3    0    0  0.85116801738E+03  0.13873082414E+03  0.29055091574E+03  0.91002915888E+03  0.00000000000E+00 0. -1.
         22    1    1    2    0    0 -0.19340209782E+04 -0.31100463724E+03 -0.71583709449E+03  0.20855655767E+04  0.00000000000E+00 0. -1.
<mgrwt>
<rscale>  0 0.41200938E+04</rscale>
<asrwt>0</asrwt>
<pdfrwt beam="1">  1        2 0.30472565E+00 0.41200938E+04</pdfrwt>
<pdfrwt beam="2">  1       -2 0.32962375E+00 0.41200938E+04</pdfrwt>
<totfact> 0.11165964E-01</totfact>
</mgrwt>
</event>
<event>
 6    1  0.1072514E-005  0.4537555E+04  0.7818608E-02  0.7904095E-01
          2   -1    0    0  501    0  0.00000000000E+00  0.00000000000E+00  0.38404073486E+04  0.38404073486E+04  0.00000000000E+00 0. -1.
         -2   -1    0    0    0  501 -0.00000000000E+00 -0.00000000000E+00 -0.13403138922E+04  0.13403138922E+04  0.00000000000E+00 0.  1.
         23    2    1    2    0    0 -0.27699504577E+03 -0.18964989651E+04  0.26347285995E+04  0.32593776480E+04  0.91177185976E+02 0.  0.
         13    1    3    3    0    0 -0.15057965147E+03 -0.12601244167E+04  0.17899806526E+04  0.21942238979E+04  0.00000000000E+00 0.  1.
        -13    1    3    3    0    0 -0.12641539430E+03 -0.63637454835E+03  0.84474794686E+03  0.10651537501E+04  0.00000000000E+00 0. -1.
         22    1    1    2    0    0  0.27699504577E+03  0.18964989651E+04 -0.13463514310E+03  0.19213435928E+04  0.00000000000E+00 0.  1.
<mgrwt>
<rscale>  0 0.45375550E+04</rscale>
<asrwt>0</asrwt>
<pdfrwt beam="1">  1        2 0.59083190E+00 0.45375550E+04</pdfrwt>
<pdfrwt beam="2">  1       -2 0.20620214E+00 0.45375550E+04</pdfrwt>
<totfact> 0.41719418E-02</totfact>
</mgrwt>
</event>
<event>
 6    1  0.1072514E-005  0.3190759E+04  0.7818608E-02  0.8191262E-01
          1   -1    0    0  501    0  0.00000000000E+00  0.00000000000E+00  0.29452962606E+04  0.29452962606E+04  0.00000000000E+00 0. -1.
         -1   -1    0    0    0  501 -0.00000000000E+00 -0.00000000000E+00 -0.86416946883E+03  0.86416946883E+03  0.00000000000E+00 0.  1.
         23    2    1    2    0    0 -0.12383061053E+03  0.96750988025E+03  0.25467408317E+04  0.27286300238E+04  0.90130763508E+02 0.  0.
         13    1    3    3    0    0 -0.62793065524E+02  0.42990778795E+03  0.10124571565E+04  0.11017409718E+04  0.00000000000E+00 0. -1.
        -13    1    3    3    0    0 -0.61037545011E+02  0.53760209230E+03  0.15342836752E+04  0.16268890520E+04  0.00000000000E+00 0.  1.
         22    1    1    2    0    0  0.12383061053E+03 -0.96750988025E+03 -0.46561403989E+03  0.10808357057E+04  0.00000000000E+00 0.  1.
<mgrwt>
<rscale>  0 0.31907586E+04</rscale>
<asrwt>0</asrwt>
<pdfrwt beam="1">  1        1 0.45312250E+00 0.31907586E+04</pdfrwt>
<pdfrwt beam="2">  1       -1 0.13294915E+00 0.31907586E+04</pdfrwt>
<totfact> 0.26257995E-01</totfact>
</mgrwt>
</event>
<event>
 6    1  0.1072514E-005  0.2017027E+04  0.7818608E-02  0.8598701E-01
         -1   -1    0    0    0  501 -0.00000000000E+00  0.00000000000E+00  0.94982229320E+03  0.94982229320E+03  0.00000000000E+00 0.  1.
          1   -1    0    0  501    0  0.00000000000E+00 -0.00000000000E+00 -0.10708312373E+04  0.10708312373E+04  0.00000000000E+00 0. -1.
         23    2    1    2    0    0 -0.23839643945E+03 -0.94447276376E+03 -0.31459250633E+03  0.10275088989E+04  0.89131522841E+02 0.  0.
         13    1    3    3    0    0 -0.17886526055E+03 -0.52939397567E+03 -0.17486962358E+03  0.58551699221E+03  0.00000000000E+00 0. -1.
        -13    1    3    3    0    0 -0.59531178900E+02 -0.41507878808E+03 -0.13972288274E+03  0.44199190665E+03  0.00000000000E+00 0.  1.
         22    1    1    2    0    0  0.23839643945E+03  0.94447276376E+03  0.19358356221E+03  0.99314463165E+03  0.00000000000E+00 0.  1.
<mgrwt>
<rscale>  0 0.20170269E+04</rscale>
<asrwt>0</asrwt>
<pdfrwt beam="1">  1        1 0.16474327E+00 0.20170269E+04</pdfrwt>
<pdfrwt beam="2">  1       -1 0.14612651E+00 0.20170269E+04</pdfrwt>
<totfact> 0.46256264E+00</totfact>
</mgrwt>
</event>
<event>
 6    1  0.1072514E-005  0.2346363E+04  0.7818608E-02  0.8459862E-01
         -2   -1    0    0    0  501 -0.00000000000E+00  0.00000000000E+00  0.15694035572E+04  0.15694035572E+04  0.00000000000E+00 0.  1.
          2   -1    0    0  501    0  0.00000000000E+00 -0.00000000000E+00 -0.87699212399E+03  0.87699212399E+03  0.00000000000E+00 0. -1.
         23    2    1    2    0    0  0.16516282709E+03 -0.11080327971E+04 -0.10480058806E+02  0.11238708653E+04  0.89221361090E+02 0.  0.
         13    1    3    3    0    0  0.65290953073E+02 -0.22771752459E+03  0.16808329704E+02  0.23748831446E+03  0.00000000000E+00 0.  1.
        -13    1    3    3    0    0  0.99871874019E+02 -0.88031527255E+03 -0.27288388510E+02  0.88638255085E+03  0.00000000000E+00 0. -1.
         22    1    1    2    0    0 -0.16516282709E+03  0.11080327971E+04  0.70289149199E+03  0.13225248158E+04  0.00000000000E+00 0.  1.
<mgrwt>
<rscale>  0 0.23463628E+04</rscale>
<asrwt>0</asrwt>
<pdfrwt beam="1">  1        2 0.13492187E+00 0.23463628E+04</pdfrwt>
<pdfrwt beam="2">  1       -2 0.24144670E+00 0.23463628E+04</pdfrwt>
<totfact> 0.19920021E+00</totfact>
</mgrwt>
</event>
<event>
 6    1  0.1072514E-005  0.1832221E+04  0.7818608E-02  0.8689350E-01
          3   -1    0    0  501    0  0.00000000000E+00  0.00000000000E+00  0.27063431283E+04  0.27063431283E+04  0.00000000000E+00 0. -1.
         -3   -1    0    0    0  501 -0.00000000000E+00 -0.00000000000E+00 -0.31010785252E+03  0.31010785252E+03  0.00000000000E+00 0.  1.
         23    2    1    2    0    0  0.89741951710E+03 -0.12993365391E+03  0.13883784567E+04  0.16607150509E+04  0.90195326472E+02 0.  0.
         11    1    3    3    0    0  0.91738696184E+02  0.13700409044E+02  0.14933963328E+03  0.17580106841E+03  0.00000000000E+00 0.  1.
        -11    1    3    3    0    0  0.80568082092E+03 -0.14363406295E+03  0.12390388235E+04  0.14849139825E+04  0.00000000000E+00 0. -1.
         22    1    1    2    0    0 -0.89741951710E+03  0.12993365391E+03  0.10078568190E+04  0.13557359299E+04  0.00000000000E+00 0. -1.
<mgrwt>
<rscale>  0 0.18322208E+04</rscale>
<asrwt>0</asrwt>
<pdfrwt beam="1">  1        3 0.41636046E+00 0.18322208E+04</pdfrwt>
<pdfrwt beam="2">  1       -3 0.47708902E-01 0.18322208E+04</pdfrwt>
<totfact> 0.98591423E-02</totfact>
</mgrwt>
</event>
<event>
 6    1  0.1072514E-005  0.8989959E+03  0.7818608E-02  0.9426837E-01
          2   -1    0    0  501    0  0.00000000000E+00  0.00000000000E+00  0.60800260341E+03  0.60800260341E+03  0.00000000000E+00 0. -1.
         -2   -1    0    0    0  501 -0.00000000000E+00 -0.00000000000E+00 -0.33231502641E+03  0.33231502641E+03  0.00000000000E+00 0.  1.
         23    2    1    2    0    0  0.37999687476E+03 -0.22072018419E+02  0.38013343473E+03  0.54561047758E+03  0.91129392772E+02 0.  0.
         13    1    3    3    0    0  0.27686307590E+03 -0.52886435150E+02  0.25031305888E+03  0.37697050981E+03  0.00000000000E+00 0. -1.
        -13    1    3    3    0    0  0.10313379886E+03  0.30814416731E+02  0.12982037585E+03  0.16863996777E+03  0.00000000000E+00 0.  1.
         22    1    1    2    0    0 -0.37999687476E+03  0.22072018419E+02 -0.10444585773E+03  0.39470715223E+03  0.00000000000E+00 0.  1.
<mgrwt>
<rscale>  0 0.89899589E+03</rscale>
<asrwt>0</asrwt>
<pdfrwt beam="1">  1        2 0.93538862E-01 0.89899589E+03</pdfrwt>
<pdfrwt beam="2">  1       -2 0.51125389E-01 0.89899589E+03</pdfrwt>
<totfact> 0.17706999E+02</totfact>
</mgrwt>
</event>
<event>
 6    1  0.1072514E-005  0.3321971E+04  0.7818608E-02  0.8157327E-01
         -2   -1    0    0    0  501 -0.00000000000E+00  0.00000000000E+00  0.14412858330E+04  0.14412858330E+04  0.00000000000E+00 0.  1.
          2   -1    0    0  501    0  0.00000000000E+00 -0.00000000000E+00 -0.19141741374E+04  0.19141741374E+04  0.00000000000E+00 0. -1.
         23    2    1    2    0    0 -0.57724127537E+03  0.12201852026E+04 -0.12120885652E+04  0.18164744461E+04  0.91440170397E+02 0.  0.
         13    1    3    3    0    0 -0.85687526697E+02  0.26701338631E+03 -0.25753304757E+03  0.38073845523E+03  0.00000000000E+00 0. -1.
        -13    1    3    3    0    0 -0.49155374867E+03  0.95317181630E+03 -0.95455551765E+03  0.14357359909E+04  0.00000000000E+00 0.  1.
         22    1    1    2    0    0  0.57724127537E+03 -0.12201852026E+04  0.73920026082E+03  0.15389855244E+04  0.00000000000E+00 0.  1.
<mgrwt>
<rscale>  0 0.33219705E+04</rscale>
<asrwt>0</asrwt>
<pdfrwt beam="1">  1        2 0.29448833E+00 0.33219705E+04</pdfrwt>
<pdfrwt beam="2">  1       -2 0.22173628E+00 0.33219705E+04</pdfrwt>
<totfact> 0.59915471E-01</totfact>
</mgrwt>
</event>
<event>
 6    1  0.1072514E-005  0.2963421E+04  0.7818608E-02  0.8254254E-01
          2   -1    0    0  501    0  0.00000000000E+00  0.00000000000E+00  0.30089208181E+04  0.30089208181E+04  0.00000000000E+00 0.  1.
         -2   -1    0    0    0  501 -0.00000000000E+00 -0.00000000000E+00 -0.72965253195E+03  0.72965253195E+03  0.00000000000E+00 0. -1.
         23    2    1    2    0    0  0.46502535650E+03  0.13388698931E+04  0.60109957720E+03  0.15419688366E+04  0.86752627229E+02 0.  0.
         11    1    3    3    0    0  0.26037640249E+03  0.63811170158E+03  0.26666446609E+03  0.73898061689E+03  0.00000000000E+00 0.  1.
        -11    1    3    3    0    0  0.20464895401E+03  0.70075819156E+03  0.33443511111E+03  0.80298821969E+03  0.00000000000E+00 0. -1.
         22    1    1    2    0    0 -0.46502535650E+03 -0.13388698931E+04  0.16781687090E+04  0.21966045135E+04  0.00000000000E+00 0.  1.
<mgrwt>
<rscale>  0 0.29634215E+04</rscale>
<asrwt>0</asrwt>
<pdfrwt beam="1">  1        2 0.46291089E+00 0.29634215E+04</pdfrwt>
<pdfrwt beam="2">  1       -2 0.11225424E+00 0.29634215E+04</pdfrwt>
<totfact> 0.92246954E-01</totfact>
</mgrwt>
</event>
<event>
 6    1  0.1072514E-005  0.1561202E+04  0.7818608E-02  0.8844744E-01
         -2   -1    0    0    0  501 -0.00000000000E+00  0.00000000000E+00  0.35850634703E+03  0.35850634703E+03  0.00000000000E+00 0.  1.
          2   -1    0    0  501    0  0.00000000000E+00 -0.00000000000E+00 -0.16996583572E+04  0.16996583572E+04  0.00000000000E+00 0. -1.
         23    2    1    2    0    0  0.27336443744E+03  0.72826581942E+03 -0.65976748025E+03  0.10240544118E+04  0.91077389594E+02 0.  0.
         11    1    3    3    0    0  0.20456642957E+02  0.69248661182E+02 -0.99032601279E+02  0.12256144350E+03  0.00000000000E+00 0. -1.
        -11    1    3    3    0    0  0.25290779448E+03  0.65901715824E+03 -0.56073487897E+03  0.90149296828E+03  0.00000000000E+00 0.  1.
         22    1    1    2    0    0 -0.27336443744E+03 -0.72826581942E+03 -0.68138452996E+03  0.10341102925E+04  0.00000000000E+00 0.  1.
<mgrwt>
<rscale>  0 0.15612025E+04</rscale>
<asrwt>0</asrwt>
<pdfrwt beam="1">  1        2 0.26148590E+00 0.15612025E+04</pdfrwt>
<pdfrwt beam="2">  1       -2 0.55154823E-01 0.15612025E+04</pdfrwt>
<totfact> 0.29161649E+01</totfact>
</mgrwt>
</event>
<event>
 6    1  0.1072514E-005  0.4550169E+04  0.7818608E-02  0.7901912E-01
          2   -1    0    0  501    0  0.00000000000E+00  0.00000000000E+00  0.26125237740E+04  0.26125237740E+04  0.00000000000E+00 0. -1.
         -2   -1    0    0    0  501 -0.00000000000E+00 -0.00000000000E+00 -0.19812297777E+04  0.19812297777E+04  0.00000000000E+00 0.  1.
         23    2    1    2    0    0  0.16839452528E+04  0.10070545521E+04 -0.84493828751E+03  0.21383325611E+04  0.93353878881E+02 0.  0.
         13    1    3    3    0    0  0.55574295817E+03  0.36008665007E+03 -0.32575836937E+03  0.73799129150E+03  0.00000000000E+00 0.  1.
        -13    1    3    3    0    0  0.11282022946E+04  0.64696790205E+03 -0.51917991814E+03  0.14003412696E+04  0.00000000000E+00 0. -1.
         22    1    1    2    0    0 -0.16839452528E+04 -0.10070545521E+04  0.14762322838E+04  0.24554209907E+04  0.00000000000E+00 0. -1.
<mgrwt>
<rscale>  0 0.45501692E+04</rscale>
<asrwt>0</asrwt>
<pdfrwt beam="1">  1        2 0.40192673E+00 0.45501692E+04</pdfrwt>
<pdfrwt beam="2">  1       -2 0.30480458E+00 0.45501692E+04</pdfrwt>
<totfact> 0.67057032E-02</totfact>
</mgrwt>
</event>
<event>
 6    1  0.1072514E-005  0.3683051E+04  0.7818608E-02  0.8071728E-01
         -2   -1    0    0    0  501 -0.00000000000E+00  0.00000000000E+00  0.16446964810E+04  0.16446964810E+04  0.00000000000E+00 0.  1.
          2   -1    0    0  501    0  0.00000000000E+00 -0.00000000000E+00 -0.20619105113E+04  0.20619105113E+04  0.00000000000E+00 0. -1.
         23    2    1    2    0    0  0.38337895284E+03 -0.57858188671E+03  0.15067000701E+04  0.16613241545E+04  0.90091197395E+02 0.  0.
         11    1    3    3    0    0  0.19795811682E+03 -0.37827007239E+03  0.91912867381E+03  0.10134461913E+04  0.00000000000E+00 0.  1.
        -11    1    3    3    0    0  0.18542083602E+03 -0.20031181432E+03  0.58757139631E+03  0.64787796316E+03  0.00000000000E+00 0. -1.
         22    1    1    2    0    0 -0.38337895284E+03  0.57858188671E+03 -0.19239141004E+04  0.20452828379E+04  0.00000000000E+00 0. -1.
<mgrwt>
<rscale>  0 0.36830514E+04</rscale>
<asrwt>0</asrwt>
<pdfrwt beam="1">  1        2 0.31721700E+00 0.36830514E+04</pdfrwt>
<pdfrwt beam="2">  1       -2 0.25303023E+00 0.36830514E+04</pdfrwt>
<totfact> 0.30755695E-01</totfact>
</mgrwt>
</event>
<event>
 6    1  0.1072514E-005  0.1519630E+04  0.7818608E-02  0.8871503E-01
         -1   -1    0    0    0  501 -0.00000000000E+00  0.00000000000E+00  0.52776899711E+03  0.52776899711E+03  0.00000000000E+00 0.  1.
          1   -1    0    0  501    0  0.00000000000E+00 -0.00000000000E+00 -0.10938851194E+04  0.10938851194E+04  0.00000000000E+00 0. -1.
         23    2    1    2    0    0  0.61084201385E+03 -0.24395510191E+03  0.11625111472E+03  0.67388457501E+03  0.89241476545E+02 0.  0.
         13    1    3    3    0    0  0.23080698548E+03 -0.61711727323E+02  0.95024013319E+01  0.23910352876E+03  0.00000000000E+00 0.  1.
        -13    1    3    3    0    0  0.38003502836E+03 -0.18224337459E+03  0.10674871339E+03  0.43478104625E+03  0.00000000000E+00 0. -1.
         22    1    1    2    0    0 -0.61084201385E+03  0.24395510191E+03 -0.68236723701E+03  0.94776954149E+03  0.00000000000E+00 0. -1.
<mgrwt>
<rscale>  0 0.15196298E+04</rscale>
<asrwt>0</asrwt>
<pdfrwt beam="1">  1        1 0.16829002E+00 0.15196298E+04</pdfrwt>
<pdfrwt beam="2">  1       -1 0.81195231E-01 0.15196298E+04</pdfrwt>
<totfact> 0.18706214E+01</totfact>
</mgrwt>
</event>
<event>
 6    1  0.1072514E-005  0.4237154E+04  0.7818608E-02  0.7958342E-01
         -2   -1    0    0    0  501 -0.00000000000E+00  0.00000000000E+00  0.49992097442E+04  0.49992097442E+04  0.00000000000E+00 0.  1.
          2   -1    0    0  501    0  0.00000000000E+00 -0.00000000000E+00 -0.89781540557E+03  0.89781540557E+03  0.00000000000E+00 0. -1.
         23    2    1    2    0    0 -0.10806993401E+04 -0.84512663029E+03  0.42966456901E+04  0.45112859336E+04  0.91577853939E+02 0.  0.
         11    1    3    3    0    0 -0.57932169274E+03 -0.50725898538E+03  0.23556766824E+04  0.24783337011E+04  0.00000000000E+00 0. -1.
        -11    1    3    3    0    0 -0.50137764740E+03 -0.33786764491E+03  0.19409690077E+04  0.20329522325E+04  0.00000000000E+00 0.  1.
         22    1    1    2    0    0  0.10806993401E+04  0.84512663029E+03 -0.19525135148E+03  0.13857392162E+04  0.00000000000E+00 0. -1.
<mgrwt>
<rscale>  0 0.42371535E+04</rscale>
<asrwt>0</asrwt>
<pdfrwt beam="1">  1        2 0.13812545E+00 0.42371535E+04</pdfrwt>
<pdfrwt beam="2">  1       -2 0.76910917E+00 0.42371535E+04</pdfrwt>
<totfact> 0.26480989E-03</totfact>
</mgrwt>
</event>
<event>
 6    1  0.1072514E-005  0.9615773E+03  0.7818608E-02  0.9351720E-01
         -2   -1    0    0    0  501 -0.00000000000E+00  0.00000000000E+00  0.42996300420E+03  0.42996300420E+03  0.00000000000E+00 0.  1.
          2   -1    0    0  501    0  0.00000000000E+00 -0.00000000000E+00 -0.53762238455E+03  0.53762238455E+03  0.00000000000E+00 0. -1.
         23    2    1    2    0    0 -0.31574388191E+03 -0.31797201396E+03 -0.21746539199E+03  0.50622028298E+03  0.90373544578E+02 0.  0.
         13    1    3    3    0    0 -0.16357648094E+03 -0.10643235326E+03 -0.11275139738E+03  0.22538409116E+03  0.00000000000E+00 0.  1.
        -13    1    3    3    0    0 -0.15216740097E+03 -0.21153966070E+03 -0.10471399461E+03  0.28083619182E+03  0.00000000000E+00 0. -1.
         22    1    1    2    0    0  0.31574388191E+03  0.31797201396E+03  0.10980601165E+03  0.46136510577E+03  0.00000000000E+00 0.  1.
<mgrwt>
<rscale>  0 0.96157732E+03</rscale>
<asrwt>0</asrwt>
<pdfrwt beam="1">  1        2 0.82711136E-01 0.96157732E+03</pdfrwt>
<pdfrwt beam="2">  1       -2 0.66148155E-01 0.96157732E+03</pdfrwt>
<totfact> 0.11902702E+02</totfact>
</mgrwt>
</event>
<event>
 6    1  0.1072514E-005  0.2760230E+04  0.7818608E-02  0.8315723E-01
          1   -1    0    0  501    0  0.00000000000E+00  0.00000000000E+00  0.14107058371E+04  0.14107058371E+04  0.00000000000E+00 0. -1.
         -1   -1    0    0    0  501 -0.00000000000E+00 -0.00000000000E+00 -0.13501876691E+04  0.13501876691E+04  0.00000000000E+00 0.  1.
         23    2    1    2    0    0  0.33673938707E+03 -0.89908623737E+02  0.13644070272E+04  0.14112257203E+04  0.92057167816E+02 0.  0.
         13    1    3    3    0    0  0.12062106409E+03 -0.70115282584E+02  0.63881855492E+03  0.65387670096E+03  0.00000000000E+00 0. -1.
        -13    1    3    3    0    0  0.21611832297E+03 -0.19793341152E+02  0.72558847230E+03  0.75734901929E+03  0.00000000000E+00 0.  1.
         22    1    1    2    0    0 -0.33673938707E+03  0.89908623737E+02 -0.13038888592E+04  0.13496677860E+04  0.00000000000E+00 0.  1.
<mgrwt>
<rscale>  0 0.27602302E+04</rscale>
<asrwt>0</asrwt>
<pdfrwt beam="1">  1        1 0.21703167E+00 0.27602302E+04</pdfrwt>
<pdfrwt beam="2">  1       -1 0.20772118E+00 0.27602302E+04</pdfrwt>
<totfact> 0.87392698E-01</totfact>
</mgrwt>
</event>
<event>
 6    1  0.1072514E-005  0.3556703E+04  0.7818608E-02  0.8100482E-01
         -1   -1    0    0    0  501 -0.00000000000E+00  0.00000000000E+00  0.66221732256E+03  0.66221732256E+03  0.00000000000E+00 0.  1.
          1   -1    0    0  501    0  0.00000000000E+00 -0.00000000000E+00 -0.47756746986E+04  0.47756746986E+04  0.00000000000E+00 0. -1.
         23    2    1    2    0    0  0.11878328415E+04  0.55852315945E+03 -0.38898672070E+04  0.41063937889E+04  0.92239263796E+02 0.  0.
         11    1    3    3    0    0  0.68664124925E+03  0.36144220872E+03 -0.23858769650E+04  0.25088893096E+04  0.00000000000E+00 0.  1.
        -11    1    3    3    0    0  0.50119159228E+03  0.19708095073E+03 -0.15039902420E+04  0.15975044793E+04  0.00000000000E+00 0. -1.
         22    1    1    2    0    0 -0.11878328415E+04 -0.55852315945E+03 -0.22359016904E+03  0.13314982323E+04  0.00000000000E+00 0.  1.
<mgrwt>
<rscale>  0 0.35567033E+04</rscale>
<asrwt>0</asrwt>
<pdfrwt beam="1">  1        1 0.73471918E+00 0.35567033E+04</pdfrwt>
<pdfrwt beam="2">  1       -1 0.10187959E+00 0.35567033E+04</pdfrwt>
<totfact> 0.11927256E-02</totfact>
</mgrwt>
</event>
<event>
 6    1  0.1072514E-005  0.3355234E+04  0.7818608E-02  0.8148981E-01
          2   -1    0    0  501    0  0.00000000000E+00  0.00000000000E+00  0.18704358741E+04  0.18704358741E+04  0.00000000000E+00 0. -1.
         -2   -1    0    0    0  501 -0.00000000000E+00 -0.00000000000E+00 -0.15046757255E+04  0.15046757255E+04  0.00000000000E+00 0.  1.
         23    2    1    2    0    0 -0.13308225731E+04  0.94734264935E+03  0.56045498623E+03  0.17299815450E+04  0.10089369773E+03 0.  0.
         13    1    3    3    0    0 -0.28674278809E+03  0.19318289584E+03  0.76626542781E+02  0.35413653416E+03  0.00000000000E+00 0. -1.
        -13    1    3    3    0    0 -0.10440797850E+04  0.75415975350E+03  0.48382844345E+03  0.13758450109E+04  0.00000000000E+00 0.  1.
         22    1    1    2    0    0  0.13308225731E+04 -0.94734264935E+03 -0.19469483761E+03  0.16451300545E+04  0.00000000000E+00 0.  1.
<mgrwt>
<rscale>  0 0.33552344E+04</rscale>
<asrwt>0</asrwt>
<pdfrwt beam="1">  1        2 0.28775936E+00 0.33552344E+04</pdfrwt>
<pdfrwt beam="2">  1       -2 0.23148857E+00 0.33552344E+04</pdfrwt>
<totfact> 0.54874390E-01</totfact>
</mgrwt>
</event>
<event>
 6    1  0.1072514E-005  0.1713250E+04  0.7818608E-02  0.8753843E-01
         -1   -1    0    0    0  501 -0.00000000000E+00  0.00000000000E+00  0.15984180274E+04  0.15984180274E+04  0.00000000000E+00 0.  1.
          1   -1    0    0  501    0  0.00000000000E+00 -0.00000000000E+00 -0.45908287236E+03  0.45908287236E+03  0.00000000000E+00 0. -1.
         23    2    1    2    0    0  0.53872163243E+03  0.53068846795E+03  0.10485002133E+04  0.12958564723E+04  0.89666338364E+02 0.  0.
         11    1    3    3    0    0  0.19822109530E+03  0.23395477567E+03  0.36645436260E+03  0.47782343973E+03  0.00000000000E+00 0.  1.
        -11    1    3    3    0    0  0.34050053713E+03  0.29673369228E+03  0.68204585071E+03  0.81803303257E+03  0.00000000000E+00 0. -1.
         22    1    1    2    0    0 -0.53872163243E+03 -0.53068846795E+03  0.90834941760E+02  0.76164442748E+03  0.00000000000E+00 0. -1.
<mgrwt>
<rscale>  0 0.17132499E+04</rscale>
<asrwt>0</asrwt>
<pdfrwt beam="1">  1        1 0.70628135E-01 0.17132499E+04</pdfrwt>
<pdfrwt beam="2">  1       -1 0.24591046E+00 0.17132499E+04</pdfrwt>
<totfact> 0.35128351E+00</totfact>
</mgrwt>
</event>
<event>
 6    1  0.1072514E-005  0.2041541E+04  0.7818608E-02  0.8587441E-01
          2   -1    0    0  501    0  0.00000000000E+00  0.00000000000E+00  0.86967765449E+03  0.86967765449E+03  0.00000000000E+00 0. -1.
         -2   -1    0    0    0  501 -0.00000000000E+00 -0.00000000000E+00 -0.11981135196E+04  0.11981135196E+04  0.00000000000E+00 0.  1.
         23    2    1    2    0    0 -0.47259533777E+03 -0.76916028092E+03 -0.64269392611E+03  0.11119083256E+04  0.91272947342E+02 0.  0.
         11    1    3    3    0    0 -0.22759901234E+03 -0.29483228312E+03 -0.29025371321E+03  0.47220186745E+03  0.00000000000E+00 0. -1.
        -11    1    3    3    0    0 -0.24499632544E+03 -0.47432799780E+03 -0.35244021290E+03  0.63970645818E+03  0.00000000000E+00 0.  1.
         22    1    1    2    0    0  0.47259533777E+03  0.76916028092E+03  0.31425806103E+03  0.95588284844E+03  0.00000000000E+00 0. -1.
<mgrwt>
<rscale>  0 0.20415411E+04</rscale>
<asrwt>0</asrwt>
<pdfrwt beam="1">  1        2 0.13379656E+00 0.20415411E+04</pdfrwt>
<pdfrwt beam="2">  1       -2 0.18432515E+00 0.20415411E+04</pdfrwt>
<totfact> 0.48203732E+00</totfact>
</mgrwt>
</event>
<event>
 6    1  0.1072514E-005  0.8343452E+03  0.7818608E-02  0.9511592E-01
          2   -1    0    0  501    0  0.00000000000E+00  0.00000000000E+00  0.20710358064E+04  0.20710358064E+04  0.00000000000E+00 0. -1.
         -2   -1    0    0    0  501 -0.00000000000E+00 -0.00000000000E+00 -0.84031862351E+02  0.84031862351E+02  0.00000000000E+00 0.  1.
         23    2    1    2    0    0  0.23010744064E+03  0.30696560858E+02  0.18852145516E+04  0.19015863213E+04  0.90027322265E+02 0.  0.
         13    1    3    3    0    0  0.11837763028E+03  0.16468370543E+02  0.13105177739E+04  0.13159564226E+04  0.00000000000E+00 0. -1.
        -13    1    3    3    0    0  0.11172981035E+03  0.14228190315E+02  0.57469677773E+03  0.58562989870E+03  0.00000000000E+00 0.  1.
         22    1    1    2    0    0 -0.23010744064E+03 -0.30696560858E+02  0.10178939245E+03  0.25348134744E+03  0.00000000000E+00 0.  1.
<mgrwt>
<rscale>  0 0.83434524E+03</rscale>
<asrwt>0</asrwt>
<pdfrwt beam="1">  1        2 0.31862086E+00 0.83434524E+03</pdfrwt>
<pdfrwt beam="2">  1       -2 0.12927980E-01 0.83434524E+03</pdfrwt>
<totfact> 0.27939961E+02</totfact>
</mgrwt>
</event>
<event>
 6    1  0.1072514E-005  0.1298751E+04  0.7818608E-02  0.9030556E-01
          1   -1    0    0  501    0  0.00000000000E+00  0.00000000000E+00  0.13512400693E+04  0.13512400693E+04  0.00000000000E+00 0. -1.
         -1   -1    0    0    0  501 -0.00000000000E+00 -0.00000000000E+00 -0.31207526286E+03  0.31207526286E+03  0.00000000000E+00 0.  1.
         23    2    1    2    0    0  0.17766562194E+03  0.53708092279E+03  0.92219450117E+03  0.10856449736E+04  0.90340023305E+02 0.  0.
         13    1    3    3    0    0  0.10363436825E+03  0.20598954945E+03  0.42869190144E+03  0.48677358508E+03  0.00000000000E+00 0.  1.
        -13    1    3    3    0    0  0.74031253693E+02  0.33109137334E+03  0.49350259973E+03  0.59887138850E+03  0.00000000000E+00 0. -1.
         22    1    1    2    0    0 -0.17766562194E+03 -0.53708092279E+03  0.11697030524E+03  0.57767035856E+03  0.00000000000E+00 0.  1.
<mgrwt>
<rscale>  0 0.12987511E+04</rscale>
<asrwt>0</asrwt>
<pdfrwt beam="1">  1        1 0.20788308E+00 0.12987511E+04</pdfrwt>
<pdfrwt beam="2">  1       -1 0.48011580E-01 0.12987511E+04</pdfrwt>
<totfact> 0.35422332E+01</totfact>
</mgrwt>
</event>
<event>
 6    1  0.1072514E-005  0.2055447E+04  0.7818608E-02  0.8581127E-01
          1   -1    0    0  501    0  0.00000000000E+00  0.00000000000E+00  0.19619637808E+04  0.19619637808E+04  0.00000000000E+00 0. -1.
         -1   -1    0    0    0  501 -0.00000000000E+00 -0.00000000000E+00 -0.53834618132E+03  0.53834618132E+03  0.00000000000E+00 0.  1.
         23    2    1    2    0    0 -0.46302376300E+03  0.88589362588E+03  0.43456246542E+03  0.10940992454E+04  0.94921552112E+02 0.  0.
         13    1    3    3    0    0 -0.21917993786E+03  0.45892852104E+03  0.17322907368E+03  0.53727418005E+03  0.00000000000E+00 0.  1.
        -13    1    3    3    0    0 -0.24384382515E+03  0.42696510483E+03  0.26133339174E+03  0.55682506539E+03  0.00000000000E+00 0. -1.
         22    1    1    2    0    0  0.46302376300E+03 -0.88589362588E+03  0.98905513402E+03  0.14062107166E+04  0.00000000000E+00 0. -1.
<mgrwt>
<rscale>  0 0.20554471E+04</rscale>
<asrwt>0</asrwt>
<pdfrwt beam="1">  1        1 0.30184058E+00 0.20554471E+04</pdfrwt>
<pdfrwt beam="2">  1       -1 0.82822490E-01 0.20554471E+04</pdfrwt>
<totfact> 0.42277472E+00</totfact>
</mgrwt>
</event>
<event>
 6    1  0.1072514E-005  0.3636182E+04  0.7818608E-02  0.8082254E-01
          2   -1    0    0  501    0  0.00000000000E+00  0.00000000000E+00  0.30052862495E+04  0.30052862495E+04  0.00000000000E+00 0. -1.
         -2   -1    0    0    0  501 -0.00000000000E+00 -0.00000000000E+00 -0.10998803862E+04  0.10998803862E+04  0.00000000000E+00 0.  1.
         23    2    1    2    0    0 -0.79267054767E+02 -0.20983817658E+03  0.29889211365E+04  0.29986763856E+04  0.89973210519E+02 0.  0.
         11    1    3    3    0    0 -0.12231957110E+02 -0.10277233445E+03  0.89833094430E+03  0.90427333201E+03  0.00000000000E+00 0.  1.
        -11    1    3    3    0    0 -0.67035097657E+02 -0.10706584213E+03  0.20905901922E+04  0.20944030536E+04  0.00000000000E+00 0. -1.
         22    1    1    2    0    0  0.79267054767E+02  0.20983817658E+03 -0.10835152733E+04  0.11064902502E+04  0.00000000000E+00 0.  1.
<mgrwt>
<rscale>  0 0.36361823E+04</rscale>
<asrwt>0</asrwt>
<pdfrwt beam="1">  1        2 0.46235173E+00 0.36361823E+04</pdfrwt>
<pdfrwt beam="2">  1       -2 0.16921237E+00 0.36361823E+04</pdfrwt>
<totfact> 0.30295375E-01</totfact>
</mgrwt>
</event>
<event>
 6    1  0.1072514E-005  0.2102016E+04  0.7818608E-02  0.8560356E-01
         -1   -1    0    0    0  501 -0.00000000000E+00  0.00000000000E+00  0.41476389758E+03  0.41476389758E+03  0.00000000000E+00 0.  1.
          1   -1    0    0  501    0  0.00000000000E+00 -0.00000000000E+00 -0.26632458860E+04  0.26632458860E+04  0.00000000000E+00 0. -1.
         23    2    1    2    0    0 -0.54259707874E+03  0.21432421402E+03 -0.24028846195E+04  0.24745310092E+04  0.95408397895E+02 0.  0.
         13    1    3    3    0    0 -0.25287696886E+03  0.11098426221E+03 -0.94367451613E+03  0.98325269399E+03  0.00000000000E+00 0.  1.
        -13    1    3    3    0    0 -0.28972010988E+03  0.10333995181E+03 -0.14592101034E+04  0.14912783152E+04  0.00000000000E+00 0. -1.
         22    1    1    2    0    0  0.54259707874E+03 -0.21432421402E+03  0.15440263111E+03  0.60347877433E+03  0.00000000000E+00 0.  1.
<mgrwt>
<rscale>  0 0.21020164E+04</rscale>
<asrwt>0</asrwt>
<pdfrwt beam="1">  1        1 0.40973014E+00 0.21020164E+04</pdfrwt>
<pdfrwt beam="2">  1       -1 0.63809830E-01 0.21020164E+04</pdfrwt>
<totfact> 0.23870870E+00</totfact>
</mgrwt>
</event>
<event>
 6    1  0.1072514E-005  0.7968148E+03  0.7818608E-02  0.9564639E-01
         -1   -1    0    0    0  501 -0.00000000000E+00  0.00000000000E+00  0.18032854290E+03  0.18032854290E+03  0.00000000000E+00 0.  1.
          1   -1    0    0  501    0  0.00000000000E+00 -0.00000000000E+00 -0.88021813247E+03  0.88021813247E+03  0.00000000000E+00 0. -1.
         23    2    1    2    0    0 -0.43274602725E+02  0.37196731754E+03 -0.19461305337E+03  0.43162954682E+03  0.90539762469E+02 0.  0.
         13    1    3    3    0    0 -0.22664162001E+00  0.21688853918E+03 -0.15290963750E+03  0.26537152642E+03  0.00000000000E+00 0. -1.
        -13    1    3    3    0    0 -0.43047961105E+02  0.15507877835E+03 -0.41703415874E+02  0.16625802040E+03  0.00000000000E+00 0.  1.
         22    1    1    2    0    0  0.43274602725E+02 -0.37196731754E+03 -0.50527653619E+03  0.62891712855E+03  0.00000000000E+00 0. -1.
<mgrwt>
<rscale>  0 0.79681479E+03</rscale>
<asrwt>0</asrwt>
<pdfrwt beam="1">  1        1 0.13541818E+00 0.79681479E+03</pdfrwt>
<pdfrwt beam="2">  1       -1 0.27742853E-01 0.79681479E+03</pdfrwt>
<totfact> 0.22320003E+02</totfact>
</mgrwt>
</event>
<event>
 6    1  0.1072514E-005  0.1421625E+04  0.7818608E-02  0.8938312E-01
         -1   -1    0    0    0  501 -0.00000000000E+00  0.00000000000E+00  0.76728049181E+03  0.76728049181E+03  0.00000000000E+00 0.  1.
          1   -1    0    0  501    0  0.00000000000E+00 -0.00000000000E+00 -0.65850044721E+03  0.65850044721E+03  0.00000000000E+00 0. -1.
         23    2    1    2    0    0  0.52354061875E+03  0.24075829722E+03 -0.35762143814E+03  0.68443777943E+03  0.92209781098E+02 0.  0.
         13    1    3    3    0    0  0.23822683242E+03  0.79460167186E+02 -0.11257008422E+03  0.27520531556E+03  0.00000000000E+00 0.  1.
        -13    1    3    3    0    0  0.28531378634E+03  0.16129813003E+03 -0.24505135392E+03  0.40923246387E+03  0.00000000000E+00 0. -1.
         22    1    1    2    0    0 -0.52354061875E+03 -0.24075829722E+03  0.46640148275E+03  0.74134315959E+03  0.00000000000E+00 0.  1.
<mgrwt>
<rscale>  0 0.14216252E+04</rscale>
<asrwt>0</asrwt>
<pdfrwt beam="1">  1        1 0.10130776E+00 0.14216252E+04</pdfrwt>
<pdfrwt beam="2">  1       -1 0.11804315E+00 0.14216252E+04</pdfrwt>
<totfact> 0.18747118E+01</totfact>
</mgrwt>
</event>
<event>
 6    1  0.1072514E-005  0.3865825E+04  0.7818608E-02  0.8032175E-01
          1   -1    0    0  501    0  0.00000000000E+00  0.00000000000E+00  0.19652092383E+04  0.19652092383E+04  0.00000000000E+00 0. -1.
         -1   -1    0    0    0  501 -0.00000000000E+00 -0.00000000000E+00 -0.19011463763E+04  0.19011463763E+04  0.00000000000E+00 0.  1.
         23    2    1    2    0    0  0.23998259986E+03  0.58802617703E+03 -0.17926797981E+04  0.19039948580E+04  0.90161675629E+02 0.  0.
         13    1    3    3    0    0  0.18255713158E+03  0.51275944072E+03 -0.14620009649E+04  0.15600308240E+04  0.00000000000E+00 0. -1.
        -13    1    3    3    0    0  0.57425468283E+02  0.75266736311E+02 -0.33067883319E+03  0.34396403405E+03  0.00000000000E+00 0.  1.
         22    1    1    2    0    0 -0.23998259986E+03 -0.58802617703E+03  0.18567426601E+04  0.19623607565E+04  0.00000000000E+00 0. -1.
<mgrwt>
<rscale>  0 0.38658248E+04</rscale>
<asrwt>0</asrwt>
<pdfrwt beam="1">  1        1 0.30233988E+00 0.38658248E+04</pdfrwt>
<pdfrwt beam="2">  1       -1 0.29248406E+00 0.38658248E+04</pdfrwt>
<totfact> 0.91990145E-02</totfact>
</mgrwt>
</event>
<event>
 6    1  0.1072514E-005  0.2490880E+04  0.7818608E-02  0.8406242E-01
         -2   -1    0    0    0  501 -0.00000000000E+00  0.00000000000E+00  0.11596907991E+04  0.11596907991E+04  0.00000000000E+00 0.  1.
          2   -1    0    0  501    0  0.00000000000E+00 -0.00000000000E+00 -0.13375296933E+04  0.13375296933E+04  0.00000000000E+00 0. -1.
         23    2    1    2    0    0 -0.81641933057E+02 -0.65013766218E+03  0.97067620516E+03  0.11749378756E+04  0.94458092648E+02 0.  0.
         13    1    3    3    0    0 -0.44311550124E+02 -0.11490073479E+03  0.14487045726E+03  0.19013979519E+03  0.00000000000E+00 0.  1.
        -13    1    3    3    0    0 -0.37330382932E+02 -0.53523692740E+03  0.82580574790E+03  0.98479808042E+03  0.00000000000E+00 0. -1.
         22    1    1    2    0    0  0.81641933057E+02  0.65013766218E+03 -0.11485150994E+04  0.13222826167E+04  0.00000000000E+00 0. -1.
<mgrwt>
<rscale>  0 0.24908801E+04</rscale>
<asrwt>0</asrwt>
<pdfrwt beam="1">  1        2 0.20577380E+00 0.24908801E+04</pdfrwt>
<pdfrwt beam="2">  1       -2 0.17841397E+00 0.24908801E+04</pdfrwt>
<totfact> 0.26098177E+00</totfact>
</mgrwt>
</event>
<event>
 6    1  0.1072514E-005  0.1425587E+04  0.7818608E-02  0.8935503E-01
         -1   -1    0    0    0  501 -0.00000000000E+00  0.00000000000E+00  0.75152587950E+03  0.75152587950E+03  0.00000000000E+00 0.  1.
          1   -1    0    0  501    0  0.00000000000E+00 -0.00000000000E+00 -0.67605767101E+03  0.67605767101E+03  0.00000000000E+00 0. -1.
         23    2    1    2    0    0 -0.14525866819E+03 -0.22741500110E+03 -0.61966862402E+03  0.68190742824E+03  0.90503445741E+02 0.  0.
         13    1    3    3    0    0 -0.15254770107E+03 -0.18641798928E+03 -0.49558836870E+03  0.55102658649E+03  0.00000000000E+00 0. -1.
        -13    1    3    3    0    0  0.72890328736E+01 -0.40997011819E+02 -0.12408025532E+03  0.13088084175E+03  0.00000000000E+00 0.  1.
         22    1    1    2    0    0  0.14525866819E+03  0.22741500110E+03  0.69513683251E+03  0.74567612227E+03  0.00000000000E+00 0.  1.
<mgrwt>
<rscale>  0 0.14255874E+04</rscale>
<asrwt>0</asrwt>
<pdfrwt beam="1">  1        1 0.10400887E+00 0.14255874E+04</pdfrwt>
<pdfrwt beam="2">  1       -1 0.11561937E+00 0.14255874E+04</pdfrwt>
<totfact> 0.18943132E+01</totfact>
</mgrwt>
</event>
<event>
 6    1  0.1072514E-005  0.1301719E+04  0.7818608E-02  0.9028203E-01
          1   -1    0    0  501    0  0.00000000000E+00  0.00000000000E+00  0.16765754744E+04  0.16765754744E+04  0.00000000000E+00 0. -1.
         -1   -1    0    0    0  501 -0.00000000000E+00 -0.00000000000E+00 -0.25266874119E+03  0.25266874119E+03  0.00000000000E+00 0.  1.
         23    2    1    2    0    0  0.73553092168E+02  0.52471837403E+03  0.12676525223E+04  0.13768360261E+04  0.89415300722E+02 0.  0.
         13    1    3    3    0    0 -0.13781834086E+02  0.18978594977E+03  0.48890869839E+03  0.52463354929E+03  0.00000000000E+00 0.  1.
        -13    1    3    3    0    0  0.87334926254E+02  0.33493242426E+03  0.77874382391E+03  0.85220247679E+03  0.00000000000E+00 0. -1.
         22    1    1    2    0    0 -0.73553092168E+02 -0.52471837403E+03  0.15625421092E+03  0.55240818952E+03  0.00000000000E+00 0.  1.
<mgrwt>
<rscale>  0 0.13017192E+04</rscale>
<asrwt>0</asrwt>
<pdfrwt beam="1">  1        1 0.25793468E+00 0.13017192E+04</pdfrwt>
<pdfrwt beam="2">  1       -1 0.38872115E-01 0.13017192E+04</pdfrwt>
<totfact> 0.31182175E+01</totfact>
</mgrwt>
</event>
<event>
 6    1  0.1072514E-005  0.5634616E+03  0.7818608E-02  0.9984252E-01
         -2   -1    0    0    0  501 -0.00000000000E+00  0.00000000000E+00  0.42047000194E+02  0.42047000194E+02  0.00000000000E+00 0.  1.
          2   -1    0    0  501    0  0.00000000000E+00 -0.00000000000E+00 -0.18877029232E+04  0.18877029232E+04  0.00000000000E+00 0. -1.
         23    2    1    2    0    0 -0.27286750864E+03 -0.29689129891E+02 -0.95050000974E+03  0.99345817893E+03  0.90392273188E+02 0.  0.
         11    1    3    3    0    0 -0.12844501556E+03  0.19984324306E+02 -0.33613748044E+03  0.36039686596E+03  0.00000000000E+00 0.  1.
        -11    1    3    3    0    0 -0.14442249308E+03 -0.49673454196E+02 -0.61436252930E+03  0.63306131296E+03  0.00000000000E+00 0. -1.
         22    1    1    2    0    0  0.27286750864E+03  0.29689129891E+02 -0.89515591326E+03  0.93629174446E+03  0.00000000000E+00 0. -1.
<mgrwt>
<rscale>  0 0.56346161E+03</rscale>
<asrwt>0</asrwt>
<pdfrwt beam="1">  1        2 0.29041588E+00 0.56346161E+03</pdfrwt>
<pdfrwt beam="2">  1       -2 0.64687683E-02 0.56346161E+03</pdfrwt>
<totfact> 0.10969290E+03</totfact>
</mgrwt>
</event>
<event>
 6    1  0.1072514E-005  0.1536879E+04  0.7818608E-02  0.8860292E-01
          2   -1    0    0  501    0  0.00000000000E+00  0.00000000000E+00  0.51518624277E+03  0.51518624277E+03  0.00000000000E+00 0. -1.
         -2   -1    0    0    0  501 -0.00000000000E+00 -0.00000000000E+00 -0.11461863856E+04  0.11461863856E+04  0.00000000000E+00 0.  1.
         23    2    1    2    0    0 -0.55781892054E+03 -0.29160626659E+03 -0.78811490208E+03  0.10126190461E+04  0.89866962125E+02 0.  0.
         11    1    3    3    0    0 -0.30136681182E+03 -0.18406088048E+03 -0.37982432466E+03  0.51862016987E+03  0.00000000000E+00 0.  1.
        -11    1    3    3    0    0 -0.25645210872E+03 -0.10754538611E+03 -0.40829057742E+03  0.49399887627E+03  0.00000000000E+00 0. -1.
         22    1    1    2    0    0  0.55781892054E+03  0.29160626659E+03  0.15711475928E+03  0.64875358220E+03  0.00000000000E+00 0. -1.
<mgrwt>
<rscale>  0 0.15368793E+04</rscale>
<asrwt>0</asrwt>
<pdfrwt beam="1">  1        2 0.79259423E-01 0.15368793E+04</pdfrwt>
<pdfrwt beam="2">  1       -2 0.17633636E+00 0.15368793E+04</pdfrwt>
<totfact> 0.11005399E+01</totfact>
</mgrwt>
</event>
<event>
 6    1  0.1072514E-005  0.7902443E+03  0.7818608E-02  0.9574246E-01
         -1   -1    0    0    0  501 -0.00000000000E+00  0.00000000000E+00  0.41920700531E+02  0.41920700531E+02  0.00000000000E+00 0.  1.
          1   -1    0    0  501    0  0.00000000000E+00 -0.00000000000E+00 -0.37242104070E+04  0.37242104070E+04  0.00000000000E+00 0. -1.
         23    2    1    2    0    0  0.25576292180E+03 -0.14417313124E+03 -0.30883880599E+04  0.31036209342E+04  0.90119536551E+02 0.  0.
         13    1    3    3    0    0  0.25553438698E+02 -0.39774192656E+02 -0.78070428628E+03  0.78213435370E+03  0.00000000000E+00 0. -1.
        -13    1    3    3    0    0  0.23020948310E+03 -0.10439893858E+03 -0.23076837736E+04  0.23214865805E+04  0.00000000000E+00 0.  1.
         22    1    1    2    0    0 -0.25576292180E+03  0.14417313124E+03 -0.59390164656E+03  0.66251017330E+03  0.00000000000E+00 0.  1.
<mgrwt>
<rscale>  0 0.79024429E+03</rscale>
<asrwt>0</asrwt>
<pdfrwt beam="1">  1        1 0.57295555E+00 0.79024429E+03</pdfrwt>
<pdfrwt beam="2">  1       -1 0.64493374E-02 0.79024429E+03</pdfrwt>
<totfact> 0.22281789E+01</totfact>
</mgrwt>
</event>
<event>
 6    1  0.1072514E-005  0.3861397E+04  0.7818608E-02  0.8033106E-01
         -1   -1    0    0    0  501 -0.00000000000E+00  0.00000000000E+00  0.10896296401E+04  0.10896296401E+04  0.00000000000E+00 0.  1.
          1   -1    0    0  501    0  0.00000000000E+00 -0.00000000000E+00 -0.34209761044E+04  0.34209761044E+04  0.00000000000E+00 0. -1.
         23    2    1    2    0    0  0.16861838719E+04 -0.38438920132E+03 -0.21659805386E+04  0.27732753219E+04  0.92807380722E+02 0.  0.
         13    1    3    3    0    0  0.64368281318E+03 -0.16540963567E+03 -0.89890748264E+03  0.11179099131E+04  0.00000000000E+00 0.  1.
        -13    1    3    3    0    0  0.10425010587E+04 -0.21897956565E+03 -0.12670730559E+04  0.16553654088E+04  0.00000000000E+00 0. -1.
         22    1    1    2    0    0 -0.16861838719E+04  0.38438920132E+03 -0.16536592573E+03  0.17373304226E+04  0.00000000000E+00 0.  1.
<mgrwt>
<rscale>  0 0.38613971E+04</rscale>
<asrwt>0</asrwt>
<pdfrwt beam="1">  1        1 0.52630401E+00 0.38613971E+04</pdfrwt>
<pdfrwt beam="2">  1       -1 0.16763533E+00 0.38613971E+04</pdfrwt>
<totfact> 0.58354082E-02</totfact>
</mgrwt>
</event>
<event>
 6    1  0.1072514E-005  0.4697646E+04  0.7818608E-02  0.7876920E-01
         -1   -1    0    0    0  501 -0.00000000000E+00  0.00000000000E+00  0.12076982311E+04  0.12076982311E+04  0.00000000000E+00 0.  1.
          1   -1    0    0  501    0  0.00000000000E+00 -0.00000000000E+00 -0.45681681950E+04  0.45681681950E+04  0.00000000000E+00 0. -1.
         23    2    1    2    0    0 -0.20087829671E+04 -0.50260332322E+03 -0.30417011022E+04  0.36807691261E+04  0.91085977254E+02 0.  0.
         11    1    3    3    0    0 -0.19013527238E+04 -0.46628707371E+03 -0.29061545182E+04  0.35040405105E+04  0.00000000000E+00 0. -1.
        -11    1    3    3    0    0 -0.10743024324E+03 -0.36316249506E+02 -0.13554658397E+03  0.17672861558E+03  0.00000000000E+00 0.  1.
         22    1    1    2    0    0  0.20087829671E+04  0.50260332322E+03 -0.31876886184E+03  0.20950973000E+04  0.00000000000E+00 0.  1.
<mgrwt>
<rscale>  0 0.46976456E+04</rscale>
<asrwt>0</asrwt>
<pdfrwt beam="1">  1        1 0.70279509E+00 0.46976456E+04</pdfrwt>
<pdfrwt beam="2">  1       -1 0.18579973E+00 0.46976456E+04</pdfrwt>
<totfact> 0.37970119E-03</totfact>
</mgrwt>
</event>
<event>
 6    1  0.1072514E-005  0.5139327E+03  0.7818608E-02  0.1010205E+00
          2   -1    0    0  501    0  0.00000000000E+00  0.00000000000E+00  0.32943474667E+03  0.32943474667E+03  0.00000000000E+00 0. -1.
         -2   -1    0    0    0  501 -0.00000000000E+00 -0.00000000000E+00 -0.20043938729E+03  0.20043938729E+03  0.00000000000E+00 0.  1.
         23    2    1    2    0    0 -0.12493812554E+03  0.21259402278E+03  0.98999267928E+02  0.28146817744E+03  0.92831708636E+02 0.  0.
         11    1    3    3    0    0 -0.13040772973E+03  0.14523702577E+03  0.82457876862E+02  0.21189448102E+03  0.00000000000E+00 0.  1.
        -11    1    3    3    0    0  0.54696041954E+01  0.67356997005E+02  0.16541391066E+02  0.69573696423E+02  0.00000000000E+00 0. -1.
         22    1    1    2    0    0  0.12493812554E+03 -0.21259402278E+03  0.29996091451E+02  0.24840595652E+03  0.00000000000E+00 0. -1.
<mgrwt>
<rscale>  0 0.51393268E+03</rscale>
<asrwt>0</asrwt>
<pdfrwt beam="1">  1        2 0.50682269E-01 0.51393268E+03</pdfrwt>
<pdfrwt beam="2">  1       -2 0.30836829E-01 0.51393268E+03</pdfrwt>
<totfact> 0.96507576E+02</totfact>
</mgrwt>
</event>
<event>
 6    1  0.1072514E-005  0.3819382E+04  0.7818608E-02  0.8042008E-01
          2   -1    0    0  501    0  0.00000000000E+00  0.00000000000E+00  0.25587660504E+04  0.25587660504E+04  0.00000000000E+00 0. -1.
         -2   -1    0    0    0  501 -0.00000000000E+00 -0.00000000000E+00 -0.14252653485E+04  0.14252653485E+04  0.00000000000E+00 0.  1.
         23    2    1    2    0    0  0.12004829020E+04  0.83890023233E+03  0.18435879436E+04  0.23564145249E+04  0.94657854696E+02 0.  0.
         11    1    3    3    0    0  0.11301572864E+04  0.78523643899E+03  0.16929982278E+04  0.21817641385E+04  0.00000000000E+00 0.  1.
        -11    1    3    3    0    0  0.70325615679E+02  0.53663793346E+02  0.15058971584E+03  0.17465038636E+03  0.00000000000E+00 0. -1.
         22    1    1    2    0    0 -0.12004829020E+04 -0.83890023233E+03 -0.71008724168E+03  0.16276168741E+04  0.00000000000E+00 0.  1.
<mgrwt>
<rscale>  0 0.38193825E+04</rscale>
<asrwt>0</asrwt>
<pdfrwt beam="1">  1        2 0.39365631E+00 0.38193825E+04</pdfrwt>
<pdfrwt beam="2">  1       -2 0.21927159E+00 0.38193825E+04</pdfrwt>
<totfact> 0.25726791E-01</totfact>
</mgrwt>
</event>
<event>
 6    1  0.1072514E-005  0.3252977E+04  0.7818608E-02  0.8174965E-01
          2   -1    0    0  501    0  0.00000000000E+00  0.00000000000E+00  0.24000304647E+04  0.24000304647E+04  0.00000000000E+00 0. -1.
         -2   -1    0    0    0  501 -0.00000000000E+00 -0.00000000000E+00 -0.11022629975E+04  0.11022629975E+04  0.00000000000E+00 0.  1.
         23    2    1    2    0    0  0.14488429071E+03 -0.15606770755E+04  0.11120640156E+04  0.19239430057E+04  0.90365495594E+02 0.  0.
         13    1    3    3    0    0  0.10104223030E+03 -0.10879558411E+04  0.82540276908E+03  0.13693601337E+04  0.00000000000E+00 0. -1.
        -13    1    3    3    0    0  0.43842060418E+02 -0.47272123440E+03  0.28666124649E+03  0.55458287204E+03  0.00000000000E+00 0.  1.
         22    1    1    2    0    0 -0.14488429071E+03  0.15606770755E+04  0.18570345161E+03  0.15783504565E+04  0.00000000000E+00 0.  1.
<mgrwt>
<rscale>  0 0.32529770E+04</rscale>
<asrwt>0</asrwt>
<pdfrwt beam="1">  1        2 0.36923546E+00 0.32529770E+04</pdfrwt>
<pdfrwt beam="2">  1       -2 0.16957892E+00 0.32529770E+04</pdfrwt>
<totfact> 0.71521266E-01</totfact>
</mgrwt>
</event>
<event>
 6    1  0.1072514E-005  0.7488564E+03  0.7818608E-02  0.9637146E-01
         -1   -1    0    0    0  501 -0.00000000000E+00  0.00000000000E+00  0.96208142851E+03  0.96208142851E+03  0.00000000000E+00 0.  1.
          1   -1    0    0  501    0  0.00000000000E+00 -0.00000000000E+00 -0.14572204281E+03  0.14572204281E+03  0.00000000000E+00 0. -1.
         23    2    1    2    0    0  0.29698023804E+03 -0.79309000658E+02  0.71579378039E+03  0.78438327970E+03  0.91701766914E+02 0.  0.
         13    1    3    3    0    0  0.17606933930E+03 -0.51937498106E+01  0.44736322016E+03  0.48079230238E+03  0.00000000000E+00 0. -1.
        -13    1    3    3    0    0  0.12091089875E+03 -0.74115250848E+02  0.26843056022E+03  0.30359097731E+03  0.00000000000E+00 0.  1.
         22    1    1    2    0    0 -0.29698023804E+03  0.79309000658E+02  0.10056560532E+03  0.32342019162E+03  0.00000000000E+00 0. -1.
<mgrwt>
<rscale>  0 0.74885638E+03</rscale>
<asrwt>0</asrwt>
<pdfrwt beam="1">  1        1 0.22418776E-01 0.74885638E+03</pdfrwt>
<pdfrwt beam="2">  1       -1 0.14801252E+00 0.74885638E+03</pdfrwt>
<totfact> 0.82937046E+01</totfact>
</mgrwt>
</event>
<event>
 6    1  0.1072514E-005  0.1694647E+04  0.7818608E-02  0.8764423E-01
         -1   -1    0    0    0  501 -0.00000000000E+00  0.00000000000E+00  0.18631544971E+03  0.18631544971E+03  0.00000000000E+00 0.  1.
          1   -1    0    0  501    0  0.00000000000E+00 -0.00000000000E+00 -0.38534492898E+04  0.38534492898E+04  0.00000000000E+00 0. -1.
         23    2    1    2    0    0 -0.77669747814E+03 -0.58510568195E+02 -0.10600298447E+04  0.13187954817E+04  0.94211420703E+02 0.  0.
         11    1    3    3    0    0 -0.62007309970E+03 -0.87154622815E+01 -0.84607338109E+03  0.10490027524E+04  0.00000000000E+00 0. -1.
        -11    1    3    3    0    0 -0.15662437844E+03 -0.49795105914E+02 -0.21395646357E+03  0.26979272933E+03  0.00000000000E+00 0.  1.
         22    1    1    2    0    0  0.77669747814E+03  0.58510568195E+02 -0.26071039954E+04  0.27209692578E+04  0.00000000000E+00 0. -1.
<mgrwt>
<rscale>  0 0.16946470E+04</rscale>
<asrwt>0</asrwt>
<pdfrwt beam="1">  1        1 0.59283833E+00 0.16946470E+04</pdfrwt>
<pdfrwt beam="2">  1       -1 0.28663917E-01 0.16946470E+04</pdfrwt>
<totfact> 0.13680474E+00</totfact>
</mgrwt>
</event>
<event>
 6    1  0.1072514E-005  0.1552862E+04  0.7818608E-02  0.8850042E-01
          1   -1    0    0  501    0  0.00000000000E+00  0.00000000000E+00  0.35141989493E+04  0.35141989493E+04  0.00000000000E+00 0. -1.
         -1   -1    0    0    0  501 -0.00000000000E+00 -0.00000000000E+00 -0.17154541342E+03  0.17154541342E+03  0.00000000000E+00 0.  1.
         23    2    1    2    0    0 -0.22203450913E+03  0.64194955219E+03  0.79697353658E+03  0.10509986047E+04  0.89625321095E+02 0.  0.
         11    1    3    3    0    0 -0.20283091823E+03  0.50841955631E+03  0.67569335597E+03  0.86959320255E+03  0.00000000000E+00 0.  1.
        -11    1    3    3    0    0 -0.19203590898E+02  0.13352999588E+03  0.12128018062E+03  0.18140540210E+03  0.00000000000E+00 0. -1.
         22    1    1    2    0    0  0.22203450913E+03 -0.64194955219E+03  0.25456799993E+04  0.26347457581E+04  0.00000000000E+00 0. -1.
<mgrwt>
<rscale>  0 0.15528615E+04</rscale>
<asrwt>0</asrwt>
<pdfrwt beam="1">  1        1 0.54064594E+00 0.15528615E+04</pdfrwt>
<pdfrwt beam="2">  1       -1 0.26391605E-01 0.15528615E+04</pdfrwt>
<totfact> 0.30250678E+00</totfact>
</mgrwt>
</event>
<event>
 6    1  0.1072514E-005  0.2184759E+04  0.7818608E-02  0.8524799E-01
          2   -1    0    0  501    0  0.00000000000E+00  0.00000000000E+00  0.10882479616E+04  0.10882479616E+04  0.00000000000E+00 0. -1.
         -2   -1    0    0    0  501 -0.00000000000E+00 -0.00000000000E+00 -0.10965267253E+04  0.10965267253E+04  0.00000000000E+00 0.  1.
         23    2    1    2    0    0  0.25957786117E+02  0.90844932527E+03 -0.60692492927E+03  0.10965048606E+04  0.89504504371E+02 0.  0.
         11    1    3    3    0    0 -0.24445563133E+02  0.60662327623E+03 -0.41099939373E+03  0.73315065741E+03  0.00000000000E+00 0. -1.
        -11    1    3    3    0    0  0.50403349251E+02  0.30182604905E+03 -0.19592553555E+03  0.36335420319E+03  0.00000000000E+00 0.  1.
         22    1    1    2    0    0 -0.25957786117E+02 -0.90844932527E+03  0.59864616556E+03  0.10882698263E+04  0.00000000000E+00 0. -1.
<mgrwt>
<rscale>  0 0.21847590E+04</rscale>
<asrwt>0</asrwt>
<pdfrwt beam="1">  1        2 0.16742276E+00 0.21847590E+04</pdfrwt>
<pdfrwt beam="2">  1       -2 0.16869642E+00 0.21847590E+04</pdfrwt>
<totfact> 0.44146074E+00</totfact>
</mgrwt>
</event>
<event>
 6    1  0.1072514E-005  0.1171688E+04  0.7818608E-02  0.9138005E-01
         -1   -1    0    0    0  501 -0.00000000000E+00  0.00000000000E+00  0.41241082267E+03  0.41241082267E+03  0.00000000000E+00 0.  1.
          1   -1    0    0  501    0  0.00000000000E+00 -0.00000000000E+00 -0.83221223903E+03  0.83221223903E+03  0.00000000000E+00 0. -1.
         23    2    1    2    0    0 -0.56901370560E+03 -0.19440712306E+02 -0.34355726606E+03  0.67019490352E+03  0.83516915592E+02 0.  0.
         11    1    3    3    0    0 -0.21585922548E+03 -0.36852408013E+02 -0.16431273285E+03  0.27377359145E+03  0.00000000000E+00 0. -1.
        -11    1    3    3    0    0 -0.35315448012E+03  0.17411695707E+02 -0.17924453321E+03  0.39642131207E+03  0.00000000000E+00 0.  1.
         22    1    1    2    0    0  0.56901370560E+03  0.19440712306E+02 -0.76244150307E+02  0.57442815818E+03  0.00000000000E+00 0.  1.
<mgrwt>
<rscale>  0 0.11716882E+04</rscale>
<asrwt>0</asrwt>
<pdfrwt beam="1">  1        1 0.12803265E+00 0.11716882E+04</pdfrwt>
<pdfrwt beam="2">  1       -1 0.63447820E-01 0.11716882E+04</pdfrwt>
<totfact> 0.51819149E+01</totfact>
</mgrwt>
</event>
<event>
 6    1  0.1072514E-005  0.2782949E+04  0.7818608E-02  0.8308582E-01
          2   -1    0    0  501    0  0.00000000000E+00  0.00000000000E+00  0.12997519354E+04  0.12997519354E+04  0.00000000000E+00 0. -1.
         -2   -1    0    0    0  501 -0.00000000000E+00 -0.00000000000E+00 -0.14896700041E+04  0.14896700041E+04  0.00000000000E+00 0.  1.
         23    2    1    2    0    0  0.63404777632E+03  0.11141674678E+04 -0.63358969740E+03  0.14328710768E+04  0.91092751319E+02 0.  0.
         11    1    3    3    0    0  0.59618049628E+03  0.10824939362E+04 -0.60878555284E+03  0.13776226462E+04  0.00000000000E+00 0.  1.
        -11    1    3    3    0    0  0.37867280035E+02  0.31673531580E+02 -0.24804144556E+02  0.55248430631E+02  0.00000000000E+00 0. -1.
         22    1    1    2    0    0 -0.63404777632E+03 -0.11141674678E+04  0.44367162866E+03  0.13565508626E+04  0.00000000000E+00 0.  1.
<mgrwt>
<rscale>  0 0.27829491E+04</rscale>
<asrwt>0</asrwt>
<pdfrwt beam="1">  1        2 0.19996184E+00 0.27829491E+04</pdfrwt>
<pdfrwt beam="2">  1       -2 0.22918000E+00 0.27829491E+04</pdfrwt>
<totfact> 0.12467052E+00</totfact>
</mgrwt>
</event>
<event>
 6    1  0.1072514E-005  0.2219703E+04  0.7818608E-02  0.8510272E-01
         -1   -1    0    0    0  501 -0.00000000000E+00  0.00000000000E+00  0.15110291179E+04  0.15110291179E+04  0.00000000000E+00 0.  1.
          1   -1    0    0  501    0  0.00000000000E+00 -0.00000000000E+00 -0.81518631726E+03  0.81518631726E+03  0.00000000000E+00 0. -1.
         23    2    1    2    0    0 -0.64675427004E+03  0.89912736996E+03  0.34514247580E+03  0.11644444461E+04  0.10043120106E+03 0.  0.
         11    1    3    3    0    0 -0.16463580506E+03  0.23982512900E+03  0.13713734292E+03  0.32160175937E+03  0.00000000000E+00 0.  1.
        -11    1    3    3    0    0 -0.48211846498E+03  0.65930224096E+03  0.20800513288E+03  0.84284268669E+03  0.00000000000E+00 0. -1.
         22    1    1    2    0    0  0.64675427004E+03 -0.89912736996E+03  0.35070032480E+03  0.11617709891E+04  0.00000000000E+00 0. -1.
<mgrwt>
<rscale>  0 0.22197029E+04</rscale>
<asrwt>0</asrwt>
<pdfrwt beam="1">  1        1 0.12541328E+00 0.22197029E+04</pdfrwt>
<pdfrwt beam="2">  1       -1 0.23246602E+00 0.22197029E+04</pdfrwt>
<totfact> 0.17744002E+00</totfact>
</mgrwt>
</event>
<event>
 6    1  0.1072514E-005  0.4119663E+04  0.7818608E-02  0.7980832E-01
          2   -1    0    0  501    0  0.00000000000E+00  0.00000000000E+00  0.22091033304E+04  0.22091033304E+04  0.00000000000E+00 0. -1.
         -2   -1    0    0    0  501 -0.00000000000E+00 -0.00000000000E+00 -0.19206459464E+04  0.19206459464E+04  0.00000000000E+00 0.  1.
         23    2    1    2    0    0  0.16135480450E+04  0.80608160871E+03  0.11393361469E+04  0.21354324709E+04  0.93167208612E+02 0.  0.
         13    1    3    3    0    0  0.56794739288E+03  0.33137294294E+03  0.39847148499E+03  0.76886396244E+03  0.00000000000E+00 0. -1.
        -13    1    3    3    0    0  0.10456006521E+04  0.47470866577E+03  0.74086466187E+03  0.13665685085E+04  0.00000000000E+00 0.  1.
         22    1    1    2    0    0 -0.16135480450E+04 -0.80608160871E+03 -0.85087876287E+03  0.19943168060E+04  0.00000000000E+00 0.  1.
<mgrwt>
<rscale>  0 0.41196628E+04</rscale>
<asrwt>0</asrwt>
<pdfrwt beam="1">  1        2 0.33986205E+00 0.41196628E+04</pdfrwt>
<pdfrwt beam="2">  1       -2 0.29548399E+00 0.41196628E+04</pdfrwt>
<totfact> 0.13505885E-01</totfact>
</mgrwt>
</event>
<event>
 6    1  0.1072514E-005  0.4719837E+04  0.7818608E-02  0.7873241E-01
          2   -1    0    0  501    0  0.00000000000E+00  0.00000000000E+00  0.37037967255E+04  0.37037967255E+04  0.00000000000E+00 0. -1.
         -2   -1    0    0    0  501 -0.00000000000E+00 -0.00000000000E+00 -0.15036501132E+04  0.15036501132E+04  0.00000000000E+00 0.  1.
         23    2    1    2    0    0 -0.18140634971E+04  0.14691213141E+04  0.14762706359E+04  0.27634459720E+04  0.90082421900E+02 0.  0.
         13    1    3    3    0    0 -0.66154025300E+03  0.59076224565E+03  0.54971705442E+03  0.10434674778E+04  0.00000000000E+00 0. -1.
        -13    1    3    3    0    0 -0.11525232441E+04  0.87835906844E+03  0.92655358147E+03  0.17199784942E+04  0.00000000000E+00 0.  1.
         22    1    1    2    0    0  0.18140634971E+04 -0.14691213141E+04  0.72387597644E+03  0.24440008667E+04  0.00000000000E+00 0. -1.
<mgrwt>
<rscale>  0 0.47198366E+04</rscale>
<asrwt>0</asrwt>
<pdfrwt beam="1">  1        2 0.56981488E+00 0.47198366E+04</pdfrwt>
<pdfrwt beam="2">  1       -2 0.23133079E+00 0.47198366E+04</pdfrwt>
<totfact> 0.36106722E-02</totfact>
</mgrwt>
</event>
<event>
 6    1  0.1072514E-005  0.1106143E+04  0.7818608E-02  0.9199225E-01
          1   -1    0    0  501    0  0.00000000000E+00  0.00000000000E+00  0.79984822018E+03  0.79984822018E+03  0.00000000000E+00 0. -1.
         -1   -1    0    0    0  501 -0.00000000000E+00 -0.00000000000E+00 -0.38243244189E+03  0.38243244189E+03  0.00000000000E+00 0.  1.
         23    2    1    2    0    0 -0.40996876142E+03  0.23747921473E+03  0.50751951345E+03  0.70000538190E+03  0.89222841230E+02 0.  0.
         11    1    3    3    0    0 -0.22167577741E+03  0.17887005447E+03  0.29417040174E+03  0.40947633867E+03  0.00000000000E+00 0. -1.
        -11    1    3    3    0    0 -0.18829298400E+03  0.58609160268E+02  0.21334911171E+03  0.29052904323E+03  0.00000000000E+00 0.  1.
         22    1    1    2    0    0  0.40996876142E+03 -0.23747921473E+03 -0.90103735160E+02  0.48227528016E+03  0.00000000000E+00 0.  1.
<mgrwt>
<rscale>  0 0.11061427E+04</rscale>
<asrwt>0</asrwt>
<pdfrwt beam="1">  1        1 0.12305357E+00 0.11061427E+04</pdfrwt>
<pdfrwt beam="2">  1       -1 0.58835760E-01 0.11061427E+04</pdfrwt>
<totfact> 0.64501756E+01</totfact>
</mgrwt>
</event>
<event>
 6    1  0.1072514E-005  0.1767105E+04  0.7818608E-02  0.8723991E-01
         -2   -1    0    0    0  501 -0.00000000000E+00  0.00000000000E+00  0.65632881137E+03  0.65632881137E+03  0.00000000000E+00 0.  1.
          2   -1    0    0  501    0  0.00000000000E+00 -0.00000000000E+00 -0.11894425946E+04  0.11894425946E+04  0.00000000000E+00 0. -1.
         23    2    1    2    0    0  0.82803886447E+03 -0.17774831218E+03 -0.13274298139E+02  0.85205317938E+03  0.92604481213E+02 0.  0.
         13    1    3    3    0    0  0.56772198083E+03 -0.85021543000E+02  0.15176580050E+02  0.57425363636E+03  0.00000000000E+00 0. -1.
        -13    1    3    3    0    0  0.26031688364E+03 -0.92726769180E+02 -0.28450878189E+02  0.27779954302E+03  0.00000000000E+00 0.  1.
         22    1    1    2    0    0 -0.82803886447E+03  0.17774831218E+03 -0.51983948505E+03  0.99371822655E+03  0.00000000000E+00 0. -1.
<mgrwt>
<rscale>  0 0.17671055E+04</rscale>
<asrwt>0</asrwt>
<pdfrwt beam="1">  1        2 0.18299117E+00 0.17671055E+04</pdfrwt>
<pdfrwt beam="2">  1       -2 0.10097366E+00 0.17671055E+04</pdfrwt>
<totfact> 0.14686403E+01</totfact>
</mgrwt>
</event>
<event>
 6    1  0.1072514E-005  0.2577452E+04  0.7818608E-02  0.8375901E-01
         -3   -1    0    0    0  501 -0.00000000000E+00  0.00000000000E+00  0.64468331140E+03  0.64468331140E+03  0.00000000000E+00 0.  1.
          3   -1    0    0  501    0  0.00000000000E+00 -0.00000000000E+00 -0.25761709119E+04  0.25761709119E+04  0.00000000000E+00 0. -1.
         23    2    1    2    0    0  0.11158798245E+04 -0.48509216036E+03 -0.14913017731E+04  0.19269200096E+04  0.92398905703E+02 0.  0.
         11    1    3    3    0    0  0.91833402541E+03 -0.43055138218E+03 -0.12095508030E+04  0.15785198826E+04  0.00000000000E+00 0.  1.
        -11    1    3    3    0    0  0.19754579914E+03 -0.54540778172E+02 -0.28175097019E+03  0.34840012693E+03  0.00000000000E+00 0. -1.
         22    1    1    2    0    0 -0.11158798245E+04  0.48509216036E+03 -0.44018582736E+03  0.12939342137E+04  0.00000000000E+00 0.  1.
<mgrwt>
<rscale>  0 0.25774518E+04</rscale>
<asrwt>0</asrwt>
<pdfrwt beam="1">  1        3 0.39633398E+00 0.25774518E+04</pdfrwt>
<pdfrwt beam="2">  1       -3 0.99182049E-01 0.25774518E+04</pdfrwt>
<totfact> 0.23929553E-02</totfact>
</mgrwt>
</event>
<event>
 6    1  0.1072514E-005  0.8730018E+03  0.7818608E-02  0.9459974E-01
         -1   -1    0    0    0  501 -0.00000000000E+00  0.00000000000E+00  0.12474744465E+03  0.12474744465E+03  0.00000000000E+00 0.  1.
          1   -1    0    0  501    0  0.00000000000E+00 -0.00000000000E+00 -0.15273500850E+04  0.15273500850E+04  0.00000000000E+00 0. -1.
         23    2    1    2    0    0 -0.28278592906E+01 -0.25168790589E+03 -0.13726627921E+04  0.13986193388E+04  0.92618115041E+02 0.  0.
         11    1    3    3    0    0  0.44019852984E+02 -0.13923611602E+03 -0.71241854797E+03  0.72723079620E+03  0.00000000000E+00 0.  1.
        -11    1    3    3    0    0 -0.46847712275E+02 -0.11245178987E+03 -0.66024424413E+03  0.67138854257E+03  0.00000000000E+00 0. -1.
         22    1    1    2    0    0  0.28278592906E+01  0.25168790589E+03 -0.29939848301E+02  0.25347819093E+03  0.00000000000E+00 0.  1.
<mgrwt>
<rscale>  0 0.87300176E+03</rscale>
<asrwt>0</asrwt>
<pdfrwt beam="1">  1        1 0.23497693E+00 0.87300176E+03</pdfrwt>
<pdfrwt beam="2">  1       -1 0.19191915E-01 0.87300176E+03</pdfrwt>
<totfact> 0.13871602E+02</totfact>
</mgrwt>
</event>
<event>
 6    1  0.1072514E-005  0.2082187E+04  0.7818608E-02  0.8569131E-01
         -2   -1    0    0    0  501 -0.00000000000E+00  0.00000000000E+00  0.16862765400E+04  0.16862765400E+04  0.00000000000E+00 0.  1.
          2   -1    0    0  501    0  0.00000000000E+00 -0.00000000000E+00 -0.64276279615E+03  0.64276279615E+03  0.00000000000E+00 0. -1.
         23    2    1    2    0    0 -0.39945974299E+03  0.28903851514E+03 -0.50032678851E+03  0.70837436803E+03  0.91411161705E+02 0.  0.
         11    1    3    3    0    0 -0.14987855819E+03  0.13061705142E+03 -0.14450793463E+03  0.24577823236E+03  0.00000000000E+00 0. -1.
        -11    1    3    3    0    0 -0.24958118480E+03  0.15842146371E+03 -0.35581885387E+03  0.46259613568E+03  0.00000000000E+00 0.  1.
         22    1    1    2    0    0  0.39945974299E+03 -0.28903851514E+03  0.15438405324E+04  0.16206649681E+04  0.00000000000E+00 0.  1.
<mgrwt>
<rscale>  0 0.20821871E+04</rscale>
<asrwt>0</asrwt>
<pdfrwt beam="1">  1        2 0.98886585E-01 0.20821871E+04</pdfrwt>
<pdfrwt beam="2">  1       -2 0.25942716E+00 0.20821871E+04</pdfrwt>
<totfact> 0.23663451E+00</totfact>
</mgrwt>
</event>
<event>
 6    1  0.1072514E-005  0.1867694E+04  0.7818608E-02  0.8671106E-01
         -1   -1    0    0    0  501 -0.00000000000E+00  0.00000000000E+00  0.44741122532E+03  0.44741122532E+03  0.00000000000E+00 0.  1.
          1   -1    0    0  501    0  0.00000000000E+00 -0.00000000000E+00 -0.19491465405E+04  0.19491465405E+04  0.00000000000E+00 0. -1.
         23    2    1    2    0    0  0.24186143811E+03 -0.88407119562E+03 -0.53943195818E+03  0.10676083367E+04  0.93391054115E+02 0.  0.
         11    1    3    3    0    0  0.18480108559E+03 -0.51226650305E+03 -0.33737207451E+03  0.64061558523E+03  0.00000000000E+00 0. -1.
        -11    1    3    3    0    0  0.57060352519E+02 -0.37180469258E+03 -0.20205988367E+03  0.42699275151E+03  0.00000000000E+00 0.  1.
         22    1    1    2    0    0 -0.24186143811E+03  0.88407119562E+03 -0.96230335701E+03  0.13289494291E+04  0.00000000000E+00 0.  1.
<mgrwt>
<rscale>  0 0.18676938E+04</rscale>
<asrwt>0</asrwt>
<pdfrwt beam="1">  1        1 0.29986870E+00 0.18676938E+04</pdfrwt>
<pdfrwt beam="2">  1       -1 0.68832495E-01 0.18676938E+04</pdfrwt>
<totfact> 0.64649396E+00</totfact>
</mgrwt>
</event>
<event>
 6    1  0.1072514E-005  0.1617357E+04  0.7818608E-02  0.8809955E-01
         -2   -1    0    0    0  501 -0.00000000000E+00  0.00000000000E+00  0.37552939346E+03  0.37552939346E+03  0.00000000000E+00 0. -1.
          2   -1    0    0  501    0  0.00000000000E+00 -0.00000000000E+00 -0.17414376391E+04  0.17414376391E+04  0.00000000000E+00 0.  1.
         23    2    1    2    0    0  0.47272328428E+03 -0.34437472861E+02  0.16833779651E+03  0.51117621154E+03  0.91160641001E+02 0.  0.
         11    1    3    3    0    0  0.35455905272E+03 -0.27503505726E+02  0.82798848205E+02  0.36513588424E+03  0.00000000000E+00 0.  1.
        -11    1    3    3    0    0  0.11816423156E+03 -0.69339671345E+01  0.85538948303E+02  0.14604032730E+03  0.00000000000E+00 0. -1.
         22    1    1    2    0    0 -0.47272328428E+03  0.34437472861E+02 -0.15342460421E+04  0.16057908210E+04  0.00000000000E+00 0.  1.
<mgrwt>
<rscale>  0 0.16173571E+04</rscale>
<asrwt>0</asrwt>
<pdfrwt beam="1">  1        2 0.26791349E+00 0.16173571E+04</pdfrwt>
<pdfrwt beam="2">  1       -2 0.57773752E-01 0.16173571E+04</pdfrwt>
<totfact> 0.24978794E+01</totfact>
</mgrwt>
</event>
<event>
 6    1  0.1072514E-005  0.3193873E+04  0.7818608E-02  0.8190437E-01
         -1   -1    0    0    0  501 -0.00000000000E+00  0.00000000000E+00  0.23341717247E+04  0.23341717247E+04  0.00000000000E+00 0.  1.
          1   -1    0    0  501    0  0.00000000000E+00 -0.00000000000E+00 -0.10925526695E+04  0.10925526695E+04  0.00000000000E+00 0. -1.
         23    2    1    2    0    0 -0.15204581067E+04  0.14237724958E+03  0.11174747326E+04  0.18945768986E+04  0.92777754034E+02 0.  0.
         13    1    3    3    0    0 -0.12020559154E+04  0.11539099089E+03  0.83581293564E+03  0.14686172979E+04  0.00000000000E+00 0. -1.
        -13    1    3    3    0    0 -0.31840219129E+03  0.26986258698E+02  0.28166179691E+03  0.42595960069E+03  0.00000000000E+00 0.  1.
         22    1    1    2    0    0  0.15204581067E+04 -0.14237724958E+03  0.12414432263E+03  0.15321474956E+04  0.00000000000E+00 0. -1.
<mgrwt>
<rscale>  0 0.31938726E+04</rscale>
<asrwt>0</asrwt>
<pdfrwt beam="1">  1        1 0.16808503E+00 0.31938726E+04</pdfrwt>
<pdfrwt beam="2">  1       -1 0.35910334E+00 0.31938726E+04</pdfrwt>
<totfact> 0.14524871E-01</totfact>
</mgrwt>
</event>
<event>
 6    1  0.1072514E-005  0.4521780E+03  0.7818608E-02  0.1027075E+00
          1   -1    0    0  501    0  0.00000000000E+00  0.00000000000E+00  0.18638558604E+03  0.18638558604E+03  0.00000000000E+00 0. -1.
         -1   -1    0    0    0  501 -0.00000000000E+00 -0.00000000000E+00 -0.27424998247E+03  0.27424998247E+03  0.00000000000E+00 0.  1.
         23    2    1    2    0    0  0.10157186898E+03 -0.49736635922E+02  0.14379628127E+03  0.20284253697E+03  0.87619328765E+02 0.  0.
         11    1    3    3    0    0  0.63999164741E+02 -0.28652901648E+02  0.14354676620E+03  0.15975780402E+03  0.00000000000E+00 0.  1.
        -11    1    3    3    0    0  0.37572704243E+02 -0.21083734273E+02  0.24951507582E+00  0.43084732943E+02  0.00000000000E+00 0. -1.
         22    1    1    2    0    0 -0.10157186898E+03  0.49736635922E+02 -0.23166067770E+03  0.25779303155E+03  0.00000000000E+00 0.  1.
<mgrwt>
<rscale>  0 0.45217803E+03</rscale>
<asrwt>0</asrwt>
<pdfrwt beam="1">  1        1 0.28674706E-01 0.45217803E+03</pdfrwt>
<pdfrwt beam="2">  1       -1 0.42192305E-01 0.45217803E+03</pdfrwt>
<totfact> 0.90345944E+02</totfact>
</mgrwt>
</event>
<event>
 6    1  0.1072514E-005  0.2708509E+04  0.7818608E-02  0.8332249E-01
         -1   -1    0    0    0  501 -0.00000000000E+00  0.00000000000E+00  0.69833430764E+03  0.69833430764E+03  0.00000000000E+00 0.  1.
          1   -1    0    0  501    0  0.00000000000E+00 -0.00000000000E+00 -0.26262562312E+04  0.26262562312E+04  0.00000000000E+00 0. -1.
         23    2    1    2    0    0  0.92787258866E+03 -0.81962629891E+03 -0.29617718594E+03  0.12763411157E+04  0.92687148272E+02 0.  0.
         11    1    3    3    0    0  0.74581045332E+03 -0.63608447277E+03 -0.26856029245E+03  0.10163470468E+04  0.00000000000E+00 0.  1.
        -11    1    3    3    0    0  0.18206213534E+03 -0.18354182614E+03 -0.27616893494E+02  0.25999406892E+03  0.00000000000E+00 0. -1.
         22    1    1    2    0    0 -0.92787258866E+03  0.81962629891E+03 -0.16317447376E+04  0.20482494231E+04  0.00000000000E+00 0. -1.
<mgrwt>
<rscale>  0 0.27085087E+04</rscale>
<asrwt>0</asrwt>
<pdfrwt beam="1">  1        1 0.40403941E+00 0.27085087E+04</pdfrwt>
<pdfrwt beam="2">  1       -1 0.10743605E+00 0.27085087E+04</pdfrwt>
<totfact> 0.77822007E-01</totfact>
</mgrwt>
</event>
<event>
 6    1  0.1072514E-005  0.2397397E+04  0.7818608E-02  0.8440479E-01
          1   -1    0    0  501    0  0.00000000000E+00  0.00000000000E+00  0.92276166870E+03  0.92276166870E+03  0.00000000000E+00 0. -1.
         -1   -1    0    0    0  501 -0.00000000000E+00 -0.00000000000E+00 -0.15571493272E+04  0.15571493272E+04  0.00000000000E+00 0.  1.
         23    2    1    2    0    0  0.51060534956E+03 -0.71286861614E+03 -0.11604018896E+04  0.14573698191E+04  0.92167007348E+02 0.  0.
         11    1    3    3    0    0  0.83503102238E+02 -0.14755233939E+03 -0.27933191787E+03  0.32675798580E+03  0.00000000000E+00 0. -1.
        -11    1    3    3    0    0  0.42710224733E+03 -0.56531627675E+03 -0.88106997178E+03  0.11306118333E+04  0.00000000000E+00 0.  1.
         22    1    1    2    0    0 -0.51060534956E+03  0.71286861614E+03  0.52601423114E+03  0.10225411768E+04  0.00000000000E+00 0. -1.
<mgrwt>
<rscale>  0 0.23973967E+04</rscale>
<asrwt>0</asrwt>
<pdfrwt beam="1">  1        1 0.14196333E+00 0.23973967E+04</pdfrwt>
<pdfrwt beam="2">  1       -1 0.23956143E+00 0.23973967E+04</pdfrwt>
<totfact> 0.12752919E+00</totfact>
</mgrwt>
</event>
<event>
 6    1  0.1072514E-005  0.1624039E+04  0.7818608E-02  0.8805915E-01
          2   -1    0    0  501    0  0.00000000000E+00  0.00000000000E+00  0.18185407012E+04  0.18185407012E+04  0.00000000000E+00 0. -1.
         -2   -1    0    0    0  501 -0.00000000000E+00 -0.00000000000E+00 -0.36258488775E+03  0.36258488775E+03  0.00000000000E+00 0.  1.
         23    2    1    2    0    0 -0.44961159848E+02  0.37242100372E+03  0.16935983519E+04  0.17370615327E+04  0.91588650165E+02 0.  0.
         13    1    3    3    0    0 -0.38124932027E+02  0.12543554244E+03  0.76507736150E+03  0.77622867432E+03  0.00000000000E+00 0.  1.
        -13    1    3    3    0    0 -0.68362278215E+01  0.24698546128E+03  0.92852099044E+03  0.96083285840E+03  0.00000000000E+00 0. -1.
         22    1    1    2    0    0  0.44961159848E+02 -0.37242100372E+03 -0.23764253852E+03  0.44406405621E+03  0.00000000000E+00 0.  1.
<mgrwt>
<rscale>  0 0.16240386E+04</rscale>
<asrwt>0</asrwt>
<pdfrwt beam="1">  1        2 0.27977549E+00 0.16240386E+04</pdfrwt>
<pdfrwt beam="2">  1       -2 0.55782292E-01 0.16240386E+04</pdfrwt>
<totfact> 0.24347502E+01</totfact>
</mgrwt>
</event>
<event>
 6    1  0.1072514E-005  0.2344276E+04  0.7818608E-02  0.8460665E-01
          2   -1    0    0  501    0  0.00000000000E+00  0.00000000000E+00  0.30843769454E+04  0.30843769454E+04  0.00000000000E+00 0.  1.
         -2   -1    0    0    0  501 -0.00000000000E+00 -0.00000000000E+00 -0.44544084533E+03  0.44544084533E+03  0.00000000000E+00 0. -1.
         23    2    1    2    0    0 -0.74582748201E+03 -0.90197239741E+03  0.13132554517E+04  0.17614168124E+04  0.90202367419E+02 0.  0.
         13    1    3    3    0    0 -0.65240649657E+03 -0.74306766848E+03  0.10842358352E+04  0.14674301152E+04  0.00000000000E+00 0. -1.
        -13    1    3    3    0    0 -0.93420985433E+02 -0.15890472893E+03  0.22901961657E+03  0.29398669727E+03  0.00000000000E+00 0.  1.
         22    1    1    2    0    0  0.74582748201E+03  0.90197239741E+03  0.13256806484E+04  0.17684009783E+04  0.00000000000E+00 0. -1.
<mgrwt>
<rscale>  0 0.23442760E+04</rscale>
<asrwt>0</asrwt>
<pdfrwt beam="1">  1        2 0.47451952E+00 0.23442760E+04</pdfrwt>
<pdfrwt beam="2">  1       -2 0.68529363E-01 0.23442760E+04</pdfrwt>
<totfact> 0.27106758E+00</totfact>
</mgrwt>
</event>
<event>
 6    1  0.1072514E-005  0.3252880E+04  0.7818608E-02  0.8174990E-01
         -1   -1    0    0    0  501 -0.00000000000E+00  0.00000000000E+00  0.20965838270E+04  0.20965838270E+04  0.00000000000E+00 0.  1.
          1   -1    0    0  501    0  0.00000000000E+00 -0.00000000000E+00 -0.12617227457E+04  0.12617227457E+04  0.00000000000E+00 0. -1.
         23    2    1    2    0    0 -0.41798912898E+02 -0.14692514919E+04  0.11335988868E+04  0.18584094522E+04  0.90510553507E+02 0.  0.
         11    1    3    3    0    0  0.59878234535E+01 -0.54075187504E+02  0.63064609709E+02  0.83289404674E+02  0.00000000000E+00 0.  1.
        -11    1    3    3    0    0 -0.47786736352E+02 -0.14151763044E+04  0.10705342771E+04  0.17751200475E+04  0.00000000000E+00 0. -1.
         22    1    1    2    0    0  0.41798912898E+02  0.14692514919E+04 -0.29873780553E+03  0.14998971205E+04  0.00000000000E+00 0. -1.
<mgrwt>
<rscale>  0 0.32528803E+04</rscale>
<asrwt>0</asrwt>
<pdfrwt beam="1">  1        1 0.19411119E+00 0.32528803E+04</pdfrwt>
<pdfrwt beam="2">  1       -1 0.32255136E+00 0.32528803E+04</pdfrwt>
<totfact> 0.18901114E-01</totfact>
</mgrwt>
</event>
<event>
 6    1  0.1072514E-005  0.4700541E+04  0.7818608E-02  0.7876439E-01
         -2   -1    0    0    0  501 -0.00000000000E+00  0.00000000000E+00  0.21364015782E+04  0.21364015782E+04  0.00000000000E+00 0.  1.
          2   -1    0    0  501    0  0.00000000000E+00 -0.00000000000E+00 -0.25855492261E+04  0.25855492261E+04  0.00000000000E+00 0. -1.
         23    2    1    2    0    0 -0.12357070822E+04 -0.85437318529E+03 -0.20389411734E+04  0.25346307575E+04  0.10072951737E+03 0.  0.
         11    1    3    3    0    0 -0.83437391371E+03 -0.51941812432E+03 -0.13175048946E+04  0.16437135283E+04  0.00000000000E+00 0. -1.
        -11    1    3    3    0    0 -0.40133316848E+03 -0.33495506097E+03 -0.72143627882E+03  0.89091722925E+03  0.00000000000E+00 0.  1.
         22    1    1    2    0    0  0.12357070822E+04  0.85437318529E+03  0.15897935255E+04  0.21873200467E+04  0.00000000000E+00 0.  1.
<mgrwt>
<rscale>  0 0.47005410E+04</rscale>
<asrwt>0</asrwt>
<pdfrwt beam="1">  1        2 0.39777680E+00 0.47005410E+04</pdfrwt>
<pdfrwt beam="2">  1       -2 0.32867717E+00 0.47005410E+04</pdfrwt>
<totfact> 0.48944531E-02</totfact>
</mgrwt>
</event>
<event>
 6    1  0.1072514E-005  0.2371333E+04  0.7818608E-02  0.8450315E-01
         -2   -1    0    0    0  501 -0.00000000000E+00  0.00000000000E+00  0.49833526792E+03  0.49833526792E+03  0.00000000000E+00 0.  1.
          2   -1    0    0  501    0  0.00000000000E+00 -0.00000000000E+00 -0.28210016037E+04  0.28210016037E+04  0.00000000000E+00 0. -1.
         23    2    1    2    0    0 -0.49983858128E+02  0.11636708088E+04 -0.86564777369E+03  0.14539867094E+04  0.90017475084E+02 0.  0.
         13    1    3    3    0    0 -0.21537237344E+02  0.52631300919E+03 -0.33598405177E+03  0.62478357795E+03  0.00000000000E+00 0. -1.
        -13    1    3    3    0    0 -0.28446620783E+02  0.63735779960E+03 -0.52966372192E+03  0.82920313148E+03  0.00000000000E+00 0.  1.
         22    1    1    2    0    0  0.49983858128E+02 -0.11636708088E+04 -0.14570185621E+04  0.18653501622E+04  0.00000000000E+00 0. -1.
<mgrwt>
<rscale>  0 0.23713326E+04</rscale>
<asrwt>0</asrwt>
<pdfrwt beam="1">  1        2 0.43400024E+00 0.23713326E+04</pdfrwt>
<pdfrwt beam="2">  1       -2 0.76666965E-01 0.23713326E+04</pdfrwt>
<totfact> 0.30784179E+00</totfact>
</mgrwt>
</event>
<event>
 6    1  0.1072514E-005  0.1159096E+04  0.7818608E-02  0.9149433E-01
         -1   -1    0    0    0  501 -0.00000000000E+00  0.00000000000E+00  0.15444998886E+03  0.15444998886E+03  0.00000000000E+00 0.  1.
          1   -1    0    0  501    0  0.00000000000E+00 -0.00000000000E+00 -0.21746583370E+04  0.21746583370E+04  0.00000000000E+00 0. -1.
         23    2    1    2    0    0 -0.31432142852E+03 -0.34693641098E+03 -0.34322074704E+03  0.58800228430E+03  0.93719642867E+02 0.  0.
         11    1    3    3    0    0 -0.26249448125E+03 -0.23248501600E+03 -0.23428864599E+03  0.42171531274E+03  0.00000000000E+00 0.  1.
        -11    1    3    3    0    0 -0.51826947264E+02 -0.11445139498E+03 -0.10893210104E+03  0.16628697157E+03  0.00000000000E+00 0. -1.
         22    1    1    2    0    0  0.31432142852E+03  0.34693641098E+03 -0.16769876011E+04  0.17411060416E+04  0.00000000000E+00 0. -1.
<mgrwt>
<rscale>  0 0.11590961E+04</rscale>
<asrwt>0</asrwt>
<pdfrwt beam="1">  1        1 0.33456280E+00 0.11590961E+04</pdfrwt>
<pdfrwt beam="2">  1       -1 0.23761538E-01 0.11590961E+04</pdfrwt>
<totfact> 0.34512254E+01</totfact>
</mgrwt>
</event>
<event>
 6    1  0.1072514E-005  0.1025964E+04  0.7818608E-02  0.9280517E-01
         -4   -1    0    0    0  501 -0.00000000000E+00  0.00000000000E+00  0.38820960394E+03  0.38820960394E+03  0.00000000000E+00 0.  1.
          4   -1    0    0  501    0  0.00000000000E+00 -0.00000000000E+00 -0.67785744258E+03  0.67785744258E+03  0.00000000000E+00 0. -1.
         23    2    1    2    0    0 -0.13998664578E+03  0.79076101144E+02  0.35555480120E+03  0.40113416477E+03  0.92952195889E+02 0.  0.
         11    1    3    3    0    0 -0.66899427891E+02  0.87097209405E+02  0.24335781277E+03  0.26699153989E+03  0.00000000000E+00 0. -1.
        -11    1    3    3    0    0 -0.73087217886E+02 -0.80211082604E+01  0.11219698844E+03  0.13414262488E+03  0.00000000000E+00 0.  1.
         22    1    1    2    0    0  0.13998664578E+03 -0.79076101144E+02 -0.64520263984E+03  0.66493288175E+03  0.00000000000E+00 0. -1.
<mgrwt>
<rscale>  0 0.10259645E+04</rscale>
<asrwt>0</asrwt>
<pdfrwt beam="1">  1        4 0.10428576E+00 0.10259645E+04</pdfrwt>
<pdfrwt beam="2">  1       -4 0.59724555E-01 0.10259645E+04</pdfrwt>
<totfact> 0.39181915E+00</totfact>
</mgrwt>
</event>
<event>
 6    1  0.1072514E-005  0.3456058E+04  0.7818608E-02  0.8124283E-01
         -2   -1    0    0    0  501 -0.00000000000E+00  0.00000000000E+00  0.21844427314E+04  0.21844427314E+04  0.00000000000E+00 0.  1.
          2   -1    0    0  501    0  0.00000000000E+00 -0.00000000000E+00 -0.13669779125E+04  0.13669779125E+04  0.00000000000E+00 0. -1.
         23    2    1    2    0    0  0.33698700444E+03 -0.13911331674E+04 -0.58364797320E+03  0.15484406672E+04  0.90619051699E+02 0.  0.
         11    1    3    3    0    0  0.16337017050E+03 -0.80402943006E+03 -0.36960054314E+03  0.89986537798E+03  0.00000000000E+00 0.  1.
        -11    1    3    3    0    0  0.17361683393E+03 -0.58710373737E+03 -0.21404743006E+03  0.64857528921E+03  0.00000000000E+00 0. -1.
         22    1    1    2    0    0 -0.33698700444E+03  0.13911331674E+04  0.14011127922E+04  0.20029799767E+04  0.00000000000E+00 0.  1.
<mgrwt>
<rscale>  0 0.34560584E+04</rscale>
<asrwt>0</asrwt>
<pdfrwt beam="1">  1        2 0.21030429E+00 0.34560584E+04</pdfrwt>
<pdfrwt beam="2">  1       -2 0.33606811E+00 0.34560584E+04</pdfrwt>
<totfact> 0.23713264E-01</totfact>
</mgrwt>
</event>
<event>
 6    1  0.1291398E-005  0.3957474E+04  0.7818608E-02  0.8013181E-01
          2   -1    0    0  501    0  0.00000000000E+00  0.00000000000E+00  0.20546304572E+04  0.20546304572E+04  0.00000000000E+00 0. -1.
         -2   -1    0    0    0  501 -0.00000000000E+00 -0.00000000000E+00 -0.19056466337E+04  0.19056466337E+04  0.00000000000E+00 0.  1.
         23    2    1    2    0    0  0.17330856922E+04  0.27741810454E+03  0.98647674309E+03  0.20155557197E+04  0.93710583162E+02 0.  0.
         13    1    3    3    0    0  0.93928334630E+03  0.15510052405E+03  0.48167834612E+03  0.10669223994E+04  0.00000000000E+00 0.  1.
        -13    1    3    3    0    0  0.79380234587E+03  0.12231758049E+03  0.50479839698E+03  0.94863332031E+03  0.00000000000E+00 0. -1.
         22    1    1    2    0    0 -0.17330856922E+04 -0.27741810454E+03 -0.83749291955E+03  0.19447213712E+04  0.00000000000E+00 0.  1.
<mgrwt>
<rscale>  0 0.39574737E+04</rscale>
<asrwt>0</asrwt>
<pdfrwt beam="1">  1        2 0.31609699E+00 0.39574737E+04</pdfrwt>
<pdfrwt beam="2">  1       -2 0.29317641E+00 0.39574737E+04</pdfrwt>
<totfact> 0.17253574E-01</totfact>
</mgrwt>
</event>
<event>
 6    1  0.1072514E-005  0.1848697E+04  0.7818608E-02  0.8680823E-01
         -2   -1    0    0    0  501 -0.00000000000E+00  0.00000000000E+00  0.52502977375E+03  0.52502977375E+03  0.00000000000E+00 0.  1.
          2   -1    0    0  501    0  0.00000000000E+00 -0.00000000000E+00 -0.16273744764E+04  0.16273744764E+04  0.00000000000E+00 0. -1.
         23    2    1    2    0    0 -0.69460643615E+02 -0.73803289387E+02 -0.16195983673E+04  0.16253150166E+04  0.90985303508E+02 0.  0.
         13    1    3    3    0    0 -0.28429234979E+02  0.65403681742E+01 -0.84129571421E+03  0.84180132844E+03  0.00000000000E+00 0.  1.
        -13    1    3    3    0    0 -0.41031408636E+02 -0.80343657561E+02 -0.77830265308E+03  0.78351368820E+03  0.00000000000E+00 0. -1.
         22    1    1    2    0    0  0.69460643615E+02  0.73803289387E+02  0.51725366462E+03  0.52708923352E+03  0.00000000000E+00 0.  1.
<mgrwt>
<rscale>  0 0.18486969E+04</rscale>
<asrwt>0</asrwt>
<pdfrwt beam="1">  1        2 0.25036531E+00 0.18486969E+04</pdfrwt>
<pdfrwt beam="2">  1       -2 0.80773810E-01 0.18486969E+04</pdfrwt>
<totfact> 0.13693356E+01</totfact>
</mgrwt>
</event>
<event>
 6    1  0.1072514E-005  0.1620809E+04  0.7818608E-02  0.8807865E-01
          1   -1    0    0  501    0  0.00000000000E+00  0.00000000000E+00  0.75533785869E+03  0.75533785869E+03  0.00000000000E+00 0. -1.
         -1   -1    0    0    0  501 -0.00000000000E+00 -0.00000000000E+00 -0.86948565042E+03  0.86948565042E+03  0.00000000000E+00 0.  1.
         23    2    1    2    0    0 -0.13527292178E+03  0.79094843251E+03  0.36828019831E+02  0.80831148719E+03  0.90072032352E+02 0.  0.
         13    1    3    3    0    0 -0.60652134438E+02  0.36783517061E+03 -0.27789950337E+02  0.37383642879E+03  0.00000000000E+00 0.  1.
        -13    1    3    3    0    0 -0.74620787340E+02  0.42311326191E+03  0.64617970168E+02  0.43447505840E+03  0.00000000000E+00 0. -1.
         22    1    1    2    0    0  0.13527292178E+03 -0.79094843251E+03 -0.15097581156E+03  0.81651202192E+03  0.00000000000E+00 0. -1.
<mgrwt>
<rscale>  0 0.16208090E+04</rscale>
<asrwt>0</asrwt>
<pdfrwt beam="1">  1        1 0.11620582E+00 0.16208090E+04</pdfrwt>
<pdfrwt beam="2">  1       -1 0.13376702E+00 0.16208090E+04</pdfrwt>
<totfact> 0.10944223E+01</totfact>
</mgrwt>
</event>
<event>
 6    1  0.1072514E-005  0.1272343E+04  0.7818608E-02  0.9051790E-01
          2   -1    0    0  501    0  0.00000000000E+00  0.00000000000E+00  0.13958338915E+04  0.13958338915E+04  0.00000000000E+00 0. -1.
         -2   -1    0    0    0  501 -0.00000000000E+00 -0.00000000000E+00 -0.28994438994E+03  0.28994438994E+03  0.00000000000E+00 0.  1.
         23    2    1    2    0    0 -0.25913210793E+03 -0.28168788299E+03 -0.11220088029E+03  0.40896909792E+03  0.90383475983E+02 0.  0.
         11    1    3    3    0    0 -0.13321150022E+03 -0.18301562050E+03 -0.27710374229E+02  0.22805237552E+03  0.00000000000E+00 0. -1.
        -11    1    3    3    0    0 -0.12592060771E+03 -0.98672262488E+02 -0.84490506060E+02  0.18091672240E+03  0.00000000000E+00 0.  1.
         22    1    1    2    0    0  0.25913210793E+03  0.28168788299E+03  0.12180903818E+04  0.12768091835E+04  0.00000000000E+00 0. -1.
<mgrwt>
<rscale>  0 0.12723430E+04</rscale>
<asrwt>0</asrwt>
<pdfrwt beam="1">  1        2 0.21474367E+00 0.12723430E+04</pdfrwt>
<pdfrwt beam="2">  1       -2 0.44606830E-01 0.12723430E+04</pdfrwt>
<totfact> 0.68074234E+01</totfact>
</mgrwt>
</event>
<event>
 6    1  0.1072514E-005  0.1728808E+04  0.7818608E-02  0.8745103E-01
         -2   -1    0    0    0  501 -0.00000000000E+00  0.00000000000E+00  0.12539690407E+04  0.12539690407E+04  0.00000000000E+00 0.  1.
          2   -1    0    0  501    0  0.00000000000E+00 -0.00000000000E+00 -0.59586340284E+03  0.59586340284E+03  0.00000000000E+00 0. -1.
         23    2    1    2    0    0  0.43537649081E+03  0.64349254869E+03  0.72945186110E+03  0.10696237326E+04  0.91430644426E+02 0.  0.
         11    1    3    3    0    0  0.70917394876E+02  0.10567655064E+03  0.76315231398E+02  0.14839415350E+03  0.00000000000E+00 0.  1.
        -11    1    3    3    0    0  0.36445909594E+03  0.53781599805E+03  0.65313662971E+03  0.92122957911E+03  0.00000000000E+00 0. -1.
         22    1    1    2    0    0 -0.43537649081E+03 -0.64349254869E+03 -0.71346223274E+02  0.78020871089E+03  0.00000000000E+00 0. -1.
<mgrwt>
<rscale>  0 0.17288080E+04</rscale>
<asrwt>0</asrwt>
<pdfrwt beam="1">  1        2 0.91671293E-01 0.17288080E+04</pdfrwt>
<pdfrwt beam="2">  1       -2 0.19291831E+00 0.17288080E+04</pdfrwt>
<totfact> 0.70296790E+00</totfact>
</mgrwt>
</event>
<event>
 6    1  0.1072514E-005  0.9452540E+03  0.7818608E-02  0.9370715E-01
         -1   -1    0    0    0  501 -0.00000000000E+00  0.00000000000E+00  0.19553004358E+03  0.19553004358E+03  0.00000000000E+00 0.  1.
          1   -1    0    0  501    0  0.00000000000E+00 -0.00000000000E+00 -0.11424141334E+04  0.11424141334E+04  0.00000000000E+00 0. -1.
         23    2    1    2    0    0  0.24138517042E+03 -0.24503050820E+03 -0.92732353539E+03  0.99343094687E+03  0.93109379103E+02 0.  0.
         13    1    3    3    0    0  0.14582119925E+02 -0.25541665796E+02 -0.17702082432E+03  0.17944744957E+03  0.00000000000E+00 0.  1.
        -13    1    3    3    0    0  0.22680305049E+03 -0.21948884241E+03 -0.75030271107E+03  0.81398349731E+03  0.00000000000E+00 0. -1.
         22    1    1    2    0    0 -0.24138517042E+03  0.24503050820E+03 -0.19560554457E+02  0.34451323013E+03  0.00000000000E+00 0.  1.
<mgrwt>
<rscale>  0 0.94525401E+03</rscale>
<asrwt>0</asrwt>
<pdfrwt beam="1">  1        1 0.17575602E+00 0.94525401E+03</pdfrwt>
<pdfrwt beam="2">  1       -1 0.30081545E-01 0.94525401E+03</pdfrwt>
<totfact> 0.12018674E+02</totfact>
</mgrwt>
</event>
<event>
 6    1  0.1072514E-005  0.1656292E+04  0.7818608E-02  0.8786693E-01
         -1   -1    0    0    0  501 -0.00000000000E+00  0.00000000000E+00  0.38609720356E+03  0.38609720356E+03  0.00000000000E+00 0.  1.
          1   -1    0    0  501    0  0.00000000000E+00 -0.00000000000E+00 -0.17763045230E+04  0.17763045230E+04  0.00000000000E+00 0. -1.
         23    2    1    2    0    0 -0.52481171324E+03  0.63638242390E+03 -0.64939472280E+03  0.10537028373E+04  0.90367247662E+02 0.  0.
         11    1    3    3    0    0 -0.18059114967E+03  0.23130444539E+03 -0.28610836266E+03  0.40984497677E+03  0.00000000000E+00 0. -1.
        -11    1    3    3    0    0 -0.34422056356E+03  0.40507797851E+03 -0.36328636013E+03  0.64385786049E+03  0.00000000000E+00 0.  1.
         22    1    1    2    0    0  0.52481171324E+03 -0.63638242390E+03 -0.74081259663E+03  0.11086988893E+04  0.00000000000E+00 0.  1.
<mgrwt>
<rscale>  0 0.16562925E+04</rscale>
<asrwt>0</asrwt>
<pdfrwt beam="1">  1        1 0.27327762E+00 0.16562925E+04</pdfrwt>
<pdfrwt beam="2">  1       -1 0.59399570E-01 0.16562925E+04</pdfrwt>
<totfact> 0.11603040E+01</totfact>
</mgrwt>
</event>
<event>
 6    1  0.1096754E-005  0.5091041E+04  0.7818608E-02  0.7814615E-01
         -1   -1    0    0    0  501 -0.00000000000E+00  0.00000000000E+00  0.19474230822E+04  0.19474230822E+04  0.00000000000E+00 0.  1.
          1   -1    0    0  501    0  0.00000000000E+00 -0.00000000000E+00 -0.33273074880E+04  0.33273074880E+04  0.00000000000E+00 0. -1.
         23    2    1    2    0    0 -0.85310353238E+03 -0.13408104203E+03  0.17898753201E+04  0.19894390941E+04  0.91928694824E+02 0.  0.
         13    1    3    3    0    0 -0.35725930882E+03 -0.31475455068E+02  0.83078271203E+03  0.90488940352E+03  0.00000000000E+00 0. -1.
        -13    1    3    3    0    0 -0.49584422356E+03 -0.10260558696E+03  0.95909260804E+03  0.10845496906E+04  0.00000000000E+00 0.  1.
         22    1    1    2    0    0  0.85310353238E+03  0.13408104203E+03 -0.31697597259E+04  0.32852914761E+04  0.00000000000E+00 0. -1.
<mgrwt>
<rscale>  0 0.50910413E+04</rscale>
<asrwt>0</asrwt>
<pdfrwt beam="1">  1        1 0.51189346E+00 0.50910413E+04</pdfrwt>
<pdfrwt beam="2">  1       -1 0.29960355E+00 0.50910413E+04</pdfrwt>
<totfact> 0.81000150E-03</totfact>
</mgrwt>
</event>
<event>
 6    1  0.1072514E-005  0.1699632E+04  0.7818608E-02  0.8761574E-01
         -1   -1    0    0    0  501 -0.00000000000E+00  0.00000000000E+00  0.12021165787E+04  0.12021165787E+04  0.00000000000E+00 0.  1.
          1   -1    0    0  501    0  0.00000000000E+00 -0.00000000000E+00 -0.60076334167E+03  0.60076334167E+03  0.00000000000E+00 0. -1.
         23    2    1    2    0    0  0.37226519645E+03 -0.26464796674E+03  0.10585519823E+04  0.11566209820E+04  0.92843276538E+02 0.  0.
         13    1    3    3    0    0  0.23878291473E+03 -0.18332693347E+03  0.79654156044E+03  0.85153068202E+03  0.00000000000E+00 0. -1.
        -13    1    3    3    0    0  0.13348228172E+03 -0.81321033274E+02  0.26201042183E+03  0.30509029997E+03  0.00000000000E+00 0.  1.
         22    1    1    2    0    0 -0.37226519645E+03  0.26464796674E+03 -0.45719874524E+03  0.64625893839E+03  0.00000000000E+00 0. -1.
<mgrwt>
<rscale>  0 0.16996324E+04</rscale>
<asrwt>0</asrwt>
<pdfrwt beam="1">  1        1 0.92425129E-01 0.16996324E+04</pdfrwt>
<pdfrwt beam="2">  1       -1 0.18494101E+00 0.16996324E+04</pdfrwt>
<totfact> 0.62406269E+00</totfact>
</mgrwt>
</event>
<event>
 6    1  0.1072514E-005  0.6759895E+03  0.7818608E-02  0.9759198E-01
         -2   -1    0    0    0  501 -0.00000000000E+00  0.00000000000E+00  0.10213807827E+03  0.10213807827E+03  0.00000000000E+00 0.  1.
          2   -1    0    0  501    0  0.00000000000E+00 -0.00000000000E+00 -0.11184904289E+04  0.11184904289E+04  0.00000000000E+00 0. -1.
         23    2    1    2    0    0  0.28680544825E+03 -0.12611009641E+03 -0.71246592285E+03  0.78415619127E+03  0.95562123901E+02 0.  0.
         11    1    3    3    0    0  0.96959619991E+02 -0.67130686436E+02 -0.36808291003E+03  0.38651355168E+03  0.00000000000E+00 0. -1.
        -11    1    3    3    0    0  0.18984582826E+03 -0.58979409972E+02 -0.34438301282E+03  0.39764263959E+03  0.00000000000E+00 0.  1.
         22    1    1    2    0    0 -0.28680544825E+03  0.12611009641E+03 -0.30388642783E+03  0.43647231594E+03  0.00000000000E+00 0. -1.
<mgrwt>
<rscale>  0 0.67598954E+03</rscale>
<asrwt>0</asrwt>
<pdfrwt beam="1">  1        2 0.17207544E+00 0.67598954E+03</pdfrwt>
<pdfrwt beam="2">  1       -2 0.15713551E-01 0.67598954E+03</pdfrwt>
<totfact> 0.69321862E+02</totfact>
</mgrwt>
</event>
<event>
 6    1  0.1072514E-005  0.7606375E+03  0.7818608E-02  0.9618808E-01
         -1   -1    0    0    0  501 -0.00000000000E+00  0.00000000000E+00  0.17151583765E+03  0.17151583765E+03  0.00000000000E+00 0.  1.
          1   -1    0    0  501    0  0.00000000000E+00 -0.00000000000E+00 -0.84331774992E+03  0.84331774992E+03  0.00000000000E+00 0. -1.
         23    2    1    2    0    0 -0.30486094554E+03 -0.14995951220E+03 -0.55211614585E+03  0.65462151935E+03  0.90934282114E+02 0.  0.
         13    1    3    3    0    0 -0.25359759567E+03 -0.10980704049E+03 -0.37434218928E+03  0.46529711083E+03  0.00000000000E+00 0.  1.
        -13    1    3    3    0    0 -0.51263349869E+02 -0.40152471711E+02 -0.17777395657E+03  0.18932440852E+03  0.00000000000E+00 0. -1.
         22    1    1    2    0    0  0.30486094554E+03  0.14995951220E+03 -0.11968576642E+03  0.36021206823E+03  0.00000000000E+00 0.  1.
<mgrwt>
<rscale>  0 0.76063750E+03</rscale>
<asrwt>0</asrwt>
<pdfrwt beam="1">  1        1 0.12974119E+00 0.76063750E+03</pdfrwt>
<pdfrwt beam="2">  1       -1 0.26387052E-01 0.76063750E+03</pdfrwt>
<totfact> 0.26165927E+02</totfact>
</mgrwt>
</event>
<event>
 6    1  0.1360053E-005  0.3367468E+04  0.7818608E-02  0.8145937E-01
         -2   -1    0    0    0  501 -0.00000000000E+00  0.00000000000E+00  0.18023088081E+04  0.18023088081E+04  0.00000000000E+00 0. -1.
          2   -1    0    0  501    0  0.00000000000E+00 -0.00000000000E+00 -0.15729601021E+04  0.15729601021E+04  0.00000000000E+00 0.  1.
         23    2    1    2    0    0 -0.47526003324E+03  0.75049829865E+03  0.15469425077E+04  0.17861895473E+04  0.91225990414E+02 0.  0.
         11    1    3    3    0    0 -0.18822781724E+03  0.23579252028E+03  0.58085494608E+03  0.65453822821E+03  0.00000000000E+00 0.  1.
        -11    1    3    3    0    0 -0.28703221600E+03  0.51470577836E+03  0.96608756158E+03  0.11316513191E+04  0.00000000000E+00 0. -1.
         22    1    1    2    0    0  0.47526003324E+03 -0.75049829865E+03 -0.13175938017E+04  0.15890793629E+04  0.00000000000E+00 0.  1.
<mgrwt>
<rscale>  0 0.33674678E+04</rscale>
<asrwt>0</asrwt>
<pdfrwt beam="1">  1        2 0.24199386E+00 0.33674678E+04</pdfrwt>
<pdfrwt beam="2">  1       -2 0.27727828E+00 0.33674678E+04</pdfrwt>
<totfact> 0.41968276E-01</totfact>
</mgrwt>
</event>
<event>
 6    1  0.1072514E-005  0.4874734E+04  0.7818608E-02  0.7848127E-01
          2   -1    0    0  501    0  0.00000000000E+00  0.00000000000E+00  0.26480045220E+04  0.26480045220E+04  0.00000000000E+00 0. -1.
         -2   -1    0    0    0  501 -0.00000000000E+00 -0.00000000000E+00 -0.22434847447E+04  0.22434847447E+04  0.00000000000E+00 0.  1.
         23    2    1    2    0    0  0.81538856473E+03 -0.95687627199E+03  0.22966130423E+04  0.26198185963E+04  0.92451608404E+02 0.  0.
         13    1    3    3    0    0  0.33987444594E+03 -0.42094469228E+03  0.89851670896E+03  0.10488285605E+04  0.00000000000E+00 0.  1.
        -13    1    3    3    0    0  0.47551411879E+03 -0.53593157972E+03  0.13980963334E+04  0.15709900358E+04  0.00000000000E+00 0. -1.
         22    1    1    2    0    0 -0.81538856473E+03  0.95687627199E+03 -0.18920932650E+04  0.22716706704E+04  0.00000000000E+00 0.  1.
<mgrwt>
<rscale>  0 0.48747339E+04</rscale>
<asrwt>0</asrwt>
<pdfrwt beam="1">  1        2 0.40738531E+00 0.48747339E+04</pdfrwt>
<pdfrwt beam="2">  1       -2 0.34515150E+00 0.48747339E+04</pdfrwt>
<totfact> 0.34992406E-02</totfact>
</mgrwt>
</event>
<event>
 6    1  0.1072514E-005  0.3963213E+04  0.7818608E-02  0.8012009E-01
          1   -1    0    0  501    0  0.00000000000E+00  0.00000000000E+00  0.20771064747E+04  0.20771064747E+04  0.00000000000E+00 0. -1.
         -1   -1    0    0    0  501 -0.00000000000E+00 -0.00000000000E+00 -0.18904971537E+04  0.18904971537E+04  0.00000000000E+00 0.  1.
         23    2    1    2    0    0  0.19033191035E+04 -0.52396668198E+03  0.25321209081E+03  0.19923566509E+04  0.90575756347E+02 0.  0.
         13    1    3    3    0    0  0.17652786801E+04 -0.46574246962E+03  0.24796863369E+03  0.18424476410E+04  0.00000000000E+00 0. -1.
        -13    1    3    3    0    0  0.13804042342E+03 -0.58224212362E+02  0.52434571207E+01  0.14990900988E+03  0.00000000000E+00 0.  1.
         22    1    1    2    0    0 -0.19033191035E+04  0.52396668198E+03 -0.66602769825E+02  0.19752469776E+04  0.00000000000E+00 0. -1.
<mgrwt>
<rscale>  0 0.39632128E+04</rscale>
<asrwt>0</asrwt>
<pdfrwt beam="1">  1        1 0.31955484E+00 0.39632128E+04</pdfrwt>
<pdfrwt beam="2">  1       -1 0.29084571E+00 0.39632128E+04</pdfrwt>
<totfact> 0.78504934E-02</totfact>
</mgrwt>
</event>
<event>
 6    1  0.1072514E-005  0.1553745E+04  0.7818608E-02  0.8849479E-01
         -2   -1    0    0    0  501 -0.00000000000E+00  0.00000000000E+00  0.35071198942E+03  0.35071198942E+03  0.00000000000E+00 0.  1.
          2   -1    0    0  501    0  0.00000000000E+00 -0.00000000000E+00 -0.17208743202E+04  0.17208743202E+04  0.00000000000E+00 0. -1.
         23    2    1    2    0    0 -0.20140018167E+03  0.10232728656E+03 -0.16747213556E+04  0.16923909690E+04  0.91992750993E+02 0.  0.
         11    1    3    3    0    0 -0.14943081630E+02  0.37419496235E+02 -0.45651129538E+03  0.45828602117E+03  0.00000000000E+00 0.  1.
        -11    1    3    3    0    0 -0.18645710004E+03  0.64907790328E+02 -0.12182100602E+04  0.12341049478E+04  0.00000000000E+00 0. -1.
         22    1    1    2    0    0  0.20140018167E+03 -0.10232728656E+03  0.30455902483E+03  0.37919534063E+03  0.00000000000E+00 0.  1.
<mgrwt>
<rscale>  0 0.15537455E+04</rscale>
<asrwt>0</asrwt>
<pdfrwt beam="1">  1        2 0.26474990E+00 0.15537455E+04</pdfrwt>
<pdfrwt beam="2">  1       -2 0.53955691E-01 0.15537455E+04</pdfrwt>
<totfact> 0.29723076E+01</totfact>
</mgrwt>
</event>
<event>
 6    1  0.1072514E-005  0.1831147E+04  0.7818608E-02  0.8689909E-01
          2   -1    0    0  501    0  0.00000000000E+00  0.00000000000E+00  0.10680725330E+04  0.10680725330E+04  0.00000000000E+00 0.  1.
         -2   -1    0    0    0  501 -0.00000000000E+00 -0.00000000000E+00 -0.78484850729E+03  0.78484850729E+03  0.00000000000E+00 0. -1.
         23    2    1    2    0    0 -0.34982898917E+03 -0.83062344718E+03  0.29217856161E+03  0.95159101390E+03  0.88552319099E+02 0.  0.
         11    1    3    3    0    0 -0.29443899990E+03 -0.75221349952E+03  0.24194618049E+03  0.84324221181E+03  0.00000000000E+00 0.  1.
        -11    1    3    3    0    0 -0.55389989270E+02 -0.78409947654E+02  0.50232381116E+02  0.10834880209E+03  0.00000000000E+00 0. -1.
         22    1    1    2    0    0  0.34982898917E+03  0.83062344718E+03 -0.89545359410E+01  0.90133002634E+03  0.00000000000E+00 0. -1.
<mgrwt>
<rscale>  0 0.18311473E+04</rscale>
<asrwt>0</asrwt>
<pdfrwt beam="1">  1        2 0.16431885E+00 0.18311473E+04</pdfrwt>
<pdfrwt beam="2">  1       -2 0.12074592E+00 0.18311473E+04</pdfrwt>
<totfact> 0.11230306E+01</totfact>
</mgrwt>
</event>
<event>
 6    1  0.1072514E-005  0.2621105E+04  0.7818608E-02  0.8361068E-01
         -2   -1    0    0    0  501 -0.00000000000E+00  0.00000000000E+00  0.53844924443E+03  0.53844924443E+03  0.00000000000E+00 0.  1.
          2   -1    0    0  501    0  0.00000000000E+00 -0.00000000000E+00 -0.31898039540E+04  0.31898039540E+04  0.00000000000E+00 0. -1.
         23    2    1    2    0    0  0.13059437426E+04 -0.35007289579E+02 -0.14421772464E+04  0.19481339028E+04  0.92929671992E+02 0.  0.
         13    1    3    3    0    0  0.11254704808E+04 -0.62194333849E+02 -0.12446031136E+04  0.16791631394E+04  0.00000000000E+00 0. -1.
        -13    1    3    3    0    0  0.18047326180E+03  0.27187044269E+02 -0.19757413281E+03  0.26897076338E+03  0.00000000000E+00 0.  1.
         22    1    1    2    0    0 -0.13059437426E+04  0.35007289579E+02 -0.12091774631E+04  0.17801192956E+04  0.00000000000E+00 0.  1.
<mgrwt>
<rscale>  0 0.26211048E+04</rscale>
<asrwt>0</asrwt>
<pdfrwt beam="1">  1        2 0.49073907E+00 0.26211048E+04</pdfrwt>
<pdfrwt beam="2">  1       -2 0.82838346E-01 0.26211048E+04</pdfrwt>
<totfact> 0.14855774E+00</totfact>
</mgrwt>
</event>
<event>
 6    1  0.1072514E-005  0.3801030E+04  0.7818608E-02  0.8045934E-01
         -2   -1    0    0    0  501 -0.00000000000E+00  0.00000000000E+00  0.19389511504E+04  0.19389511504E+04  0.00000000000E+00 0.  1.
          2   -1    0    0  501    0  0.00000000000E+00 -0.00000000000E+00 -0.18628403780E+04  0.18628403780E+04  0.00000000000E+00 0. -1.
         23    2    1    2    0    0 -0.48727374798E+03  0.13892856444E+04  0.12383533193E+04  0.19260628580E+04  0.92999368686E+02 0.  0.
         13    1    3    3    0    0 -0.10239568899E+03  0.40459530551E+03  0.37562225471E+03  0.56149293549E+03  0.00000000000E+00 0. -1.
        -13    1    3    3    0    0 -0.38487805899E+03  0.98469033884E+03  0.86273106458E+03  0.13645699225E+04  0.00000000000E+00 0.  1.
         22    1    1    2    0    0  0.48727374798E+03 -0.13892856444E+04 -0.11622425468E+04  0.18757286704E+04  0.00000000000E+00 0. -1.
<mgrwt>
<rscale>  0 0.38010296E+04</rscale>
<asrwt>0</asrwt>
<pdfrwt beam="1">  1        2 0.28659083E+00 0.38010296E+04</pdfrwt>
<pdfrwt beam="2">  1       -2 0.29830018E+00 0.38010296E+04</pdfrwt>
<totfact> 0.20782986E-01</totfact>
</mgrwt>
</event>
<event>
 6    1  0.1072514E-005  0.2803965E+04  0.7818608E-02  0.8302038E-01
         -2   -1    0    0    0  501 -0.00000000000E+00  0.00000000000E+00  0.69490972444E+03  0.69490972444E+03  0.00000000000E+00 0. -1.
          2   -1    0    0  501    0  0.00000000000E+00 -0.00000000000E+00 -0.28285042621E+04  0.28285042621E+04  0.00000000000E+00 0.  1.
         23    2    1    2    0    0 -0.11131516558E+04  0.84719099816E+02 -0.54163453594E+01  0.11202023120E+04  0.92411840681E+02 0.  0.
         13    1    3    3    0    0 -0.52684840175E+03  0.76193809241E+02 -0.31466243291E+02  0.53325871719E+03  0.00000000000E+00 0.  1.
        -13    1    3    3    0    0 -0.58630325403E+03  0.85252905743E+01  0.26049897932E+02  0.58694359477E+03  0.00000000000E+00 0. -1.
         22    1    1    2    0    0  0.11131516558E+04 -0.84719099816E+02 -0.21281781923E+04  0.24032116746E+04  0.00000000000E+00 0.  1.
<mgrwt>
<rscale>  0 0.28039651E+04</rscale>
<asrwt>0</asrwt>
<pdfrwt beam="1">  1        2 0.43515451E+00 0.28039651E+04</pdfrwt>
<pdfrwt beam="2">  1       -2 0.10690919E+00 0.28039651E+04</pdfrwt>
<totfact> 0.13600340E+00</totfact>
</mgrwt>
</event>
<event>
 6    1  0.1072514E-005  0.3687968E+03  0.7818608E-02  0.1055154E+00
         -3   -1    0    0    0  501 -0.00000000000E+00  0.00000000000E+00  0.76089549372E+03  0.76089549372E+03  0.00000000000E+00 0.  1.
          3   -1    0    0  501    0  0.00000000000E+00 -0.00000000000E+00 -0.44687828588E+02  0.44687828588E+02  0.00000000000E+00 0. -1.
         23    2    1    2    0    0 -0.12888988013E+03  0.11332932379E+03  0.43232171137E+03  0.47384943562E+03  0.90416197046E+02 0.  0.
         11    1    3    3    0    0 -0.12862462642E+02  0.40889842819E+02  0.19746213492E+03  0.20206117123E+03  0.00000000000E+00 0.  1.
        -11    1    3    3    0    0 -0.11602741749E+03  0.72439480973E+02  0.23485957644E+03  0.27178826439E+03  0.00000000000E+00 0. -1.
         22    1    1    2    0    0  0.12888988013E+03 -0.11332932379E+03  0.28388595376E+03  0.33173388668E+03  0.00000000000E+00 0.  1.
<mgrwt>
<rscale>  0 0.36879679E+03</rscale>
<asrwt>0</asrwt>
<pdfrwt beam="1">  1        3 0.68750511E-02 0.36879679E+03</pdfrwt>
<pdfrwt beam="2">  1       -3 0.11706084E+00 0.36879679E+03</pdfrwt>
<totfact> 0.22124794E+02</totfact>
</mgrwt>
</event>
<event>
 6    1  0.1072514E-005  0.4127656E+04  0.7818608E-02  0.7979278E-01
         -2   -1    0    0    0  501 -0.00000000000E+00  0.00000000000E+00  0.24454001097E+04  0.24454001097E+04  0.00000000000E+00 0.  1.
          2   -1    0    0  501    0  0.00000000000E+00 -0.00000000000E+00 -0.17417948102E+04  0.17417948102E+04  0.00000000000E+00 0. -1.
         23    2    1    2    0    0  0.19912776895E+04 -0.37961122049E+03  0.73990454577E+03  0.21597311962E+04  0.87684593069E+02 0.  0.
         13    1    3    3    0    0  0.23569558030E+03 -0.42467339646E+02  0.11799119589E+03  0.26697903254E+03  0.00000000000E+00 0. -1.
        -13    1    3    3    0    0  0.17555821092E+04 -0.33714388084E+03  0.62191334988E+03  0.18927521637E+04  0.00000000000E+00 0.  1.
         22    1    1    2    0    0 -0.19912776895E+04  0.37961122049E+03 -0.36299246308E+02  0.20274637236E+04  0.00000000000E+00 0. -1.
<mgrwt>
<rscale>  0 0.41276556E+04</rscale>
<asrwt>0</asrwt>
<pdfrwt beam="1">  1        2 0.26796843E+00 0.41276556E+04</pdfrwt>
<pdfrwt beam="2">  1       -2 0.37621540E+00 0.41276556E+04</pdfrwt>
<totfact> 0.76845331E-02</totfact>
</mgrwt>
</event>
<event>
 6    1  0.1072514E-005  0.2052332E+04  0.7818608E-02  0.8582537E-01
          1   -1    0    0  501    0  0.00000000000E+00  0.00000000000E+00  0.16150081388E+04  0.16150081388E+04  0.00000000000E+00 0.  1.
         -1   -1    0    0    0  501 -0.00000000000E+00 -0.00000000000E+00 -0.65201968054E+03  0.65201968054E+03  0.00000000000E+00 0. -1.
         23    2    1    2    0    0 -0.19882427552E+03 -0.79282965936E+03  0.11639312072E+04  0.14253105570E+04  0.93082584288E+02 0.  0.
         11    1    3    3    0    0 -0.10422497989E+03 -0.48505829490E+03  0.77764641005E+03  0.92243066674E+03  0.00000000000E+00 0.  1.
        -11    1    3    3    0    0 -0.94599295627E+02 -0.30777136446E+03  0.38628479719E+03  0.50287989029E+03  0.00000000000E+00 0. -1.
         22    1    1    2    0    0  0.19882427552E+03  0.79282965936E+03 -0.20094274898E+03  0.84171726231E+03  0.00000000000E+00 0. -1.
<mgrwt>
<rscale>  0 0.20523324E+04</rscale>
<asrwt>0</asrwt>
<pdfrwt beam="1">  1        1 0.24846279E+00 0.20523324E+04</pdfrwt>
<pdfrwt beam="2">  1       -1 0.10031072E+00 0.20523324E+04</pdfrwt>
<totfact> 0.47619607E+00</totfact>
</mgrwt>
</event>
<event>
 6    1  0.1072514E-005  0.3625443E+04  0.7818608E-02  0.8084688E-01
         -2   -1    0    0    0  501 -0.00000000000E+00  0.00000000000E+00  0.11441611909E+04  0.11441611909E+04  0.00000000000E+00 0.  1.
          2   -1    0    0  501    0  0.00000000000E+00 -0.00000000000E+00 -0.28719369644E+04  0.28719369644E+04  0.00000000000E+00 0. -1.
         23    2    1    2    0    0  0.18788497357E+03 -0.66415701100E+03  0.99114631186E+03  0.12109345942E+04  0.87099260921E+02 0.  0.
         13    1    3    3    0    0  0.11660214754E+02 -0.12145900654E+03  0.13391756241E+03  0.18116888364E+03  0.00000000000E+00 0. -1.
        -13    1    3    3    0    0  0.17622475882E+03 -0.54269800446E+03  0.85722874945E+03  0.10297657105E+04  0.00000000000E+00 0.  1.
         22    1    1    2    0    0 -0.18788497357E+03  0.66415701100E+03 -0.27189220853E+04  0.28051635611E+04  0.00000000000E+00 0. -1.
<mgrwt>
<rscale>  0 0.36254428E+04</rscale>
<asrwt>0</asrwt>
<pdfrwt beam="1">  1        2 0.44183645E+00 0.36254428E+04</pdfrwt>
<pdfrwt beam="2">  1       -2 0.17602480E+00 0.36254428E+04</pdfrwt>
<totfact> 0.32841747E-01</totfact>
</mgrwt>
</event>
<event>
 6    1  0.1072514E-005  0.1584146E+04  0.7818608E-02  0.8830347E-01
         -2   -1    0    0    0  501 -0.00000000000E+00  0.00000000000E+00  0.50223142617E+03  0.50223142617E+03  0.00000000000E+00 0.  1.
          2   -1    0    0  501    0  0.00000000000E+00 -0.00000000000E+00 -0.12491847020E+04  0.12491847020E+04  0.00000000000E+00 0. -1.
         23    2    1    2    0    0  0.63524236647E+03 -0.45355521163E+03 -0.50447788197E+03  0.93407928772E+03  0.93600150574E+02 0.  0.
         13    1    3    3    0    0  0.18096040857E+03 -0.83489564900E+02 -0.14784373645E+03  0.24814299773E+03  0.00000000000E+00 0. -1.
        -13    1    3    3    0    0  0.45428195790E+03 -0.37006564673E+03 -0.35663414552E+03  0.68593628998E+03  0.00000000000E+00 0.  1.
         22    1    1    2    0    0 -0.63524236647E+03  0.45355521163E+03 -0.24247539388E+03  0.81733684047E+03  0.00000000000E+00 0.  1.
<mgrwt>
<rscale>  0 0.15841462E+04</rscale>
<asrwt>0</asrwt>
<pdfrwt beam="1">  1        2 0.19218226E+00 0.15841462E+04</pdfrwt>
<pdfrwt beam="2">  1       -2 0.77266373E-01 0.15841462E+04</pdfrwt>
<totfact> 0.25407885E+01</totfact>
</mgrwt>
</event>
<event>
 6    1  0.1072514E-005  0.2492852E+04  0.7818608E-02  0.8405537E-01
          1   -1    0    0  501    0  0.00000000000E+00  0.00000000000E+00  0.77858244657E+03  0.77858244657E+03  0.00000000000E+00 0. -1.
         -1   -1    0    0    0  501 -0.00000000000E+00 -0.00000000000E+00 -0.19953924606E+04  0.19953924606E+04  0.00000000000E+00 0.  1.
         23    2    1    2    0    0  0.12180396354E+04  0.18440099481E+03 -0.80755879756E+03  0.14758567159E+04  0.91528979516E+02 0.  0.
         13    1    3    3    0    0  0.93107662634E+03  0.11338639583E+03 -0.57999898736E+03  0.11027959849E+04  0.00000000000E+00 0. -1.
        -13    1    3    3    0    0  0.28696300905E+03  0.71014598976E+02 -0.22755981019E+03  0.37306073104E+03  0.00000000000E+00 0.  1.
         22    1    1    2    0    0 -0.12180396354E+04 -0.18440099481E+03 -0.40925121644E+03  0.12981181912E+04  0.00000000000E+00 0. -1.
<mgrwt>
<rscale>  0 0.24928518E+04</rscale>
<asrwt>0</asrwt>
<pdfrwt beam="1">  1        1 0.11978191E+00 0.24928518E+04</pdfrwt>
<pdfrwt beam="2">  1       -1 0.30698346E+00 0.24928518E+04</pdfrwt>
<totfact> 0.61074717E-01</totfact>
</mgrwt>
</event>
<event>
 6    1  0.1072514E-005  0.2440125E+04  0.7818608E-02  0.8424632E-01
         -2   -1    0    0    0  501 -0.00000000000E+00  0.00000000000E+00  0.87435256212E+03  0.87435256212E+03  0.00000000000E+00 0.  1.
          2   -1    0    0  501    0  0.00000000000E+00 -0.00000000000E+00 -0.17024621894E+04  0.17024621894E+04  0.00000000000E+00 0. -1.
         23    2    1    2    0    0  0.64740952139E+03 -0.61200310751E+03  0.46300980159E+03  0.10081604647E+04  0.91228034038E+02 0.  0.
         11    1    3    3    0    0  0.40100698880E+03 -0.36954451974E+03  0.23340165756E+03  0.59316615791E+03  0.00000000000E+00 0.  1.
        -11    1    3    3    0    0  0.24640253259E+03 -0.24245858776E+03  0.22960814404E+03  0.41499430678E+03  0.00000000000E+00 0. -1.
         22    1    1    2    0    0 -0.64740952139E+03  0.61200310751E+03 -0.12911194289E+04  0.15686542868E+04  0.00000000000E+00 0. -1.
<mgrwt>
<rscale>  0 0.24401247E+04</rscale>
<asrwt>0</asrwt>
<pdfrwt beam="1">  1        2 0.26191726E+00 0.24401247E+04</pdfrwt>
<pdfrwt beam="2">  1       -2 0.13451578E+00 0.24401247E+04</pdfrwt>
<totfact> 0.34891381E+00</totfact>
</mgrwt>
</event>
<event>
 6    1  0.1072514E-005  0.2058474E+04  0.7818608E-02  0.8579760E-01
         -2   -1    0    0    0  501 -0.00000000000E+00  0.00000000000E+00  0.10075213700E+04  0.10075213700E+04  0.00000000000E+00 0.  1.
          2   -1    0    0  501    0  0.00000000000E+00 -0.00000000000E+00 -0.10514206384E+04  0.10514206384E+04  0.00000000000E+00 0. -1.
         23    2    1    2    0    0 -0.27017696946E+03 -0.42130201505E+03 -0.91910583938E+03  0.10507369080E+04  0.93816433505E+02 0.  0.
         13    1    3    3    0    0 -0.26836164748E+03 -0.37588804476E+03 -0.80783131298E+03  0.93053813799E+03  0.00000000000E+00 0. -1.
        -13    1    3    3    0    0 -0.18153219751E+01 -0.45413970297E+02 -0.11127452640E+03  0.12019877004E+03  0.00000000000E+00 0.  1.
         22    1    1    2    0    0  0.27017696946E+03  0.42130201505E+03  0.87520657095E+03  0.10082051004E+04  0.00000000000E+00 0.  1.
<mgrwt>
<rscale>  0 0.20584740E+04</rscale>
<asrwt>0</asrwt>
<pdfrwt beam="1">  1        2 0.16175702E+00 0.20584740E+04</pdfrwt>
<pdfrwt beam="2">  1       -2 0.15500329E+00 0.20584740E+04</pdfrwt>
<totfact> 0.59290906E+00</totfact>
</mgrwt>
</event>
<event>
 6    1  0.1072514E-005  0.1555128E+04  0.7818608E-02  0.8848599E-01
         -2   -1    0    0    0  501 -0.00000000000E+00  0.00000000000E+00  0.32369892707E+03  0.32369892707E+03  0.00000000000E+00 0.  1.
          2   -1    0    0  501    0  0.00000000000E+00 -0.00000000000E+00 -0.18678031503E+04  0.18678031503E+04  0.00000000000E+00 0. -1.
         23    2    1    2    0    0 -0.10757570171E+03  0.76329886028E+03 -0.66930488008E+03  0.10255382819E+04  0.97785803402E+02 0.  0.
         13    1    3    3    0    0 -0.60678853263E+02  0.17538398890E+03 -0.18949285511E+03  0.26523387592E+03  0.00000000000E+00 0. -1.
        -13    1    3    3    0    0 -0.46896848447E+02  0.58791487137E+03 -0.47981202497E+03  0.76030440593E+03  0.00000000000E+00 0.  1.
         22    1    1    2    0    0  0.10757570171E+03 -0.76329886028E+03 -0.87479934317E+03  0.11659637955E+04  0.00000000000E+00 0. -1.
<mgrwt>
<rscale>  0 0.15551281E+04</rscale>
<asrwt>0</asrwt>
<pdfrwt beam="1">  1        2 0.28735433E+00 0.15551281E+04</pdfrwt>
<pdfrwt beam="2">  1       -2 0.49799835E-01 0.15551281E+04</pdfrwt>
<totfact> 0.29049106E+01</totfact>
</mgrwt>
</event>
<event>
 6    1  0.1072514E-005  0.4873023E+04  0.7818608E-02  0.7848399E-01
          2   -1    0    0  501    0  0.00000000000E+00  0.00000000000E+00  0.17977677759E+04  0.17977677759E+04  0.00000000000E+00 0. -1.
         -2   -1    0    0    0  501 -0.00000000000E+00 -0.00000000000E+00 -0.33021998396E+04  0.33021998396E+04  0.00000000000E+00 0.  1.
         23    2    1    2    0    0  0.12262420327E+04  0.17173047196E+04  0.52057967739E+03  0.21753347199E+04  0.90955595001E+02 0.  0.
         11    1    3    3    0    0  0.86837766881E+03  0.12097173535E+04  0.32464149090E+03  0.15241023419E+04  0.00000000000E+00 0. -1.
        -11    1    3    3    0    0  0.35786436389E+03  0.50758736610E+03  0.19593818648E+03  0.65123237795E+03  0.00000000000E+00 0.  1.
         22    1    1    2    0    0 -0.12262420327E+04 -0.17173047196E+04 -0.20250117411E+04  0.29246328956E+04  0.00000000000E+00 0.  1.
<mgrwt>
<rscale>  0 0.48730231E+04</rscale>
<asrwt>0</asrwt>
<pdfrwt beam="1">  1        2 0.27657966E+00 0.48730231E+04</pdfrwt>
<pdfrwt beam="2">  1       -2 0.50803074E+00 0.48730231E+04</pdfrwt>
<totfact> 0.94332711E-03</totfact>
</mgrwt>
</event>
<event>
 6    1  0.1072514E-005  0.1217492E+04  0.7818608E-02  0.9097682E-01
         -1   -1    0    0    0  501 -0.00000000000E+00  0.00000000000E+00  0.55040291195E+03  0.55040291195E+03  0.00000000000E+00 0.  1.
          1   -1    0    0  501    0  0.00000000000E+00 -0.00000000000E+00 -0.67327350640E+03  0.67327350640E+03  0.00000000000E+00 0. -1.
         23    2    1    2    0    0  0.42888114003E+03  0.41692320490E+03  0.37035078485E+02  0.60453684176E+03  0.79556300485E+02 0.  0.
         13    1    3    3    0    0  0.41746243915E+03  0.38420787803E+03  0.25174148645E+02  0.56791224621E+03  0.00000000000E+00 0. -1.
        -13    1    3    3    0    0  0.11418700883E+02  0.32715326876E+02  0.11860929840E+02  0.36624595549E+02  0.00000000000E+00 0.  1.
         22    1    1    2    0    0 -0.42888114003E+03 -0.41692320490E+03 -0.15990567294E+03  0.61913957659E+03  0.00000000000E+00 0. -1.
<mgrwt>
<rscale>  0 0.12174920E+04</rscale>
<asrwt>0</asrwt>
<pdfrwt beam="1">  1        1 0.10358054E+00 0.12174920E+04</pdfrwt>
<pdfrwt beam="2">  1       -1 0.84677371E-01 0.12174920E+04</pdfrwt>
<totfact> 0.39452001E+01</totfact>
</mgrwt>
</event>
<event>
 6    1  0.1072514E-005  0.2143985E+04  0.7818608E-02  0.8542111E-01
          2   -1    0    0  501    0  0.00000000000E+00  0.00000000000E+00  0.30659563381E+04  0.30659563381E+04  0.00000000000E+00 0.  1.
         -2   -1    0    0    0  501 -0.00000000000E+00 -0.00000000000E+00 -0.37481545433E+03  0.37481545433E+03  0.00000000000E+00 0. -1.
         23    2    1    2    0    0 -0.82464181859E+03  0.61745020374E+03  0.88404942163E+03  0.13606615945E+04  0.92615936710E+02 0.  0.
         11    1    3    3    0    0 -0.25889867403E+03  0.18508950019E+03  0.32996725386E+03  0.45843760220E+03  0.00000000000E+00 0.  1.
        -11    1    3    3    0    0 -0.56574314456E+03  0.43236070355E+03  0.55408216777E+03  0.90222399227E+03  0.00000000000E+00 0. -1.
         22    1    1    2    0    0  0.82464181859E+03 -0.61745020374E+03  0.18070914621E+04  0.20801101979E+04  0.00000000000E+00 0.  1.
<mgrwt>
<rscale>  0 0.21439849E+04</rscale>
<asrwt>0</asrwt>
<pdfrwt beam="1">  1        2 0.47168557E+00 0.21439849E+04</pdfrwt>
<pdfrwt beam="2">  1       -2 0.57663918E-01 0.21439849E+04</pdfrwt>
<totfact> 0.40982269E+00</totfact>
</mgrwt>
</event>
<event>
 6    1  0.1072514E-005  0.2241481E+04  0.7818608E-02  0.8501359E-01
         -1   -1    0    0    0  501 -0.00000000000E+00  0.00000000000E+00  0.10648516197E+04  0.10648516197E+04  0.00000000000E+00 0.  1.
          1   -1    0    0  501    0  0.00000000000E+00 -0.00000000000E+00 -0.11795626003E+04  0.11795626003E+04  0.00000000000E+00 0. -1.
         23    2    1    2    0    0  0.57852688032E+03  0.71579213702E+03  0.57955177098E+03  0.10915688259E+04  0.92685013495E+02 0.  0.
         13    1    3    3    0    0  0.18582572234E+03  0.18290231504E+03  0.19917222303E+03  0.32810673622E+03  0.00000000000E+00 0.  1.
        -13    1    3    3    0    0  0.39270115798E+03  0.53288982198E+03  0.38037954795E+03  0.76346208967E+03  0.00000000000E+00 0. -1.
         22    1    1    2    0    0 -0.57852688032E+03 -0.71579213702E+03 -0.69426275159E+03  0.11528453942E+04  0.00000000000E+00 0. -1.
<mgrwt>
<rscale>  0 0.22414809E+04</rscale>
<asrwt>0</asrwt>
<pdfrwt beam="1">  1        1 0.18147117E+00 0.22414809E+04</pdfrwt>
<pdfrwt beam="2">  1       -1 0.16382333E+00 0.22414809E+04</pdfrwt>
<totfact> 0.27482519E+00</totfact>
</mgrwt>
</event>
<event>
 6    1  0.1072514E-005  0.1739305E+04  0.7818608E-02  0.8739260E-01
         -2   -1    0    0    0  501 -0.00000000000E+00  0.00000000000E+00  0.12666440193E+04  0.12666440193E+04  0.00000000000E+00 0.  1.
          2   -1    0    0  501    0  0.00000000000E+00 -0.00000000000E+00 -0.59708582010E+03  0.59708582010E+03  0.00000000000E+00 0. -1.
         23    2    1    2    0    0 -0.72519517601E+03 -0.42724502824E+02 -0.17206314687E+03  0.75194752410E+03  0.89921777289E+02 0.  0.
         13    1    3    3    0    0 -0.41241325443E+03  0.18465983375E+02 -0.11029082003E+03  0.42730521873E+03  0.00000000000E+00 0. -1.
        -13    1    3    3    0    0 -0.31278192158E+03 -0.61190486199E+02 -0.61772326840E+02  0.32464230536E+03  0.00000000000E+00 0.  1.
         22    1    1    2    0    0  0.72519517601E+03  0.42724502824E+02  0.84162134609E+03  0.11117823153E+04  0.00000000000E+00 0.  1.
<mgrwt>
<rscale>  0 0.17393047E+04</rscale>
<asrwt>0</asrwt>
<pdfrwt beam="1">  1        2 0.91859357E-01 0.17393047E+04</pdfrwt>
<pdfrwt beam="2">  1       -2 0.19486831E+00 0.17393047E+04</pdfrwt>
<totfact> 0.67998650E+00</totfact>
</mgrwt>
</event>
<event>
 6    1  0.1072514E-005  0.1694199E+04  0.7818608E-02  0.8764680E-01
          1   -1    0    0  501    0  0.00000000000E+00  0.00000000000E+00  0.19004195884E+04  0.19004195884E+04  0.00000000000E+00 0. -1.
         -1   -1    0    0    0  501 -0.00000000000E+00 -0.00000000000E+00 -0.37758896881E+03  0.37758896881E+03  0.00000000000E+00 0.  1.
         23    2    1    2    0    0 -0.48400146418E+03 -0.38924904574E+03 -0.60453425170E+01  0.62778616479E+03  0.91141020382E+02 0.  0.
         13    1    3    3    0    0 -0.17634200433E+03 -0.90190487669E+02  0.11179901944E+02  0.19838300523E+03  0.00000000000E+00 0. -1.
        -13    1    3    3    0    0 -0.30765945985E+03 -0.29905855807E+03 -0.17225244461E+02  0.42940315956E+03  0.00000000000E+00 0.  1.
         22    1    1    2    0    0  0.48400146418E+03  0.38924904574E+03  0.15288759621E+04  0.16502223924E+04  0.00000000000E+00 0. -1.
<mgrwt>
<rscale>  0 0.16941989E+04</rscale>
<asrwt>0</asrwt>
<pdfrwt beam="1">  1        1 0.29237224E+00 0.16941989E+04</pdfrwt>
<pdfrwt beam="2">  1       -1 0.58090612E-01 0.16941989E+04</pdfrwt>
<totfact> 0.99539929E+00</totfact>
</mgrwt>
</event>
<event>
 6    1  0.1072514E-005  0.3029634E+04  0.7818608E-02  0.8235319E-01
         -1   -1    0    0    0  501 -0.00000000000E+00  0.00000000000E+00  0.15904971371E+04  0.15904971371E+04  0.00000000000E+00 0.  1.
          1   -1    0    0  501    0  0.00000000000E+00 -0.00000000000E+00 -0.14427379754E+04  0.14427379754E+04  0.00000000000E+00 0. -1.
         23    2    1    2    0    0  0.95241322735E+03 -0.95336878800E+03  0.76391772254E+03  0.15514610495E+04  0.86360290951E+02 0.  0.
         11    1    3    3    0    0  0.14496325395E+03 -0.12495979630E+03  0.78745293877E+02  0.20695438385E+03  0.00000000000E+00 0. -1.
        -11    1    3    3    0    0  0.80744997340E+03 -0.82840899171E+03  0.68517242866E+03  0.13445066657E+04  0.00000000000E+00 0.  1.
         22    1    1    2    0    0 -0.95241322735E+03  0.95336878800E+03 -0.61615856083E+03  0.14817740630E+04  0.00000000000E+00 0. -1.
<mgrwt>
<rscale>  0 0.30296341E+04</rscale>
<asrwt>0</asrwt>
<pdfrwt beam="1">  1        1 0.22195969E+00 0.30296341E+04</pdfrwt>
<pdfrwt beam="2">  1       -1 0.24469187E+00 0.30296341E+04</pdfrwt>
<totfact> 0.45974086E-01</totfact>
</mgrwt>
</event>
<event>
 6    1  0.1072514E-005  0.1923675E+04  0.7818608E-02  0.8643161E-01
          1   -1    0    0  501    0  0.00000000000E+00  0.00000000000E+00  0.11118099321E+04  0.11118099321E+04  0.00000000000E+00 0. -1.
         -1   -1    0    0    0  501 -0.00000000000E+00 -0.00000000000E+00 -0.83209483422E+03  0.83209483422E+03  0.00000000000E+00 0.  1.
         23    2    1    2    0    0 -0.15478594142E+03 -0.74919595037E+03 -0.44575976250E+03  0.88959597250E+03  0.86174060591E+02 0.  0.
         13    1    3    3    0    0 -0.16170721841E+02 -0.28325598253E+03 -0.16720299203E+03  0.32932094441E+03  0.00000000000E+00 0. -1.
        -13    1    3    3    0    0 -0.13861521958E+03 -0.46593996784E+03 -0.27855677047E+03  0.56027502809E+03  0.00000000000E+00 0.  1.
         22    1    1    2    0    0  0.15478594142E+03  0.74919595037E+03  0.72547486041E+03  0.10543087938E+04  0.00000000000E+00 0. -1.
<mgrwt>
<rscale>  0 0.19236749E+04</rscale>
<asrwt>0</asrwt>
<pdfrwt beam="1">  1        1 0.17104768E+00 0.19236749E+04</pdfrwt>
<pdfrwt beam="2">  1       -1 0.12801459E+00 0.19236749E+04</pdfrwt>
<totfact> 0.61157520E+00</totfact>
</mgrwt>
</event>
<event>
 6    1  0.1072514E-005  0.1320224E+04  0.7818608E-02  0.9013679E-01
         -1   -1    0    0    0  501 -0.00000000000E+00  0.00000000000E+00  0.23040724091E+03  0.23040724091E+03  0.00000000000E+00 0.  1.
          1   -1    0    0  501    0  0.00000000000E+00 -0.00000000000E+00 -0.18912078785E+04  0.18912078785E+04  0.00000000000E+00 0. -1.
         23    2    1    2    0    0  0.60272543908E+03 -0.21377013151E+03 -0.10768630883E+04  0.12556135689E+04  0.89194727186E+02 0.  0.
         13    1    3    3    0    0  0.31451874395E+03 -0.67154411158E+02 -0.50697096110E+03  0.60037597440E+03  0.00000000000E+00 0.  1.
        -13    1    3    3    0    0  0.28820669513E+03 -0.14661572035E+03 -0.56989212723E+03  0.65523759450E+03  0.00000000000E+00 0. -1.
         22    1    1    2    0    0 -0.60272543908E+03  0.21377013151E+03 -0.58393754926E+03  0.86600155051E+03  0.00000000000E+00 0.  1.
<mgrwt>
<rscale>  0 0.13202242E+04</rscale>
<asrwt>0</asrwt>
<pdfrwt beam="1">  1        1 0.29095506E+00 0.13202242E+04</pdfrwt>
<pdfrwt beam="2">  1       -1 0.35447268E-01 0.13202242E+04</pdfrwt>
<totfact> 0.26303656E+01</totfact>
</mgrwt>
</event>
<event>
 6    1  0.1072514E-005  0.2249926E+04  0.7818608E-02  0.8497931E-01
         -2   -1    0    0    0  501 -0.00000000000E+00  0.00000000000E+00  0.33643598499E+03  0.33643598499E+03  0.00000000000E+00 0.  1.
          2   -1    0    0  501    0  0.00000000000E+00 -0.00000000000E+00 -0.37616115053E+04  0.37616115053E+04  0.00000000000E+00 0. -1.
         23    2    1    2    0    0  0.96303702850E+03  0.44952431340E+03 -0.23766269819E+04  0.26050751315E+04  0.92456493575E+02 0.  0.
         13    1    3    3    0    0  0.24536816673E+03  0.75335212009E+02 -0.61529379204E+03  0.66668386957E+03  0.00000000000E+00 0. -1.
        -13    1    3    3    0    0  0.71766886177E+03  0.37418910139E+03 -0.17613331899E+04  0.19383912620E+04  0.00000000000E+00 0.  1.
         22    1    1    2    0    0 -0.96303702850E+03 -0.44952431340E+03 -0.10485485384E+04  0.14929723587E+04  0.00000000000E+00 0.  1.
<mgrwt>
<rscale>  0 0.22499258E+04</rscale>
<asrwt>0</asrwt>
<pdfrwt beam="1">  1        2 0.57870947E+00 0.22499258E+04</pdfrwt>
<pdfrwt beam="2">  1       -2 0.51759381E-01 0.22499258E+04</pdfrwt>
<totfact> 0.16929982E+00</totfact>
</mgrwt>
</event>
<event>
 6    1  0.1072514E-005  0.1455833E+04  0.7818608E-02  0.8914366E-01
         -2   -1    0    0    0  501 -0.00000000000E+00  0.00000000000E+00  0.35929065656E+03  0.35929065656E+03  0.00000000000E+00 0. -1.
          2   -1    0    0  501    0  0.00000000000E+00 -0.00000000000E+00 -0.14747469094E+04  0.14747469094E+04  0.00000000000E+00 0.  1.
         23    2    1    2    0    0  0.70519322993E+03 -0.15449824005E+03 -0.47478205933E+03  0.86882742306E+03  0.90971915908E+02 0.  0.
         11    1    3    3    0    0  0.23459450112E+03 -0.36792337690E+02 -0.10902305523E+03  0.26129347991E+03  0.00000000000E+00 0.  1.
        -11    1    3    3    0    0  0.47059872880E+03 -0.11770590236E+03 -0.36575900410E+03  0.60753394315E+03  0.00000000000E+00 0. -1.
         22    1    1    2    0    0 -0.70519322993E+03  0.15449824005E+03 -0.64067419351E+03  0.96521014289E+03  0.00000000000E+00 0. -1.
<mgrwt>
<rscale>  0 0.14558335E+04</rscale>
<asrwt>0</asrwt>
<pdfrwt beam="1">  1        2 0.22688414E+00 0.14558335E+04</pdfrwt>
<pdfrwt beam="2">  1       -2 0.55275485E-01 0.14558335E+04</pdfrwt>
<totfact> 0.39120104E+01</totfact>
</mgrwt>
</event>
<event>
 6    1  0.1072514E-005  0.3341159E+04  0.7818608E-02  0.8152501E-01
         -2   -1    0    0    0  501 -0.00000000000E+00  0.00000000000E+00  0.12075682583E+04  0.12075682583E+04  0.00000000000E+00 0.  1.
          2   -1    0    0  501    0  0.00000000000E+00 -0.00000000000E+00 -0.23111203647E+04  0.23111203647E+04  0.00000000000E+00 0. -1.
         23    2    1    2    0    0 -0.67709566843E+03 -0.15216626661E+04 -0.67128339413E+03  0.17979992109E+04  0.90906290505E+02 0.  0.
         13    1    3    3    0    0 -0.16904420651E+03 -0.33727622835E+03 -0.11591374017E+03  0.39467352726E+03  0.00000000000E+00 0.  1.
        -13    1    3    3    0    0 -0.50805146192E+03 -0.11843864377E+04 -0.55536965396E+03  0.14033256836E+04  0.00000000000E+00 0. -1.
         22    1    1    2    0    0  0.67709566843E+03  0.15216626661E+04 -0.43226871225E+03  0.17206894121E+04  0.00000000000E+00 0. -1.
<mgrwt>
<rscale>  0 0.33411588E+04</rscale>
<asrwt>0</asrwt>
<pdfrwt beam="1">  1        2 0.35555697E+00 0.33411588E+04</pdfrwt>
<pdfrwt beam="2">  1       -2 0.18577974E+00 0.33411588E+04</pdfrwt>
<totfact> 0.61559677E-01</totfact>
</mgrwt>
</event>
<event>
 6    1  0.1072514E-005  0.2464411E+04  0.7818608E-02  0.8415775E-01
          2   -1    0    0  501    0  0.00000000000E+00  0.00000000000E+00  0.19234458875E+04  0.19234458875E+04  0.00000000000E+00 0. -1.
         -2   -1    0    0    0  501 -0.00000000000E+00 -0.00000000000E+00 -0.78938012486E+03  0.78938012486E+03  0.00000000000E+00 0.  1.
         23    2    1    2    0    0 -0.29966455391E+03 -0.83839747152E+03 -0.36711524132E+03  0.96747402156E+03  0.92321269818E+02 0.  0.
         11    1    3    3    0    0 -0.13316666023E+03 -0.42402939395E+03 -0.13687789029E+03  0.46504821597E+03  0.00000000000E+00 0. -1.
        -11    1    3    3    0    0 -0.16649789368E+03 -0.41436807758E+03 -0.23023735103E+03  0.50242580559E+03  0.00000000000E+00 0.  1.
         22    1    1    2    0    0  0.29966455391E+03  0.83839747152E+03  0.15011810039E+04  0.17453519908E+04  0.00000000000E+00 0.  1.
<mgrwt>
<rscale>  0 0.24644106E+04</rscale>
<asrwt>0</asrwt>
<pdfrwt beam="1">  1        2 0.29591475E+00 0.24644106E+04</pdfrwt>
<pdfrwt beam="2">  1       -2 0.12144310E+00 0.24644106E+04</pdfrwt>
<totfact> 0.33976026E+00</totfact>
</mgrwt>
</event>
<event>
 6    1  0.1072514E-005  0.1402549E+04  0.7818608E-02  0.8951976E-01
          2   -1    0    0  501    0  0.00000000000E+00  0.00000000000E+00  0.19074920438E+04  0.19074920438E+04  0.00000000000E+00 0. -1.
         -2   -1    0    0    0  501 -0.00000000000E+00 -0.00000000000E+00 -0.25781804496E+03  0.25781804496E+03  0.00000000000E+00 0.  1.
         23    2    1    2    0    0  0.19545430750E+03 -0.45676468904E+03  0.15860312846E+04  0.16644241111E+04  0.89308558176E+02 0.  0.
         13    1    3    3    0    0  0.93866506549E+02 -0.17676810470E+03  0.77503199087E+03  0.80045766332E+03  0.00000000000E+00 0. -1.
        -13    1    3    3    0    0  0.10158780095E+03 -0.27999658435E+03  0.81099929370E+03  0.86396644780E+03  0.00000000000E+00 0.  1.
         22    1    1    2    0    0 -0.19545430750E+03  0.45676468904E+03  0.63642714224E+02  0.50088597760E+03  0.00000000000E+00 0.  1.
<mgrwt>
<rscale>  0 0.14025489E+04</rscale>
<asrwt>0</asrwt>
<pdfrwt beam="1">  1        2 0.29346031E+00 0.14025489E+04</pdfrwt>
<pdfrwt beam="2">  1       -2 0.39664316E-01 0.14025489E+04</pdfrwt>
<totfact> 0.44019967E+01</totfact>
</mgrwt>
</event>
<event>
 6    1  0.1072514E-005  0.3795813E+04  0.7818608E-02  0.8047054E-01
          1   -1    0    0  501    0  0.00000000000E+00  0.00000000000E+00  0.38242961832E+04  0.38242961832E+04  0.00000000000E+00 0.  1.
         -1   -1    0    0    0  501 -0.00000000000E+00 -0.00000000000E+00 -0.94188560205E+03  0.94188560205E+03  0.00000000000E+00 0. -1.
         23    2    1    2    0    0  0.56514416422E+03 -0.11476714690E+04  0.32005355038E+04  0.34479476659E+04  0.91530697033E+02 0.  0.
         13    1    3    3    0    0  0.95955722253E+02 -0.24378979586E+03  0.73859512179E+03  0.78368598248E+03  0.00000000000E+00 0.  1.
        -13    1    3    3    0    0  0.46918844196E+03 -0.90388167312E+03  0.24619403820E+04  0.26642616834E+04  0.00000000000E+00 0. -1.
         22    1    1    2    0    0 -0.56514416422E+03  0.11476714690E+04 -0.31812492265E+03  0.13182341194E+04  0.00000000000E+00 0. -1.
<mgrwt>
<rscale>  0 0.37958132E+04</rscale>
<asrwt>0</asrwt>
<pdfrwt beam="1">  1        1 0.58835325E+00 0.37958132E+04</pdfrwt>
<pdfrwt beam="2">  1       -1 0.14490548E+00 0.37958132E+04</pdfrwt>
<totfact> 0.41320150E-02</totfact>
</mgrwt>
</event>
<event>
 6    1  0.1072514E-005  0.3107462E+04  0.7818608E-02  0.8213693E-01
         -1   -1    0    0    0  501 -0.00000000000E+00  0.00000000000E+00  0.76355639803E+03  0.76355639803E+03  0.00000000000E+00 0.  1.
          1   -1    0    0  501    0  0.00000000000E+00 -0.00000000000E+00 -0.31616261786E+04  0.31616261786E+04  0.00000000000E+00 0. -1.
         23    2    1    2    0    0 -0.11230212343E+04 -0.48084367269E+03 -0.24101081010E+04  0.27034902049E+04  0.88605299625E+02 0.  0.
         11    1    3    3    0    0 -0.58666904097E+03 -0.26470150691E+03 -0.13629188264E+04  0.15072475506E+04  0.00000000000E+00 0. -1.
        -11    1    3    3    0    0 -0.53635219328E+03 -0.21614216578E+03 -0.10471892746E+04  0.11962426543E+04  0.00000000000E+00 0.  1.
         22    1    1    2    0    0  0.11230212343E+04  0.48084367269E+03  0.12038320403E+02  0.12216923718E+04  0.00000000000E+00 0.  1.
<mgrwt>
<rscale>  0 0.31074619E+04</rscale>
<asrwt>0</asrwt>
<pdfrwt beam="1">  1        1 0.48640402E+00 0.31074619E+04</pdfrwt>
<pdfrwt beam="2">  1       -1 0.11747022E+00 0.31074619E+04</pdfrwt>
<totfact> 0.24951213E-01</totfact>
</mgrwt>
</event>
<event>
 6    1  0.1072514E-005  0.1516922E+04  0.7818608E-02  0.8873277E-01
         -1   -1    0    0    0  501 -0.00000000000E+00  0.00000000000E+00  0.12116226862E+04  0.12116226862E+04  0.00000000000E+00 0.  1.
          1   -1    0    0  501    0  0.00000000000E+00 -0.00000000000E+00 -0.47478752389E+03  0.47478752389E+03  0.00000000000E+00 0. -1.
         23    2    1    2    0    0 -0.68169880439E+03 -0.17471308687E+03  0.67543592267E+03  0.98000537628E+03  0.94651620652E+02 0.  0.
         11    1    3    3    0    0 -0.39536550923E+03 -0.69311105297E+02  0.43180750662E+03  0.58955545793E+03  0.00000000000E+00 0.  1.
        -11    1    3    3    0    0 -0.28633329516E+03 -0.10540198157E+03  0.24362841605E+03  0.39044991835E+03  0.00000000000E+00 0. -1.
         22    1    1    2    0    0  0.68169880439E+03  0.17471308687E+03  0.61399239674E+02  0.70640483383E+03  0.00000000000E+00 0. -1.
<mgrwt>
<rscale>  0 0.15169223E+04</rscale>
<asrwt>0</asrwt>
<pdfrwt beam="1">  1        1 0.73044235E-01 0.15169223E+04</pdfrwt>
<pdfrwt beam="2">  1       -1 0.18640349E+00 0.15169223E+04</pdfrwt>
<totfact> 0.86114284E+00</totfact>
</mgrwt>
</event>
<event>
 6    1  0.1072514E-005  0.9506920E+03  0.7818608E-02  0.9364342E-01
          1   -1    0    0  501    0  0.00000000000E+00  0.00000000000E+00  0.31788853519E+03  0.31788853519E+03  0.00000000000E+00 0. -1.
         -1   -1    0    0    0  501 -0.00000000000E+00 -0.00000000000E+00 -0.71079582074E+03  0.71079582074E+03  0.00000000000E+00 0.  1.
         23    2    1    2    0    0 -0.31504836027E+03 -0.40529218049E+02 -0.57463879972E+03  0.66272748680E+03  0.89999359952E+02 0.  0.
         11    1    3    3    0    0 -0.19272468376E+03  0.93010703262E+01 -0.28235756057E+03  0.34198699632E+03  0.00000000000E+00 0. -1.
        -11    1    3    3    0    0 -0.12232367650E+03 -0.49830288375E+02 -0.29228123915E+03  0.32074049048E+03  0.00000000000E+00 0.  1.
         22    1    1    2    0    0  0.31504836027E+03  0.40529218049E+02  0.18173151416E+03  0.36595686913E+03  0.00000000000E+00 0. -1.
<mgrwt>
<rscale>  0 0.95069205E+03</rscale>
<asrwt>0</asrwt>
<pdfrwt beam="1">  1        1 0.48905929E-01 0.95069205E+03</pdfrwt>
<pdfrwt beam="2">  1       -1 0.10935320E+00 0.95069205E+03</pdfrwt>
<totfact> 0.63268745E+01</totfact>
</mgrwt>
</event>
<event>
 6    1  0.1072514E-005  0.2837685E+04  0.7818608E-02  0.8291663E-01
          2   -1    0    0  501    0  0.00000000000E+00  0.00000000000E+00  0.35398685763E+04  0.35398685763E+04  0.00000000000E+00 0. -1.
         -2   -1    0    0    0  501 -0.00000000000E+00 -0.00000000000E+00 -0.56869756326E+03  0.56869756326E+03  0.00000000000E+00 0.  1.
         23    2    1    2    0    0  0.36270906159E+01 -0.54521562209E+03  0.33813490686E+04  0.34262764155E+04  0.92603031208E+02 0.  0.
         11    1    3    3    0    0  0.43956516119E+02 -0.19068261294E+03  0.12704632953E+04  0.12854450665E+04  0.00000000000E+00 0.  1.
        -11    1    3    3    0    0 -0.40329425503E+02 -0.35453300916E+03  0.21108857733E+04  0.21408313490E+04  0.00000000000E+00 0. -1.
         22    1    1    2    0    0 -0.36270906159E+01  0.54521562209E+03 -0.41017805552E+03  0.68228972409E+03  0.00000000000E+00 0.  1.
<mgrwt>
<rscale>  0 0.28376854E+04</rscale>
<asrwt>0</asrwt>
<pdfrwt beam="1">  1        2 0.54459515E+00 0.28376854E+04</pdfrwt>
<pdfrwt beam="2">  1       -2 0.87491935E-01 0.28376854E+04</pdfrwt>
<totfact> 0.74541843E-01</totfact>
</mgrwt>
</event>
<event>
 6    1  0.1072514E-005  0.1156729E+04  0.7818608E-02  0.9151598E-01
         -1   -1    0    0    0  501 -0.00000000000E+00  0.00000000000E+00  0.35497890246E+03  0.35497890246E+03  0.00000000000E+00 0.  1.
          1   -1    0    0  501    0  0.00000000000E+00 -0.00000000000E+00 -0.94232542569E+03  0.94232542569E+03  0.00000000000E+00 0. -1.
         23    2    1    2    0    0 -0.53510962723E+03 -0.17026176795E+03 -0.15772781456E+03  0.59026570288E+03  0.90576783585E+02 0.  0.
         13    1    3    3    0    0 -0.32505503547E+03 -0.14272998706E+03 -0.75075075916E+02  0.36286208443E+03  0.00000000000E+00 0.  1.
        -13    1    3    3    0    0 -0.21005459176E+03 -0.27531780895E+02 -0.82652738646E+02  0.22740361845E+03  0.00000000000E+00 0. -1.
         22    1    1    2    0    0  0.53510962723E+03  0.17026176795E+03 -0.42961870868E+03  0.70703862527E+03  0.00000000000E+00 0. -1.
<mgrwt>
<rscale>  0 0.11567293E+04</rscale>
<asrwt>0</asrwt>
<pdfrwt beam="1">  1        1 0.14497314E+00 0.11567293E+04</pdfrwt>
<pdfrwt beam="2">  1       -1 0.54612139E-01 0.11567293E+04</pdfrwt>
<totfact> 0.56522462E+01</totfact>
</mgrwt>
</event>
<event>
 6    1  0.1072514E-005  0.1393890E+04  0.7818608E-02  0.8958253E-01
         -1   -1    0    0    0  501 -0.00000000000E+00  0.00000000000E+00  0.15006293695E+03  0.15006293695E+03  0.00000000000E+00 0.  1.
          1   -1    0    0  501    0  0.00000000000E+00 -0.00000000000E+00 -0.32368556171E+04  0.32368556171E+04  0.00000000000E+00 0. -1.
         23    2    1    2    0    0  0.52194672652E+03 -0.18897336940E+03 -0.53685499250E+03  0.77725927924E+03  0.88200819369E+02 0.  0.
         13    1    3    3    0    0  0.47869276668E+02 -0.44477307044E+02 -0.47613995169E+02  0.80850423787E+02  0.00000000000E+00 0.  1.
        -13    1    3    3    0    0  0.47407744985E+03 -0.14449606235E+03 -0.48924099733E+03  0.69640885546E+03  0.00000000000E+00 0. -1.
         22    1    1    2    0    0 -0.52194672652E+03  0.18897336940E+03 -0.25499376876E+04  0.26096592748E+04  0.00000000000E+00 0. -1.
<mgrwt>
<rscale>  0 0.13938896E+04</rscale>
<asrwt>0</asrwt>
<pdfrwt beam="1">  1        1 0.49797778E+00 0.13938896E+04</pdfrwt>
<pdfrwt beam="2">  1       -1 0.23086606E-01 0.13938896E+04</pdfrwt>
<totfact> 0.63122437E+00</totfact>
</mgrwt>
</event>
<event>
 6    1  0.1072514E-005  0.3826497E+04  0.7818608E-02  0.8040492E-01
         -1   -1    0    0    0  501 -0.00000000000E+00  0.00000000000E+00  0.19909180845E+04  0.19909180845E+04  0.00000000000E+00 0.  1.
          1   -1    0    0  501    0  0.00000000000E+00 -0.00000000000E+00 -0.18386092164E+04  0.18386092164E+04  0.00000000000E+00 0. -1.
         23    2    1    2    0    0 -0.11742304920E+04 -0.10447255084E+04  0.11660888016E+04  0.19592282900E+04  0.92432478351E+02 0.  0.
         11    1    3    3    0    0 -0.55564667356E+03 -0.55295879646E+03  0.56225831927E+03  0.96469740023E+03  0.00000000000E+00 0. -1.
        -11    1    3    3    0    0 -0.61858381840E+03 -0.49176671193E+03  0.60383048236E+03  0.99453088981E+03  0.00000000000E+00 0.  1.
         22    1    1    2    0    0  0.11742304920E+04  0.10447255084E+04 -0.10137799335E+04  0.18702990108E+04  0.00000000000E+00 0. -1.
<mgrwt>
<rscale>  0 0.38264973E+04</rscale>
<asrwt>0</asrwt>
<pdfrwt beam="1">  1        1 0.28286296E+00 0.38264973E+04</pdfrwt>
<pdfrwt beam="2">  1       -1 0.30629509E+00 0.38264973E+04</pdfrwt>
<totfact> 0.91513167E-02</totfact>
</mgrwt>
</event>
<event>
 6    1  0.1072514E-005  0.4261109E+03  0.7818608E-02  0.1035096E+00
          1   -1    0    0  501    0  0.00000000000E+00  0.00000000000E+00  0.68236404685E+03  0.68236404685E+03  0.00000000000E+00 0.  1.
         -1   -1    0    0    0  501 -0.00000000000E+00 -0.00000000000E+00 -0.66522603886E+02  0.66522603886E+02  0.00000000000E+00 0. -1.
         23    2    1    2    0    0  0.74628319795E+02  0.95302060629E+02  0.34201408960E+02  0.15478480927E+03  0.90203835452E+02 0.  0.
         13    1    3    3    0    0  0.64444057303E+01  0.68676910438E+02  0.42652691181E+02  0.81100557689E+02  0.00000000000E+00 0.  1.
        -13    1    3    3    0    0  0.68183914065E+02  0.26625150192E+02 -0.84512822210E+01  0.73684251581E+02  0.00000000000E+00 0. -1.
         22    1    1    2    0    0 -0.74628319795E+02 -0.95302060629E+02  0.58164003401E+03  0.59410184147E+03  0.00000000000E+00 0.  1.
<mgrwt>
<rscale>  0 0.42611094E+03</rscale>
<asrwt>0</asrwt>
<pdfrwt beam="1">  1        1 0.10497908E+00 0.42611094E+03</pdfrwt>
<pdfrwt beam="2">  1       -1 0.10234247E-01 0.42611094E+03</pdfrwt>
<totfact> 0.17250009E+03</totfact>
</mgrwt>
</event>
<event>
 6    1  0.1072514E-005  0.2853774E+04  0.7818608E-02  0.8286765E-01
          1   -1    0    0  501    0  0.00000000000E+00  0.00000000000E+00  0.30471897493E+04  0.30471897493E+04  0.00000000000E+00 0. -1.
         -1   -1    0    0    0  501 -0.00000000000E+00 -0.00000000000E+00 -0.66815885174E+03  0.66815885174E+03  0.00000000000E+00 0.  1.
         23    2    1    2    0    0  0.38611499487E+03 -0.63605422620E+03 -0.39231982729E+03  0.84584784166E+03  0.88847939991E+02 0.  0.
         13    1    3    3    0    0  0.21335350952E+03 -0.33615433195E+03 -0.25890292718E+03  0.47492123622E+03  0.00000000000E+00 0. -1.
        -13    1    3    3    0    0  0.17276148534E+03 -0.29989989425E+03 -0.13341690010E+03  0.37092660544E+03  0.00000000000E+00 0.  1.
         22    1    1    2    0    0 -0.38611499487E+03  0.63605422620E+03  0.27713507249E+04  0.28695007594E+04  0.00000000000E+00 0. -1.
<mgrwt>
<rscale>  0 0.28537742E+04</rscale>
<asrwt>0</asrwt>
<pdfrwt beam="1">  1        1 0.46879842E+00 0.28537742E+04</pdfrwt>
<pdfrwt beam="2">  1       -1 0.10279367E+00 0.28537742E+04</pdfrwt>
<totfact> 0.42520957E-01</totfact>
</mgrwt>
</event>
<event>
 6    1  0.1072514E-005  0.2364641E+04  0.7818608E-02  0.8452861E-01
          2   -1    0    0  501    0  0.00000000000E+00  0.00000000000E+00  0.18820790303E+04  0.18820790303E+04  0.00000000000E+00 0. -1.
         -2   -1    0    0    0  501 -0.00000000000E+00 -0.00000000000E+00 -0.74273271076E+03  0.74273271076E+03  0.00000000000E+00 0.  1.
         23    2    1    2    0    0  0.22954193724E+03  0.14669672032E+03  0.18456104857E+04  0.18678318859E+04  0.91150755443E+02 0.  0.
         11    1    3    3    0    0  0.12475980642E+03  0.27040507220E+02  0.87970848529E+03  0.88892250361E+03  0.00000000000E+00 0. -1.
        -11    1    3    3    0    0  0.10478213082E+03  0.11965621310E+03  0.96590200041E+03  0.97890938225E+03  0.00000000000E+00 0.  1.
         22    1    1    2    0    0 -0.22954193724E+03 -0.14669672032E+03 -0.70626416619E+03  0.75697985518E+03  0.00000000000E+00 0.  1.
<mgrwt>
<rscale>  0 0.23646409E+04</rscale>
<asrwt>0</asrwt>
<pdfrwt beam="1">  1        2 0.28955062E+00 0.23646409E+04</pdfrwt>
<pdfrwt beam="2">  1       -2 0.11426657E+00 0.23646409E+04</pdfrwt>
<totfact> 0.41967162E+00</totfact>
</mgrwt>
</event>
<event>
 6    1  0.1072514E-005  0.1257379E+04  0.7818608E-02  0.9064064E-01
         -1   -1    0    0    0  501 -0.00000000000E+00  0.00000000000E+00  0.27728942887E+03  0.27728942887E+03  0.00000000000E+00 0.  1.
          1   -1    0    0  501    0  0.00000000000E+00 -0.00000000000E+00 -0.14254084769E+04  0.14254084769E+04  0.00000000000E+00 0. -1.
         23    2    1    2    0    0 -0.18323219561E+03  0.37691363487E+03  0.52057333691E+02  0.43145391939E+03  0.88343607034E+02 0.  0.
         11    1    3    3    0    0 -0.56039998218E+02  0.21258394468E+03  0.38658273676E+02  0.22321934741E+03  0.00000000000E+00 0. -1.
        -11    1    3    3    0    0 -0.12719219739E+03  0.16432969019E+03  0.13399060014E+02  0.20823457197E+03  0.00000000000E+00 0.  1.
         22    1    1    2    0    0  0.18323219561E+03 -0.37691363487E+03 -0.12001763817E+04  0.12712439864E+04  0.00000000000E+00 0. -1.
<mgrwt>
<rscale>  0 0.12573793E+04</rscale>
<asrwt>0</asrwt>
<pdfrwt beam="1">  1        1 0.21929362E+00 0.12573793E+04</pdfrwt>
<pdfrwt beam="2">  1       -1 0.42659911E-01 0.12573793E+04</pdfrwt>
<totfact> 0.39303513E+01</totfact>
</mgrwt>
</event>
<event>
 6    1  0.1072514E-005  0.1905337E+04  0.7818608E-02  0.8652204E-01
          3   -1    0    0  501    0  0.00000000000E+00  0.00000000000E+00  0.16878364965E+04  0.16878364965E+04  0.00000000000E+00 0. -1.
         -3   -1    0    0    0  501 -0.00000000000E+00 -0.00000000000E+00 -0.53771638230E+03  0.53771638230E+03  0.00000000000E+00 0.  1.
         23    2    1    2    0    0 -0.39295686076E+03  0.78396316952E+03  0.14802658268E+03  0.89393551953E+03  0.90528991583E+02 0.  0.
         13    1    3    3    0    0 -0.16645491327E+03  0.40728377253E+03  0.43406226792E+02  0.44212148787E+03  0.00000000000E+00 0. -1.
        -13    1    3    3    0    0 -0.22650194749E+03  0.37667939699E+03  0.10462035589E+03  0.45181403165E+03  0.00000000000E+00 0.  1.
         22    1    1    2    0    0  0.39295686076E+03 -0.78396316952E+03  0.10020935315E+04  0.13316173592E+04  0.00000000000E+00 0. -1.
<mgrwt>
<rscale>  0 0.19053371E+04</rscale>
<asrwt>0</asrwt>
<pdfrwt beam="1">  1        3 0.25966715E+00 0.19053371E+04</pdfrwt>
<pdfrwt beam="2">  1       -3 0.82725598E-01 0.19053371E+04</pdfrwt>
<totfact> 0.21493046E-01</totfact>
</mgrwt>
</event>
<event>
 6    1  0.1072514E-005  0.1911813E+04  0.7818608E-02  0.8648998E-01
         -2   -1    0    0    0  501 -0.00000000000E+00  0.00000000000E+00  0.13595439141E+04  0.13595439141E+04  0.00000000000E+00 0. -1.
          2   -1    0    0  501    0  0.00000000000E+00 -0.00000000000E+00 -0.67210602122E+03  0.67210602122E+03  0.00000000000E+00 0.  1.
         23    2    1    2    0    0 -0.76564916779E+03  0.33210508953E+02 -0.25883542204E+03  0.81396575107E+03  0.90680108980E+02 0.  0.
         13    1    3    3    0    0 -0.27270205203E+03 -0.27273779241E+01 -0.49331818697E+02  0.27714161742E+03  0.00000000000E+00 0. -1.
        -13    1    3    3    0    0 -0.49294711576E+03  0.35937886877E+02 -0.20950360334E+03  0.53682413364E+03  0.00000000000E+00 0.  1.
         22    1    1    2    0    0  0.76564916779E+03 -0.33210508953E+02  0.94627331492E+03  0.12176841842E+04  0.00000000000E+00 0.  1.
<mgrwt>
<rscale>  0 0.19118134E+04</rscale>
<asrwt>0</asrwt>
<pdfrwt beam="1">  1        2 0.10340093E+00 0.19118134E+04</pdfrwt>
<pdfrwt beam="2">  1       -2 0.20916060E+00 0.19118134E+04</pdfrwt>
<totfact> 0.46756135E+00</totfact>
</mgrwt>
</event>
<event>
 6    1  0.1072514E-005  0.2341106E+04  0.7818608E-02  0.8461888E-01
         -2   -1    0    0    0  501 -0.00000000000E+00  0.00000000000E+00  0.85433665986E+03  0.85433665986E+03  0.00000000000E+00 0.  1.
          2   -1    0    0  501    0  0.00000000000E+00 -0.00000000000E+00 -0.16038104307E+04  0.16038104307E+04  0.00000000000E+00 0. -1.
         23    2    1    2    0    0 -0.53332722012E+03 -0.13403257305E+03  0.70782136321E+03  0.90054901593E+03  0.87033289660E+02 0.  0.
         13    1    3    3    0    0 -0.36152110261E+03 -0.12297854552E+03  0.44530783627E+03  0.58661767732E+03  0.00000000000E+00 0.  1.
        -13    1    3    3    0    0 -0.17180611751E+03 -0.11054027535E+02  0.26251352693E+03  0.31393133861E+03  0.00000000000E+00 0. -1.
         22    1    1    2    0    0  0.53332722012E+03  0.13403257305E+03 -0.14572951340E+04  0.15575980746E+04  0.00000000000E+00 0. -1.
<mgrwt>
<rscale>  0 0.23411058E+04</rscale>
<asrwt>0</asrwt>
<pdfrwt beam="1">  1        2 0.24674007E+00 0.23411058E+04</pdfrwt>
<pdfrwt beam="2">  1       -2 0.13143641E+00 0.23411058E+04</pdfrwt>
<totfact> 0.42357430E+00</totfact>
</mgrwt>
</event>
<event>
 6    1  0.1072514E-005  0.3282801E+03  0.7818608E-02  0.1071900E+00
         -1   -1    0    0    0  501 -0.00000000000E+00  0.00000000000E+00  0.26017770151E+02  0.26017770151E+02  0.00000000000E+00 0.  1.
          1   -1    0    0  501    0  0.00000000000E+00 -0.00000000000E+00 -0.10355212338E+04  0.10355212338E+04  0.00000000000E+00 0. -1.
         23    2    1    2    0    0  0.44511501880E+02 -0.99766188330E+02 -0.88127807062E+03  0.89308628788E+03  0.94960590319E+02 0.  0.
         13    1    3    3    0    0 -0.19180153393E+02  0.52063880311E+01 -0.18506261283E+03  0.18612671874E+03  0.00000000000E+00 0.  1.
        -13    1    3    3    0    0  0.63691655273E+02 -0.10497257636E+03 -0.69621545779E+03  0.70695956914E+03  0.00000000000E+00 0. -1.
         22    1    1    2    0    0 -0.44511501880E+02  0.99766188330E+02 -0.12822539303E+03  0.16845271607E+03  0.00000000000E+00 0.  1.
<mgrwt>
<rscale>  0 0.32828008E+03</rscale>
<asrwt>0</asrwt>
<pdfrwt beam="1">  1        1 0.15931091E+00 0.32828008E+03</pdfrwt>
<pdfrwt beam="2">  1       -1 0.40027352E-02 0.32828008E+03</pdfrwt>
<totfact> 0.37049436E+03</totfact>
</mgrwt>
</event>
<event>
 6    1  0.1072514E-005  0.9970747E+03  0.7818608E-02  0.9311759E-01
         -2   -1    0    0    0  501 -0.00000000000E+00  0.00000000000E+00  0.42465048178E+03  0.42465048178E+03  0.00000000000E+00 0.  1.
          2   -1    0    0  501    0  0.00000000000E+00 -0.00000000000E+00 -0.58528011969E+03  0.58528011969E+03  0.00000000000E+00 0. -1.
         23    2    1    2    0    0  0.44315079678E+03  0.13864968727E+03  0.90297497015E+02  0.48213254206E+03  0.93229746779E+02 0.  0.
         13    1    3    3    0    0  0.14421940013E+03  0.91587455704E+02  0.26872889805E+02  0.17294406501E+03  0.00000000000E+00 0. -1.
        -13    1    3    3    0    0  0.29893139665E+03  0.47062231562E+02  0.63424607210E+02  0.30918847705E+03  0.00000000000E+00 0.  1.
         22    1    1    2    0    0 -0.44315079678E+03 -0.13864968727E+03 -0.25092713493E+03  0.52779805941E+03  0.00000000000E+00 0. -1.
<mgrwt>
<rscale>  0 0.99707469E+03</rscale>
<asrwt>0</asrwt>
<pdfrwt beam="1">  1        2 0.90043095E-01 0.99707469E+03</pdfrwt>
<pdfrwt beam="2">  1       -2 0.65330844E-01 0.99707469E+03</pdfrwt>
<totfact> 0.11028110E+02</totfact>
</mgrwt>
</event>
<event>
 6    1  0.1072514E-005  0.1328601E+04  0.7818608E-02  0.9007187E-01
          1   -1    0    0  501    0  0.00000000000E+00  0.00000000000E+00  0.21616500073E+04  0.21616500073E+04  0.00000000000E+00 0. -1.
         -1   -1    0    0    0  501 -0.00000000000E+00 -0.00000000000E+00 -0.20414740874E+03  0.20414740874E+03  0.00000000000E+00 0.  1.
         23    2    1    2    0    0 -0.24351353877E+03 -0.34615739129E+03  0.78507677309E+02  0.43972740246E+03  0.89849596405E+02 0.  0.
         13    1    3    3    0    0 -0.97973582098E+02 -0.12537796608E+03  0.73431467364E+02  0.17524450795E+03  0.00000000000E+00 0. -1.
        -13    1    3    3    0    0 -0.14553995667E+03 -0.22077942521E+03  0.50762099453E+01  0.26448289452E+03  0.00000000000E+00 0.  1.
         22    1    1    2    0    0  0.24351353877E+03  0.34615739129E+03  0.18789949212E+04  0.19260700136E+04  0.00000000000E+00 0. -1.
<mgrwt>
<rscale>  0 0.13286011E+04</rscale>
<asrwt>0</asrwt>
<pdfrwt beam="1">  1        1 0.33256152E+00 0.13286011E+04</pdfrwt>
<pdfrwt beam="2">  1       -1 0.31407295E-01 0.13286011E+04</pdfrwt>
<totfact> 0.21391609E+01</totfact>
</mgrwt>
</event>
<event>
 6    1  0.1072514E-005  0.3487018E+04  0.7818608E-02  0.8116873E-01
         -2   -1    0    0    0  501 -0.00000000000E+00  0.00000000000E+00  0.12176202956E+04  0.12176202956E+04  0.00000000000E+00 0. -1.
          2   -1    0    0  501    0  0.00000000000E+00 -0.00000000000E+00 -0.24965285689E+04  0.24965285689E+04  0.00000000000E+00 0.  1.
         23    2    1    2    0    0 -0.54446451400E+03 -0.76828924927E+03 -0.22013291796E+04  0.23959795637E+04  0.90321288163E+02 0.  0.
         11    1    3    3    0    0 -0.37287541536E+03 -0.58735256651E+03 -0.15734825174E+04  0.17204262103E+04  0.00000000000E+00 0. -1.
        -11    1    3    3    0    0 -0.17158909863E+03 -0.18093668275E+03 -0.62784666221E+03  0.67555335332E+03  0.00000000000E+00 0.  1.
         22    1    1    2    0    0  0.54446451400E+03  0.76828924927E+03  0.92242090626E+03  0.13181693009E+04  0.00000000000E+00 0. -1.
<mgrwt>
<rscale>  0 0.34870181E+04</rscale>
<asrwt>0</asrwt>
<pdfrwt beam="1">  1        2 0.38408132E+00 0.34870181E+04</pdfrwt>
<pdfrwt beam="2">  1       -2 0.18732620E+00 0.34870181E+04</pdfrwt>
<totfact> 0.46474929E-01</totfact>
</mgrwt>
</event>
<event>
 6    1  0.1072514E-005  0.7388520E+03  0.7818608E-02  0.9653004E-01
         -1   -1    0    0    0  501 -0.00000000000E+00  0.00000000000E+00  0.17129251566E+03  0.17129251566E+03  0.00000000000E+00 0.  1.
          1   -1    0    0  501    0  0.00000000000E+00 -0.00000000000E+00 -0.79673974930E+03  0.79673974930E+03  0.00000000000E+00 0. -1.
         23    2    1    2    0    0  0.21227736540E+03 -0.68585319487E+02 -0.69394050497E+03  0.73467212670E+03  0.91782805648E+02 0.  0.
         11    1    3    3    0    0  0.17641815094E+03 -0.68107269964E+02 -0.45016690525E+03  0.48827472470E+03  0.00000000000E+00 0.  1.
        -11    1    3    3    0    0  0.35859214457E+02 -0.47804952264E+00 -0.24377359972E+03  0.24639740200E+03  0.00000000000E+00 0. -1.
         22    1    1    2    0    0 -0.21227736540E+03  0.68585319487E+02  0.68493271326E+02  0.23336013825E+03  0.00000000000E+00 0.  1.
<mgrwt>
<rscale>  0 0.73885196E+03</rscale>
<asrwt>0</asrwt>
<pdfrwt beam="1">  1        1 0.12257535E+00 0.73885196E+03</pdfrwt>
<pdfrwt beam="2">  1       -1 0.26352695E-01 0.73885196E+03</pdfrwt>
<totfact> 0.28773298E+02</totfact>
</mgrwt>
</event>
<event>
 6    1  0.1072514E-005  0.1791343E+04  0.7818608E-02  0.8710917E-01
          2   -1    0    0  501    0  0.00000000000E+00  0.00000000000E+00  0.63030230106E+03  0.63030230106E+03  0.00000000000E+00 0. -1.
         -2   -1    0    0    0  501 -0.00000000000E+00 -0.00000000000E+00 -0.12727665472E+04  0.12727665472E+04  0.00000000000E+00 0.  1.
         23    2    1    2    0    0 -0.55517230002E+02  0.23892675927E+03  0.58872368586E+03  0.64768369500E+03  0.11282921319E+03 0.  0.
         11    1    3    3    0    0 -0.51803713299E+02  0.86497290758E+02  0.35158443096E+03  0.36575540750E+03  0.00000000000E+00 0. -1.
        -11    1    3    3    0    0 -0.37135167031E+01  0.15242946852E+03  0.23713925490E+03  0.28192828750E+03  0.00000000000E+00 0.  1.
         22    1    1    2    0    0  0.55517230002E+02 -0.23892675927E+03 -0.12311879320E+04  0.12553851533E+04  0.00000000000E+00 0.  1.
<mgrwt>
<rscale>  0 0.17913433E+04</rscale>
<asrwt>0</asrwt>
<pdfrwt beam="1">  1        2 0.96969585E-01 0.17913433E+04</pdfrwt>
<pdfrwt beam="2">  1       -2 0.19581024E+00 0.17913433E+04</pdfrwt>
<totfact> 0.62489650E+00</totfact>
</mgrwt>
</event>
<event>
 6    1  0.1072514E-005  0.2666114E+04  0.7818608E-02  0.8346084E-01
          1   -1    0    0  501    0  0.00000000000E+00  0.00000000000E+00  0.28278619998E+04  0.28278619998E+04  0.00000000000E+00 0. -1.
         -1   -1    0    0    0  501 -0.00000000000E+00 -0.00000000000E+00 -0.62840422836E+03  0.62840422836E+03  0.00000000000E+00 0.  1.
         23    2    1    2    0    0 -0.29041833102E+03 -0.11362804688E+04  0.19182679257E+04  0.22502215192E+04  0.90933711846E+02 0.  0.
         11    1    3    3    0    0 -0.20307976787E+03 -0.76490475297E+03  0.13726813150E+04  0.15844793043E+04  0.00000000000E+00 0. -1.
        -11    1    3    3    0    0 -0.87338563158E+02 -0.37137571578E+03  0.54558661071E+03  0.66574221488E+03  0.00000000000E+00 0.  1.
         22    1    1    2    0    0  0.29041833102E+03  0.11362804688E+04  0.28118984573E+03  0.12060447090E+04  0.00000000000E+00 0. -1.
<mgrwt>
<rscale>  0 0.26661136E+04</rscale>
<asrwt>0</asrwt>
<pdfrwt beam="1">  1        1 0.43505569E+00 0.26661136E+04</pdfrwt>
<pdfrwt beam="2">  1       -1 0.96677575E-01 0.26661136E+04</pdfrwt>
<totfact> 0.71720035E-01</totfact>
</mgrwt>
</event>
<event>
 6    1  0.1072514E-005  0.1148770E+04  0.7818608E-02  0.9158919E-01
         -1   -1    0    0    0  501 -0.00000000000E+00  0.00000000000E+00  0.92543894985E+03  0.92543894985E+03  0.00000000000E+00 0.  1.
          1   -1    0    0  501    0  0.00000000000E+00 -0.00000000000E+00 -0.35649903213E+03  0.35649903213E+03  0.00000000000E+00 0. -1.
         23    2    1    2    0    0  0.25044322085E+02  0.45035744473E+03  0.67682334131E+03  0.81816230433E+03  0.88604033647E+02 0.  0.
         11    1    3    3    0    0 -0.27484604613E+02  0.19922991994E+03  0.33555544215E+03  0.39121019830E+03  0.00000000000E+00 0. -1.
        -11    1    3    3    0    0  0.52528926698E+02  0.25112752479E+03  0.34126789916E+03  0.42695210603E+03  0.00000000000E+00 0.  1.
         22    1    1    2    0    0 -0.25044322085E+02 -0.45035744473E+03 -0.10788342360E+03  0.46377567766E+03  0.00000000000E+00 0. -1.
<mgrwt>
<rscale>  0 0.11487699E+04</rscale>
<asrwt>0</asrwt>
<pdfrwt beam="1">  1        1 0.54846005E-01 0.11487699E+04</pdfrwt>
<pdfrwt beam="2">  1       -1 0.14237522E+00 0.11487699E+04</pdfrwt>
<totfact> 0.27847063E+01</totfact>
</mgrwt>
</event>
<event>
 6    1  0.1072514E-005  0.1358547E+04  0.7818608E-02  0.8984384E-01
          1   -1    0    0  501    0  0.00000000000E+00  0.00000000000E+00  0.75794935235E+03  0.75794935235E+03  0.00000000000E+00 0. -1.
         -1   -1    0    0    0  501 -0.00000000000E+00 -0.00000000000E+00 -0.60876385759E+03  0.60876385759E+03  0.00000000000E+00 0.  1.
         23    2    1    2    0    0  0.42406197567E+03 -0.33322412445E+03 -0.33563450696E+03  0.64151164459E+03  0.89553288906E+02 0.  0.
         13    1    3    3    0    0  0.64487419282E+02 -0.15824791844E+02 -0.51633469287E+02  0.84113414109E+02  0.00000000000E+00 0. -1.
        -13    1    3    3    0    0  0.35957455639E+03 -0.31739933260E+03 -0.28400103767E+03  0.55739823048E+03  0.00000000000E+00 0.  1.
         22    1    1    2    0    0 -0.42406197567E+03  0.33322412445E+03  0.48482000172E+03  0.72520156535E+03  0.00000000000E+00 0. -1.
<mgrwt>
<rscale>  0 0.13585465E+04</rscale>
<asrwt>0</asrwt>
<pdfrwt beam="1">  1        1 0.11660759E+00 0.13585465E+04</pdfrwt>
<pdfrwt beam="2">  1       -1 0.93655979E-01 0.13585465E+04</pdfrwt>
<totfact> 0.26064841E+01</totfact>
</mgrwt>
</event>
<event>
 6    1  0.1072514E-005  0.3777324E+04  0.7818608E-02  0.8051039E-01
         -2   -1    0    0    0  501 -0.00000000000E+00  0.00000000000E+00  0.15618220486E+04  0.15618220486E+04  0.00000000000E+00 0.  1.
          2   -1    0    0  501    0  0.00000000000E+00 -0.00000000000E+00 -0.22838997283E+04  0.22838997283E+04  0.00000000000E+00 0. -1.
         23    2    1    2    0    0  0.42366371064E+03  0.16590971129E+04 -0.11697756512E+04  0.20758269654E+04  0.92673332113E+02 0.  0.
         13    1    3    3    0    0  0.11491251801E+03  0.52550328075E+03 -0.41480261227E+03  0.67927887647E+03  0.00000000000E+00 0. -1.
        -13    1    3    3    0    0  0.30875119263E+03  0.11335938322E+04 -0.75497303893E+03  0.13965480890E+04  0.00000000000E+00 0.  1.
         22    1    1    2    0    0 -0.42366371064E+03 -0.16590971129E+04  0.44769797150E+03  0.17698948114E+04  0.00000000000E+00 0.  1.
<mgrwt>
<rscale>  0 0.37773244E+04</rscale>
<asrwt>0</asrwt>
<pdfrwt beam="1">  1        2 0.35136919E+00 0.37773244E+04</pdfrwt>
<pdfrwt beam="2">  1       -2 0.24028032E+00 0.37773244E+04</pdfrwt>
<totfact> 0.27442086E-01</totfact>
</mgrwt>
</event>
<event>
 6    1  0.1072514E-005  0.1488703E+04  0.7818608E-02  0.8892000E-01
         -1   -1    0    0    0  501 -0.00000000000E+00  0.00000000000E+00  0.13345318166E+04  0.13345318166E+04  0.00000000000E+00 0.  1.
          1   -1    0    0  501    0  0.00000000000E+00 -0.00000000000E+00 -0.41517120770E+03  0.41517120770E+03  0.00000000000E+00 0. -1.
         23    2    1    2    0    0  0.49135591960E+03  0.15150222444E+03  0.10895382490E+04  0.12080906232E+04  0.89475104062E+02 0.  0.
         13    1    3    3    0    0  0.26077193919E+02  0.12630519798E+02  0.12392817331E+03  0.12727035088E+03  0.00000000000E+00 0.  1.
        -13    1    3    3    0    0  0.46527872568E+03  0.13887170464E+03  0.96561007566E+03  0.10808202724E+04  0.00000000000E+00 0. -1.
         22    1    1    2    0    0 -0.49135591960E+03 -0.15150222444E+03 -0.17017764011E+03  0.54161240101E+03  0.00000000000E+00 0. -1.
<mgrwt>
<rscale>  0 0.14887030E+04</rscale>
<asrwt>0</asrwt>
<pdfrwt beam="1">  1        1 0.63872494E-01 0.14887030E+04</pdfrwt>
<pdfrwt beam="2">  1       -1 0.20531258E+00 0.14887030E+04</pdfrwt>
<totfact> 0.76465147E+00</totfact>
</mgrwt>
</event>
<event>
 6    1  0.1072514E-005  0.5615712E+03  0.7818608E-02  0.9988506E-01
          2   -1    0    0  501    0  0.00000000000E+00  0.00000000000E+00  0.57711998367E+03  0.57711998367E+03  0.00000000000E+00 0. -1.
         -2   -1    0    0    0  501 -0.00000000000E+00 -0.00000000000E+00 -0.13661031365E+03  0.13661031365E+03  0.00000000000E+00 0.  1.
         23    2    1    2    0    0  0.15220308703E+03  0.19607678502E+03  0.37148355539E+03  0.45609394541E+03  0.91704796960E+02 0.  0.
         11    1    3    3    0    0  0.15180801193E+03  0.13516335357E+03  0.29658479801E+03  0.35955159163E+03  0.00000000000E+00 0.  1.
        -11    1    3    3    0    0  0.39507510101E+00  0.60913431449E+02  0.74898757386E+02  0.96542353779E+02  0.00000000000E+00 0. -1.
         22    1    1    2    0    0 -0.15220308703E+03 -0.19607678502E+03  0.69026114630E+02  0.25763635191E+03  0.00000000000E+00 0. -1.
<mgrwt>
<rscale>  0 0.56157116E+03</rscale>
<asrwt>0</asrwt>
<pdfrwt beam="1">  1        2 0.88787689E-01 0.56157116E+03</pdfrwt>
<pdfrwt beam="2">  1       -2 0.21016972E-01 0.56157116E+03</pdfrwt>
<totfact> 0.10196312E+03</totfact>
</mgrwt>
</event>
<event>
 6    1  0.1072514E-005  0.2889956E+04  0.7818608E-02  0.8275872E-01
         -2   -1    0    0    0  501 -0.00000000000E+00  0.00000000000E+00  0.81338340474E+03  0.81338340474E+03  0.00000000000E+00 0.  1.
          2   -1    0    0  501    0  0.00000000000E+00 -0.00000000000E+00 -0.25670079822E+04  0.25670079822E+04  0.00000000000E+00 0. -1.
         23    2    1    2    0    0 -0.12162806330E+04  0.13100848931E+03  0.18827988024E+02  0.12267688807E+04  0.90031055356E+02 0.  0.
         11    1    3    3    0    0 -0.95405102106E+03  0.65743344716E+02  0.88174476034E+01  0.95635416323E+03  0.00000000000E+00 0. -1.
        -11    1    3    3    0    0 -0.26222961197E+03  0.65265144589E+02  0.10010540421E+02  0.27041471745E+03  0.00000000000E+00 0.  1.
         22    1    1    2    0    0  0.12162806330E+04 -0.13100848931E+03 -0.17724525655E+04  0.21536225063E+04  0.00000000000E+00 0. -1.
<mgrwt>
<rscale>  0 0.28899562E+04</rscale>
<asrwt>0</asrwt>
<pdfrwt beam="1">  1        2 0.39492431E+00 0.28899562E+04</pdfrwt>
<pdfrwt beam="2">  1       -2 0.12513591E+00 0.28899562E+04</pdfrwt>
<totfact> 0.13138634E+00</totfact>
</mgrwt>
</event>
<event>
 6    1  0.1072514E-005  0.1023300E+04  0.7818608E-02  0.9283353E-01
          2   -1    0    0  501    0  0.00000000000E+00  0.00000000000E+00  0.62575734786E+03  0.62575734786E+03  0.00000000000E+00 0. -1.
         -2   -1    0    0    0  501 -0.00000000000E+00 -0.00000000000E+00 -0.41834997082E+03  0.41834997082E+03  0.00000000000E+00 0.  1.
         23    2    1    2    0    0 -0.32739794825E+03 -0.54447285753E+02 -0.28729168618E+03  0.44838835255E+03  0.91442212941E+02 0.  0.
         13    1    3    3    0    0 -0.23274254563E+03  0.35522004411E+00 -0.17148498598E+03  0.28909569202E+03  0.00000000000E+00 0. -1.
        -13    1    3    3    0    0 -0.94655402621E+02 -0.54802505797E+02 -0.11580670020E+03  0.15929266053E+03  0.00000000000E+00 0.  1.
         22    1    1    2    0    0  0.32739794825E+03  0.54447285753E+02  0.49469906322E+03  0.59571896612E+03  0.00000000000E+00 0. -1.
<mgrwt>
<rscale>  0 0.10232997E+04</rscale>
<asrwt>0</asrwt>
<pdfrwt beam="1">  1        2 0.96270361E-01 0.10232997E+04</pdfrwt>
<pdfrwt beam="2">  1       -2 0.64361534E-01 0.10232997E+04</pdfrwt>
<totfact> 0.10484631E+02</totfact>
</mgrwt>
</event>
<event>
 6    1  0.1072514E-005  0.1056093E+04  0.7818608E-02  0.9249076E-01
          1   -1    0    0  501    0  0.00000000000E+00  0.00000000000E+00  0.16869577560E+04  0.16869577560E+04  0.00000000000E+00 0. -1.
         -1   -1    0    0    0  501 -0.00000000000E+00 -0.00000000000E+00 -0.16528766661E+03  0.16528766661E+03  0.00000000000E+00 0.  1.
         23    2    1    2    0    0 -0.12727072615E+02 -0.14974229280E+03  0.16471585533E+04  0.16564596028E+04  0.90235156531E+02 0.  0.
         11    1    3    3    0    0 -0.31297148673E+02 -0.10480180886E+03  0.14172953423E+04  0.14215094153E+04  0.00000000000E+00 0.  1.
        -11    1    3    3    0    0  0.18570076058E+02 -0.44940483942E+02  0.22986321105E+03  0.23495018752E+03  0.00000000000E+00 0. -1.
         22    1    1    2    0    0  0.12727072615E+02  0.14974229280E+03 -0.12548846394E+03  0.19578581974E+03  0.00000000000E+00 0.  1.
<mgrwt>
<rscale>  0 0.10560934E+04</rscale>
<asrwt>0</asrwt>
<pdfrwt beam="1">  1        1 0.25953195E+00 0.10560934E+04</pdfrwt>
<pdfrwt beam="2">  1       -1 0.25428873E-01 0.10560934E+04</pdfrwt>
<totfact> 0.66183520E+01</totfact>
</mgrwt>
</event>
<event>
 6    1  0.1072514E-005  0.6963291E+03  0.7818608E-02  0.9723531E-01
         -1   -1    0    0    0  501 -0.00000000000E+00  0.00000000000E+00  0.56765829311E+03  0.56765829311E+03  0.00000000000E+00 0.  1.
          1   -1    0    0  501    0  0.00000000000E+00 -0.00000000000E+00 -0.21354139552E+03  0.21354139552E+03  0.00000000000E+00 0. -1.
         23    2    1    2    0    0 -0.34191096155E+03 -0.94676697502E+01  0.17092290539E+03  0.39318837284E+03  0.91595384951E+02 0.  0.
         11    1    3    3    0    0 -0.13280928504E+03 -0.29540022441E+02  0.10857729752E+03  0.17406880437E+03  0.00000000000E+00 0.  1.
        -11    1    3    3    0    0 -0.20910167651E+03  0.20072352691E+02  0.62345607875E+02  0.21911956847E+03  0.00000000000E+00 0. -1.
         22    1    1    2    0    0  0.34191096155E+03  0.94676697502E+01  0.18319399220E+03  0.38801131579E+03  0.00000000000E+00 0.  1.
<mgrwt>
<rscale>  0 0.69632907E+03</rscale>
<asrwt>0</asrwt>
<pdfrwt beam="1">  1        1 0.32852523E-01 0.69632907E+03</pdfrwt>
<pdfrwt beam="2">  1       -1 0.87332045E-01 0.69632907E+03</pdfrwt>
<totfact> 0.17896336E+02</totfact>
</mgrwt>
</event>
<event>
 6    1  0.1072514E-005  0.2617475E+04  0.7818608E-02  0.8362290E-01
          2   -1    0    0  501    0  0.00000000000E+00  0.00000000000E+00  0.25992894196E+04  0.25992894196E+04  0.00000000000E+00 0. -1.
         -2   -1    0    0    0  501 -0.00000000000E+00 -0.00000000000E+00 -0.65894678732E+03  0.65894678732E+03  0.00000000000E+00 0.  1.
         23    2    1    2    0    0 -0.49559828290E+03  0.11210654686E+04  0.40630478833E+03  0.12946482793E+04  0.92871648558E+02 0.  0.
         11    1    3    3    0    0 -0.30041502380E+03  0.71820987160E+03  0.21356525222E+03  0.80726991963E+03  0.00000000000E+00 0. -1.
        -11    1    3    3    0    0 -0.19518325910E+03  0.40285559701E+03  0.19273953611E+03  0.48737835965E+03  0.00000000000E+00 0.  1.
         22    1    1    2    0    0  0.49559828290E+03 -0.11210654686E+04  0.15340378440E+04  0.19635879277E+04  0.00000000000E+00 0. -1.
<mgrwt>
<rscale>  0 0.26174747E+04</rscale>
<asrwt>0</asrwt>
<pdfrwt beam="1">  1        2 0.39989068E+00 0.26174747E+04</pdfrwt>
<pdfrwt beam="2">  1       -2 0.10137643E+00 0.26174747E+04</pdfrwt>
<totfact> 0.21508093E+00</totfact>
</mgrwt>
</event>
<event>
 6    1  0.1072514E-005  0.3905082E+04  0.7818608E-02  0.8023973E-01
         -2   -1    0    0    0  501 -0.00000000000E+00  0.00000000000E+00  0.30786308437E+04  0.30786308437E+04  0.00000000000E+00 0.  1.
          2   -1    0    0  501    0  0.00000000000E+00 -0.00000000000E+00 -0.12383480407E+04  0.12383480407E+04  0.00000000000E+00 0. -1.
         23    2    1    2    0    0 -0.41294806298E+03  0.67845506089E+03  0.28912185293E+04  0.29996735769E+04  0.89831016675E+02 0.  0.
         11    1    3    3    0    0 -0.27567664442E+03  0.50545668131E+03  0.19745144897E+04  0.20567429444E+04  0.00000000000E+00 0. -1.
        -11    1    3    3    0    0 -0.13727141855E+03  0.17299837958E+03  0.91670403953E+03  0.94293063254E+03  0.00000000000E+00 0.  1.
         22    1    1    2    0    0  0.41294806298E+03 -0.67845506089E+03 -0.10509357263E+04  0.13173053075E+04  0.00000000000E+00 0. -1.
<mgrwt>
<rscale>  0 0.39050821E+04</rscale>
<asrwt>0</asrwt>
<pdfrwt beam="1">  1        2 0.19051508E+00 0.39050821E+04</pdfrwt>
<pdfrwt beam="2">  1       -2 0.47363551E+00 0.39050821E+04</pdfrwt>
<totfact> 0.34691071E-02</totfact>
</mgrwt>
</event>
<event>
 6    1  0.1072514E-005  0.1539008E+04  0.7818608E-02  0.8858920E-01
          2   -1    0    0  501    0  0.00000000000E+00  0.00000000000E+00  0.24935290050E+04  0.24935290050E+04  0.00000000000E+00 0. -1.
         -2   -1    0    0    0  501 -0.00000000000E+00 -0.00000000000E+00 -0.23746912951E+03  0.23746912951E+03  0.00000000000E+00 0.  1.
         23    2    1    2    0    0  0.18508559183E+03  0.73555806206E+03  0.13359305454E+04  0.15385467422E+04  0.84340481076E+02 0.  0.
         11    1    3    3    0    0  0.11943760205E+03  0.51465946776E+03  0.10029533396E+04  0.11336027125E+04  0.00000000000E+00 0. -1.
        -11    1    3    3    0    0  0.65647989780E+02  0.22089859430E+03  0.33297720581E+03  0.40494402961E+03  0.00000000000E+00 0.  1.
         22    1    1    2    0    0 -0.18508559183E+03 -0.73555806206E+03  0.92012933008E+03  0.11924513923E+04  0.00000000000E+00 0.  1.
<mgrwt>
<rscale>  0 0.15390077E+04</rscale>
<asrwt>0</asrwt>
<pdfrwt beam="1">  1        2 0.38361983E+00 0.15390077E+04</pdfrwt>
<pdfrwt beam="2">  1       -2 0.36533714E-01 0.15390077E+04</pdfrwt>
<totfact> 0.23922178E+01</totfact>
</mgrwt>
</event>
<event>
 6    1  0.1072514E-005  0.1986815E+04  0.7818608E-02  0.8612810E-01
          1   -1    0    0  501    0  0.00000000000E+00  0.00000000000E+00  0.13093723157E+04  0.13093723157E+04  0.00000000000E+00 0. -1.
         -1   -1    0    0    0  501 -0.00000000000E+00 -0.00000000000E+00 -0.75368792668E+03  0.75368792668E+03  0.00000000000E+00 0.  1.
         23    2    1    2    0    0  0.67645805100E+03  0.44736876933E+03  0.87119673348E+03  0.11928405287E+04  0.78424918499E+02 0.  0.
         13    1    3    3    0    0  0.26818135542E+03  0.13240743735E+03  0.32672970687E+03  0.44295064083E+03  0.00000000000E+00 0.  1.
        -13    1    3    3    0    0  0.40827669558E+03  0.31496133198E+03  0.54446702661E+03  0.74988988783E+03  0.00000000000E+00 0. -1.
         22    1    1    2    0    0 -0.67645805100E+03 -0.44736876933E+03 -0.31551234451E+03  0.87021971368E+03  0.00000000000E+00 0.  1.
<mgrwt>
<rscale>  0 0.19868146E+04</rscale>
<asrwt>0</asrwt>
<pdfrwt beam="1">  1        1 0.20144189E+00 0.19868146E+04</pdfrwt>
<pdfrwt beam="2">  1       -1 0.11595199E+00 0.19868146E+04</pdfrwt>
<totfact> 0.55667471E+00</totfact>
</mgrwt>
</event>
<event>
 6    1  0.1072514E-005  0.3061774E+04  0.7818608E-02  0.8226308E-01
          2   -1    0    0  501    0  0.00000000000E+00  0.00000000000E+00  0.11528636833E+04  0.11528636833E+04  0.00000000000E+00 0. -1.
         -2   -1    0    0    0  501 -0.00000000000E+00 -0.00000000000E+00 -0.20328632993E+04  0.20328632993E+04  0.00000000000E+00 0.  1.
         23    2    1    2    0    0 -0.71329820268E+03  0.13196513305E+04 -0.75089185562E+03  0.16800899832E+04  0.92681243377E+02 0.  0.
         13    1    3    3    0    0 -0.34668488316E+03  0.56267233438E+03 -0.30056424369E+03  0.72603679568E+03  0.00000000000E+00 0. -1.
        -13    1    3    3    0    0 -0.36661331952E+03  0.75697899613E+03 -0.45032761194E+03  0.95405318756E+03  0.00000000000E+00 0.  1.
         22    1    1    2    0    0  0.71329820268E+03 -0.13196513305E+04 -0.12910776033E+03  0.15056369994E+04  0.00000000000E+00 0. -1.
<mgrwt>
<rscale>  0 0.30617735E+04</rscale>
<asrwt>0</asrwt>
<pdfrwt beam="1">  1        2 0.17736365E+00 0.30617735E+04</pdfrwt>
<pdfrwt beam="2">  1       -2 0.31274820E+00 0.30617735E+04</pdfrwt>
<totfact> 0.45704342E-01</totfact>
</mgrwt>
</event>
<event>
 6    1  0.1072514E-005  0.4448155E+04  0.7818608E-02  0.7919777E-01
         -4   -1    0    0    0  501 -0.00000000000E+00  0.00000000000E+00  0.32277413980E+04  0.32277413980E+04  0.00000000000E+00 0.  1.
          4   -1    0    0  501    0  0.00000000000E+00 -0.00000000000E+00 -0.15325024751E+04  0.15325024751E+04  0.00000000000E+00 0. -1.
         23    2    1    2    0    0  0.13772247827E+04  0.13667997702E+04 -0.31345577284E+03  0.19674416791E+04  0.87650015179E+02 0.  0.
         11    1    3    3    0    0  0.11914089691E+04  0.11382433823E+04 -0.26809679947E+03  0.16694098427E+04  0.00000000000E+00 0. -1.
        -11    1    3    3    0    0  0.18581581361E+03  0.22855638793E+03 -0.45358973368E+02  0.29803183641E+03  0.00000000000E+00 0.  1.
         22    1    1    2    0    0 -0.13772247827E+04 -0.13667997702E+04  0.20086946958E+04  0.27928021940E+04  0.00000000000E+00 0.  1.
<mgrwt>
<rscale>  0 0.44481554E+04</rscale>
<asrwt>0</asrwt>
<pdfrwt beam="1">  1        4 0.23576961E+00 0.44481554E+04</pdfrwt>
<pdfrwt beam="2">  1       -4 0.49657560E+00 0.44481554E+04</pdfrwt>
<totfact> 0.14730674E-04</totfact>
</mgrwt>
</event>
<event>
 6    1  0.1072514E-005  0.3379898E+03  0.7818608E-02  0.1067655E+00
          2   -1    0    0  501    0  0.00000000000E+00  0.00000000000E+00  0.23298944193E+04  0.23298944193E+04  0.00000000000E+00 0. -1.
         -2   -1    0    0    0  501 -0.00000000000E+00 -0.00000000000E+00 -0.12257758848E+02  0.12257758848E+02  0.00000000000E+00 0.  1.
         23    2    1    2    0    0 -0.18199389929E+02 -0.13672338205E+03  0.17579211076E+04  0.17656922913E+04  0.91422897311E+02 0.  0.
         11    1    3    3    0    0  0.34496824920E+01 -0.13762945119E+03  0.13024306359E+04  0.13096867287E+04  0.00000000000E+00 0. -1.
        -11    1    3    3    0    0 -0.21649072421E+02  0.90606913799E+00  0.45549047176E+03  0.45600556264E+03  0.00000000000E+00 0.  1.
         22    1    1    2    0    0  0.18199389929E+02  0.13672338205E+03  0.55971555281E+03  0.57645988677E+03  0.00000000000E+00 0.  1.
<mgrwt>
<rscale>  0 0.33798985E+03</rscale>
<asrwt>0</asrwt>
<pdfrwt beam="1">  1        2 0.35844494E+00 0.33798985E+03</pdfrwt>
<pdfrwt beam="2">  1       -2 0.18858109E-02 0.33798985E+03</pdfrwt>
<totfact> 0.41728942E+03</totfact>
</mgrwt>
</event>
<event>
 6    1  0.1072514E-005  0.1146475E+04  0.7818608E-02  0.9161041E-01
          2   -1    0    0  501    0  0.00000000000E+00  0.00000000000E+00  0.31241029780E+04  0.31241029780E+04  0.00000000000E+00 0. -1.
         -2   -1    0    0    0  501 -0.00000000000E+00 -0.00000000000E+00 -0.10518266625E+03  0.10518266625E+03  0.00000000000E+00 0.  1.
         23    2    1    2    0    0  0.19926807771E+03  0.41991758475E+03  0.24460638530E+04  0.24915844398E+04  0.93413611058E+02 0.  0.
         13    1    3    3    0    0  0.99737624012E+02  0.25560369848E+03  0.12128719223E+04  0.12435188556E+04  0.00000000000E+00 0. -1.
        -13    1    3    3    0    0  0.99530453701E+02  0.16431388627E+03  0.12331919307E+04  0.12480655842E+04  0.00000000000E+00 0.  1.
         22    1    1    2    0    0 -0.19926807771E+03 -0.41991758475E+03  0.57285645873E+03  0.73770120448E+03  0.00000000000E+00 0.  1.
<mgrwt>
<rscale>  0 0.11464754E+04</rscale>
<asrwt>0</asrwt>
<pdfrwt beam="1">  1        2 0.48063116E+00 0.11464754E+04</pdfrwt>
<pdfrwt beam="2">  1       -2 0.16181951E-01 0.11464754E+04</pdfrwt>
<totfact> 0.45243572E+01</totfact>
</mgrwt>
</event>
<event>
 6    1  0.1072514E-005  0.3355742E+04  0.7818608E-02  0.8148855E-01
         -1   -1    0    0    0  501 -0.00000000000E+00  0.00000000000E+00  0.65292112926E+03  0.65292112926E+03  0.00000000000E+00 0.  1.
          1   -1    0    0  501    0  0.00000000000E+00 -0.00000000000E+00 -0.43117793238E+04  0.43117793238E+04  0.00000000000E+00 0. -1.
         23    2    1    2    0    0  0.95562250849E+03  0.13690697769E+04 -0.20590625793E+04  0.26523612817E+04  0.87836385565E+02 0.  0.
         13    1    3    3    0    0  0.31981284379E+03  0.52744947673E+03 -0.78364515631E+03  0.99728779024E+03  0.00000000000E+00 0. -1.
        -13    1    3    3    0    0  0.63580966470E+03  0.84162030015E+03 -0.12754174230E+04  0.16550734915E+04  0.00000000000E+00 0.  1.
         22    1    1    2    0    0 -0.95562250849E+03 -0.13690697769E+04 -0.15997956152E+04  0.23123391713E+04  0.00000000000E+00 0. -1.
<mgrwt>
<rscale>  0 0.33557424E+04</rscale>
<asrwt>0</asrwt>
<pdfrwt beam="1">  1        1 0.66335065E+00 0.33557424E+04</pdfrwt>
<pdfrwt beam="2">  1       -1 0.10044941E+00 0.33557424E+04</pdfrwt>
<totfact> 0.38510127E-02</totfact>
</mgrwt>
</event>
<event>
 6    1  0.1072514E-005  0.1455249E+04  0.7818608E-02  0.8914769E-01
          3   -1    0    0  501    0  0.00000000000E+00  0.00000000000E+00  0.57880384684E+03  0.57880384684E+03  0.00000000000E+00 0. -1.
         -3   -1    0    0    0  501 -0.00000000000E+00 -0.00000000000E+00 -0.91470987894E+03  0.91470987894E+03  0.00000000000E+00 0.  1.
         23    2    1    2    0    0 -0.50584314067E+03  0.21061030206E+03 -0.65596607959E+03  0.85894898023E+03  0.85251807990E+02 0.  0.
         11    1    3    3    0    0 -0.32316904213E+03  0.89835930293E+02 -0.38824369555E+03  0.51307103923E+03  0.00000000000E+00 0.  1.
        -11    1    3    3    0    0 -0.18267409854E+03  0.12077437176E+03 -0.26772238405E+03  0.34587794100E+03  0.00000000000E+00 0. -1.
         22    1    1    2    0    0  0.50584314067E+03 -0.21061030206E+03  0.32006004749E+03  0.63456474555E+03  0.00000000000E+00 0. -1.
<mgrwt>
<rscale>  0 0.14552493E+04</rscale>
<asrwt>0</asrwt>
<pdfrwt beam="1">  1        3 0.89046746E-01 0.14552493E+04</pdfrwt>
<pdfrwt beam="2">  1       -3 0.14072460E+00 0.14552493E+04</pdfrwt>
<totfact> 0.11033846E+00</totfact>
</mgrwt>
</event>
<event>
 6    1  0.1072514E-005  0.4124306E+04  0.7818608E-02  0.7979929E-01
          2   -1    0    0  501    0  0.00000000000E+00  0.00000000000E+00  0.22023530780E+04  0.22023530780E+04  0.00000000000E+00 0. -1.
         -2   -1    0    0    0  501 -0.00000000000E+00 -0.00000000000E+00 -0.19308777705E+04  0.19308777705E+04  0.00000000000E+00 0.  1.
         23    2    1    2    0    0 -0.19770925943E+04  0.19416984811E+03  0.68634962031E+03  0.21037684192E+04  0.90380882328E+02 0.  0.
         13    1    3    3    0    0 -0.13016193460E+04  0.11078686199E+03  0.49273767114E+03  0.13961651275E+04  0.00000000000E+00 0.  1.
        -13    1    3    3    0    0 -0.67547324830E+03  0.83382986117E+02  0.19361194916E+03  0.70760329168E+03  0.00000000000E+00 0. -1.
         22    1    1    2    0    0  0.19770925943E+04 -0.19416984811E+03 -0.41487431274E+03  0.20294624293E+04  0.00000000000E+00 0.  1.
<mgrwt>
<rscale>  0 0.41243058E+04</rscale>
<asrwt>0</asrwt>
<pdfrwt beam="1">  1        2 0.33882355E+00 0.41243058E+04</pdfrwt>
<pdfrwt beam="2">  1       -2 0.29705812E+00 0.41243058E+04</pdfrwt>
<totfact> 0.13320863E-01</totfact>
</mgrwt>
</event>
<event>
 6    1  0.2158513E-005  0.2858428E+04  0.7818608E-02  0.8285355E-01
         -2   -1    0    0    0  501 -0.00000000000E+00  0.00000000000E+00  0.85498300833E+03  0.85498300833E+03  0.00000000000E+00 0.  1.
          2   -1    0    0  501    0  0.00000000000E+00 -0.00000000000E+00 -0.23891153093E+04  0.23891153093E+04  0.00000000000E+00 0. -1.
         23    2    1    2    0    0  0.25006256360E+03  0.67157889554E+03  0.63364458085E+03  0.96094126916E+03  0.91395674264E+02 0.  0.
         13    1    3    3    0    0  0.13088489175E+03  0.42228549981E+03  0.43832024283E+03  0.62255966261E+03  0.00000000000E+00 0.  1.
        -13    1    3    3    0    0  0.11917767185E+03  0.24929339574E+03  0.19532433802E+03  0.33838160654E+03  0.00000000000E+00 0. -1.
         22    1    1    2    0    0 -0.25006256360E+03 -0.67157889554E+03 -0.21677768818E+04  0.22831570484E+04  0.00000000000E+00 0. -1.
<mgrwt>
<rscale>  0 0.28584282E+04</rscale>
<asrwt>0</asrwt>
<pdfrwt beam="1">  1        2 0.36755621E+00 0.28584282E+04</pdfrwt>
<pdfrwt beam="2">  1       -2 0.13153585E+00 0.28584282E+04</pdfrwt>
<totfact> 0.14720682E+00</totfact>
</mgrwt>
</event>
<event>
 6    1  0.1072514E-005  0.1333045E+04  0.7818608E-02  0.9003763E-01
         -2   -1    0    0    0  501 -0.00000000000E+00  0.00000000000E+00  0.34016033246E+03  0.34016033246E+03  0.00000000000E+00 0.  1.
          2   -1    0    0  501    0  0.00000000000E+00 -0.00000000000E+00 -0.13060088611E+04  0.13060088611E+04  0.00000000000E+00 0. -1.
         23    2    1    2    0    0  0.42124971108E+03  0.18462660079E+03  0.10584041188E+03  0.47995502539E+03  0.87271603650E+02 0.  0.
         11    1    3    3    0    0  0.27234687083E+03  0.98034468955E+02  0.10437740916E+03  0.30769825917E+03  0.00000000000E+00 0. -1.
        -11    1    3    3    0    0  0.14890284025E+03  0.86592131840E+02  0.14630027194E+01  0.17225676622E+03  0.00000000000E+00 0.  1.
         22    1    1    2    0    0 -0.42124971108E+03 -0.18462660079E+03 -0.10716889405E+04  0.11662141681E+04  0.00000000000E+00 0. -1.
<mgrwt>
<rscale>  0 0.13330452E+04</rscale>
<asrwt>0</asrwt>
<pdfrwt beam="1">  1        2 0.20092444E+00 0.13330452E+04</pdfrwt>
<pdfrwt beam="2">  1       -2 0.52332360E-01 0.13330452E+04</pdfrwt>
<totfact> 0.55254853E+01</totfact>
</mgrwt>
</event>
<event>
 6    1  0.1072514E-005  0.1620064E+04  0.7818608E-02  0.8808316E-01
          1   -1    0    0  501    0  0.00000000000E+00  0.00000000000E+00  0.58329896867E+03  0.58329896867E+03  0.00000000000E+00 0. -1.
         -1   -1    0    0    0  501 -0.00000000000E+00 -0.00000000000E+00 -0.11248979662E+04  0.11248979662E+04  0.00000000000E+00 0.  1.
         23    2    1    2    0    0  0.21428594724E+00  0.46833133611E+03  0.42191817085E+03  0.63688949998E+03  0.90989043174E+02 0.  0.
         11    1    3    3    0    0 -0.15531565500E+02  0.39722938914E+03  0.39156523850E+03  0.55799261028E+03  0.00000000000E+00 0. -1.
        -11    1    3    3    0    0  0.15745851447E+02  0.71101946977E+02  0.30352932352E+02  0.78896889699E+02  0.00000000000E+00 0.  1.
         22    1    1    2    0    0 -0.21428594724E+00 -0.46833133611E+03 -0.96351716841E+03  0.10713074349E+04  0.00000000000E+00 0.  1.
<mgrwt>
<rscale>  0 0.16200640E+04</rscale>
<asrwt>0</asrwt>
<pdfrwt beam="1">  1        1 0.89738303E-01 0.16200640E+04</pdfrwt>
<pdfrwt beam="2">  1       -1 0.17306123E+00 0.16200640E+04</pdfrwt>
<totfact> 0.79843680E+00</totfact>
</mgrwt>
</event>
<event>
 6    1  0.1072514E-005  0.3534794E+04  0.7818608E-02  0.8105593E-01
         -2   -1    0    0    0  501 -0.00000000000E+00  0.00000000000E+00  0.14046201039E+04  0.14046201039E+04  0.00000000000E+00 0. -1.
          2   -1    0    0  501    0  0.00000000000E+00 -0.00000000000E+00 -0.22238696115E+04  0.22238696115E+04  0.00000000000E+00 0.  1.
         23    2    1    2    0    0  0.63345403081E+02 -0.14554260723E+04 -0.14349706186E+04  0.20469113334E+04  0.91802171165E+02 0.  0.
         13    1    3    3    0    0  0.81893652771E+02 -0.12639695299E+04 -0.12670352277E+04  0.17915646266E+04  0.00000000000E+00 0. -1.
        -13    1    3    3    0    0 -0.18548249690E+02 -0.19145654235E+03 -0.16793539089E+03  0.25534670683E+03  0.00000000000E+00 0.  1.
         22    1    1    2    0    0 -0.63345403081E+02  0.14554260723E+04  0.61572111096E+03  0.15815783820E+04  0.00000000000E+00 0. -1.
<mgrwt>
<rscale>  0 0.35347939E+04</rscale>
<asrwt>0</asrwt>
<pdfrwt beam="1">  1        2 0.34213378E+00 0.35347939E+04</pdfrwt>
<pdfrwt beam="2">  1       -2 0.21609540E+00 0.35347939E+04</pdfrwt>
<totfact> 0.42930427E-01</totfact>
</mgrwt>
</event>
<event>
 6    1  0.1072514E-005  0.5065627E+03  0.7818608E-02  0.1012080E+00
          1   -1    0    0  501    0  0.00000000000E+00  0.00000000000E+00  0.36719143193E+03  0.36719143193E+03  0.00000000000E+00 0. -1.
         -1   -1    0    0    0  501 -0.00000000000E+00 -0.00000000000E+00 -0.17470845348E+03  0.17470845348E+03  0.00000000000E+00 0.  1.
         23    2    1    2    0    0  0.13580960016E+03 -0.17867510838E+03  0.20453556869E+03  0.31714600495E+03  0.91530037400E+02 0.  0.
         11    1    3    3    0    0  0.25962772358E+02  0.44525479586E+01  0.96926367334E+01  0.28068450949E+02  0.00000000000E+00 0. -1.
        -11    1    3    3    0    0  0.10984682781E+03 -0.18312765634E+03  0.19484293196E+03  0.28907755400E+03  0.00000000000E+00 0.  1.
         22    1    1    2    0    0 -0.13580960016E+03  0.17867510838E+03 -0.12052590242E+02  0.22475388046E+03  0.00000000000E+00 0.  1.
<mgrwt>
<rscale>  0 0.50656272E+03</rscale>
<asrwt>0</asrwt>
<pdfrwt beam="1">  1        1 0.56490989E-01 0.50656272E+03</pdfrwt>
<pdfrwt beam="2">  1       -1 0.26878224E-01 0.50656272E+03</pdfrwt>
<totfact> 0.83516871E+02</totfact>
</mgrwt>
</event>
<event>
 6    1  0.1072514E-005  0.2492621E+04  0.7818608E-02  0.8405619E-01
         -1   -1    0    0    0  501 -0.00000000000E+00  0.00000000000E+00  0.18721805893E+04  0.18721805893E+04  0.00000000000E+00 0.  1.
          1   -1    0    0  501    0  0.00000000000E+00 -0.00000000000E+00 -0.82966884442E+03  0.82966884442E+03  0.00000000000E+00 0. -1.
         23    2    1    2    0    0 -0.56882383387E+03  0.71173389746E+03 -0.39705589895E+03  0.99818259542E+03  0.92679081419E+02 0.  0.
         13    1    3    3    0    0 -0.27271441776E+03  0.38910261873E+03 -0.24511987436E+03  0.53465666961E+03  0.00000000000E+00 0.  1.
        -13    1    3    3    0    0 -0.29610941611E+03  0.32263127873E+03 -0.15193602459E+03  0.46352592580E+03  0.00000000000E+00 0. -1.
         22    1    1    2    0    0  0.56882383387E+03 -0.71173389746E+03  0.14395676438E+04  0.17036668383E+04  0.00000000000E+00 0.  1.
<mgrwt>
<rscale>  0 0.24926210E+04</rscale>
<asrwt>0</asrwt>
<pdfrwt beam="1">  1        1 0.12764136E+00 0.24926210E+04</pdfrwt>
<pdfrwt beam="2">  1       -1 0.28802778E+00 0.24926210E+04</pdfrwt>
<totfact> 0.73159465E-01</totfact>
</mgrwt>
</event>
<event>
 6    1  0.1072514E-005  0.1222987E+04  0.7818608E-02  0.9092971E-01
         -2   -1    0    0    0  501 -0.00000000000E+00  0.00000000000E+00  0.20831890938E+03  0.20831890938E+03  0.00000000000E+00 0.  1.
          2   -1    0    0  501    0  0.00000000000E+00 -0.00000000000E+00 -0.17949596981E+04  0.17949596981E+04  0.00000000000E+00 0. -1.
         23    2    1    2    0    0  0.50135615320E+03 -0.27684471211E+03 -0.47031192505E+03  0.74861087504E+03  0.10594313758E+03 0.  0.
         13    1    3    3    0    0  0.12364555070E+03 -0.25357968188E+02 -0.75175295007E+02  0.14691008726E+03  0.00000000000E+00 0.  1.
        -13    1    3    3    0    0  0.37771060250E+03 -0.25148674392E+03 -0.39513663005E+03  0.60170078778E+03  0.00000000000E+00 0. -1.
         22    1    1    2    0    0 -0.50135615320E+03  0.27684471211E+03 -0.11163288636E+04  0.12546677324E+04  0.00000000000E+00 0. -1.
<mgrwt>
<rscale>  0 0.12229866E+04</rscale>
<asrwt>0</asrwt>
<pdfrwt beam="1">  1        2 0.27614763E+00 0.12229866E+04</pdfrwt>
<pdfrwt beam="2">  1       -2 0.32049065E-01 0.12229866E+04</pdfrwt>
<totfact> 0.77516978E+01</totfact>
</mgrwt>
</event>
<event>
 6    1  0.1072514E-005  0.4078792E+04  0.7818608E-02  0.7988838E-01
         -2   -1    0    0    0  501 -0.00000000000E+00  0.00000000000E+00  0.13592393076E+04  0.13592393076E+04  0.00000000000E+00 0.  1.
          2   -1    0    0  501    0  0.00000000000E+00 -0.00000000000E+00 -0.30598998607E+04  0.30598998607E+04  0.00000000000E+00 0. -1.
         23    2    1    2    0    0  0.59380664953E+03 -0.17864751879E+04 -0.39548086984E+01  0.18847930362E+04  0.91264530769E+02 0.  0.
         13    1    3    3    0    0  0.20367444799E+03 -0.48545264596E+03  0.68587404073E+01  0.52649272981E+03  0.00000000000E+00 0. -1.
        -13    1    3    3    0    0  0.39013220154E+03 -0.13010225420E+04 -0.10813549106E+02  0.13583003064E+04  0.00000000000E+00 0.  1.
         22    1    1    2    0    0 -0.59380664953E+03  0.17864751879E+04 -0.16967057444E+04  0.25343461321E+04  0.00000000000E+00 0.  1.
<mgrwt>
<rscale>  0 0.40787921E+04</rscale>
<asrwt>0</asrwt>
<pdfrwt beam="1">  1        2 0.47075383E+00 0.40787921E+04</pdfrwt>
<pdfrwt beam="2">  1       -2 0.20911374E+00 0.40787921E+04</pdfrwt>
<totfact> 0.14505839E-01</totfact>
</mgrwt>
</event>
<event>
 6    1  0.1072514E-005  0.9399215E+03  0.7818608E-02  0.9377009E-01
          2   -1    0    0  501    0  0.00000000000E+00  0.00000000000E+00  0.12207936568E+04  0.12207936568E+04  0.00000000000E+00 0. -1.
         -2   -1    0    0    0  501 -0.00000000000E+00 -0.00000000000E+00 -0.18091764657E+03  0.18091764657E+03  0.00000000000E+00 0.  1.
         23    2    1    2    0    0  0.93260027809E+02 -0.36041820535E+03  0.10569829327E+03  0.39608377670E+03  0.84329789738E+02 0.  0.
         13    1    3    3    0    0  0.67355575082E+02 -0.23885281273E+03  0.11058749270E+03  0.27169290235E+03  0.00000000000E+00 0.  1.
        -13    1    3    3    0    0  0.25904452727E+02 -0.12156539261E+03 -0.48891994302E+01  0.12439087436E+03  0.00000000000E+00 0. -1.
         22    1    1    2    0    0 -0.93260027809E+02  0.36041820535E+03  0.93417771696E+03  0.10056275267E+04  0.00000000000E+00 0. -1.
<mgrwt>
<rscale>  0 0.93992152E+03</rscale>
<asrwt>0</asrwt>
<pdfrwt beam="1">  1        2 0.18781440E+00 0.93992152E+03</pdfrwt>
<pdfrwt beam="2">  1       -2 0.27833485E-01 0.93992152E+03</pdfrwt>
<totfact> 0.21685614E+02</totfact>
</mgrwt>
</event>
<event>
 6    1  0.1072514E-005  0.6748011E+03  0.7818608E-02  0.9761323E-01
         -2   -1    0    0    0  501 -0.00000000000E+00  0.00000000000E+00  0.19614327553E+03  0.19614327553E+03  0.00000000000E+00 0.  1.
          2   -1    0    0  501    0  0.00000000000E+00 -0.00000000000E+00 -0.58038769816E+03  0.58038769816E+03  0.00000000000E+00 0. -1.
         23    2    1    2    0    0 -0.28911363572E+03 -0.52132938151E+01 -0.96091830168E+01  0.30328110781E+03  0.90957249101E+02 0.  0.
         13    1    3    3    0    0 -0.33361584468E+02  0.28805874152E+02  0.74970987581E+01  0.44709956315E+02  0.00000000000E+00 0. -1.
        -13    1    3    3    0    0 -0.25575205125E+03 -0.34019167967E+02 -0.17106281775E+02  0.25857115150E+03  0.00000000000E+00 0.  1.
         22    1    1    2    0    0  0.28911363572E+03  0.52132938151E+01 -0.37463523962E+03  0.47324986588E+03  0.00000000000E+00 0. -1.
<mgrwt>
<rscale>  0 0.67480114E+03</rscale>
<asrwt>0</asrwt>
<pdfrwt beam="1">  1        2 0.89290415E-01 0.67480114E+03</pdfrwt>
<pdfrwt beam="2">  1       -2 0.30175888E-01 0.67480114E+03</pdfrwt>
<totfact> 0.52684660E+02</totfact>
</mgrwt>
</event>
<event>
 6    1  0.1072514E-005  0.6854114E+03  0.7818608E-02  0.9742511E-01
          2   -1    0    0  501    0  0.00000000000E+00  0.00000000000E+00  0.30886587906E+03  0.30886587906E+03  0.00000000000E+00 0. -1.
         -2   -1    0    0    0  501 -0.00000000000E+00 -0.00000000000E+00 -0.38025311505E+03  0.38025311505E+03  0.00000000000E+00 0.  1.
         23    2    1    2    0    0  0.87995865235E+02  0.74679995296E+02 -0.35431988317E+03  0.38355188717E+03  0.90824537145E+02 0.  0.
         11    1    3    3    0    0  0.18151834058E+02  0.72974475795E+02 -0.15358070457E+03  0.17100232751E+03  0.00000000000E+00 0.  1.
        -11    1    3    3    0    0  0.69844031177E+02  0.17055195009E+01 -0.20073917861E+03  0.21254955967E+03  0.00000000000E+00 0. -1.
         22    1    1    2    0    0 -0.87995865235E+02 -0.74679995296E+02  0.28293264718E+03  0.30556710693E+03  0.00000000000E+00 0. -1.
<mgrwt>
<rscale>  0 0.68541145E+03</rscale>
<asrwt>0</asrwt>
<pdfrwt beam="1">  1        2 0.47517828E-01 0.68541145E+03</pdfrwt>
<pdfrwt beam="2">  1       -2 0.58500479E-01 0.68541145E+03</pdfrwt>
<totfact> 0.29321182E+02</totfact>
</mgrwt>
</event>
<event>
 6    1  0.1072514E-005  0.2773495E+04  0.7818608E-02  0.8311545E-01
         -1   -1    0    0    0  501 -0.00000000000E+00  0.00000000000E+00  0.16676534308E+04  0.16676534308E+04  0.00000000000E+00 0.  1.
          1   -1    0    0  501    0  0.00000000000E+00 -0.00000000000E+00 -0.11531586825E+04  0.11531586825E+04  0.00000000000E+00 0. -1.
         23    2    1    2    0    0 -0.21971857049E+03 -0.58184763376E+03  0.15163535267E+04  0.16415988455E+04  0.93251448580E+02 0.  0.
         11    1    3    3    0    0 -0.70957550489E+02 -0.97306829097E+02  0.24720588808E+03  0.27498062488E+03  0.00000000000E+00 0.  1.
        -11    1    3    3    0    0 -0.14876102000E+03 -0.48454080467E+03  0.12691476386E+04  0.13666182207E+04  0.00000000000E+00 0. -1.
         22    1    1    2    0    0  0.21971857049E+03  0.58184763376E+03 -0.10018587784E+04  0.11792132678E+04  0.00000000000E+00 0. -1.
<mgrwt>
<rscale>  0 0.27734953E+04</rscale>
<asrwt>0</asrwt>
<pdfrwt beam="1">  1        1 0.17740903E+00 0.27734953E+04</pdfrwt>
<pdfrwt beam="2">  1       -1 0.25656207E+00 0.27734953E+04</pdfrwt>
<totfact> 0.63416172E-01</totfact>
</mgrwt>
</event>
<event>
 6    1  0.1072514E-005  0.3170380E+04  0.7818608E-02  0.8196684E-01
         -2   -1    0    0    0  501 -0.00000000000E+00  0.00000000000E+00  0.17095929462E+04  0.17095929462E+04  0.00000000000E+00 0.  1.
          2   -1    0    0  501    0  0.00000000000E+00 -0.00000000000E+00 -0.14698396979E+04  0.14698396979E+04  0.00000000000E+00 0. -1.
         23    2    1    2    0    0  0.14546440177E+04  0.62223132861E+03  0.45277128008E+02  0.15853868461E+04  0.90776588306E+02 0.  0.
         13    1    3    3    0    0  0.10242481960E+04  0.40621112992E+03  0.17669491686E+01  0.11018597784E+04  0.00000000000E+00 0. -1.
        -13    1    3    3    0    0  0.43039582165E+03  0.21602019869E+03  0.43510178839E+02  0.48352706770E+03  0.00000000000E+00 0.  1.
         22    1    1    2    0    0 -0.14546440177E+04 -0.62223132861E+03  0.19447612032E+03  0.15940457979E+04  0.00000000000E+00 0. -1.
<mgrwt>
<rscale>  0 0.31703802E+04</rscale>
<asrwt>0</asrwt>
<pdfrwt beam="1">  1        2 0.22612918E+00 0.31703802E+04</pdfrwt>
<pdfrwt beam="2">  1       -2 0.26301430E+00 0.31703802E+04</pdfrwt>
<totfact> 0.59595573E-01</totfact>
</mgrwt>
</event>
<event>
 6    1  0.1072514E-005  0.2485949E+04  0.7818608E-02  0.8408008E-01
         -1   -1    0    0    0  501 -0.00000000000E+00  0.00000000000E+00  0.13232941031E+04  0.13232941031E+04  0.00000000000E+00 0.  1.
          1   -1    0    0  501    0  0.00000000000E+00 -0.00000000000E+00 -0.11675302106E+04  0.11675302106E+04  0.00000000000E+00 0. -1.
         23    2    1    2    0    0  0.11536355960E+04  0.38042236716E+03  0.33366085287E+03  0.12631258188E+04  0.92525691181E+02 0.  0.
         11    1    3    3    0    0  0.36695615558E+03  0.13884917120E+03  0.66723926005E+02  0.39797989240E+03  0.00000000000E+00 0. -1.
        -11    1    3    3    0    0  0.78667944046E+03  0.24157319597E+03  0.26693692687E+03  0.86514592641E+03  0.00000000000E+00 0.  1.
         22    1    1    2    0    0 -0.11536355960E+04 -0.38042236716E+03 -0.17789696030E+03  0.12276984949E+04  0.00000000000E+00 0.  1.
<mgrwt>
<rscale>  0 0.24859492E+04</rscale>
<asrwt>0</asrwt>
<pdfrwt beam="1">  1        1 0.17962003E+00 0.24859492E+04</pdfrwt>
<pdfrwt beam="2">  1       -1 0.20358371E+00 0.24859492E+04</pdfrwt>
<totfact> 0.14279454E+00</totfact>
</mgrwt>
</event>
<event>
 6    1  0.1072514E-005  0.1300686E+04  0.7818608E-02  0.9029022E-01
         -1   -1    0    0    0  501 -0.00000000000E+00  0.00000000000E+00  0.33823371544E+03  0.33823371544E+03  0.00000000000E+00 0.  1.
          1   -1    0    0  501    0  0.00000000000E+00 -0.00000000000E+00 -0.12504541017E+04  0.12504541017E+04  0.00000000000E+00 0. -1.
         23    2    1    2    0    0  0.20544976523E+03 -0.51358263689E+02 -0.12053785463E+04  0.12270402206E+04  0.88560633377E+02 0.  0.
         11    1    3    3    0    0  0.14172412720E+03 -0.59332475058E+02 -0.64758842294E+03  0.66556505043E+03  0.00000000000E+00 0. -1.
        -11    1    3    3    0    0  0.63725638032E+02  0.79742113692E+01 -0.55779012338E+03  0.56147517018E+03  0.00000000000E+00 0.  1.
         22    1    1    2    0    0 -0.20544976523E+03  0.51358263689E+02  0.29315816005E+03  0.36164759654E+03  0.00000000000E+00 0.  1.
<mgrwt>
<rscale>  0 0.13006856E+04</rscale>
<asrwt>0</asrwt>
<pdfrwt beam="1">  1        1 0.19237755E+00 0.13006856E+04</pdfrwt>
<pdfrwt beam="2">  1       -1 0.52035957E-01 0.13006856E+04</pdfrwt>
<totfact> 0.35868224E+01</totfact>
</mgrwt>
</event>
<event>
 6    1  0.1072514E-005  0.2760760E+04  0.7818608E-02  0.8315555E-01
         -3   -1    0    0    0  501 -0.00000000000E+00  0.00000000000E+00  0.13875653812E+04  0.13875653812E+04  0.00000000000E+00 0.  1.
          3   -1    0    0  501    0  0.00000000000E+00 -0.00000000000E+00 -0.13732318826E+04  0.13732318826E+04  0.00000000000E+00 0. -1.
         23    2    1    2    0    0  0.94999623235E+03  0.58345165896E+03  0.81859797235E+03  0.13861154739E+04  0.91130602922E+02 0.  0.
         11    1    3    3    0    0  0.40397610328E+03  0.30073517287E+03  0.36034087176E+03  0.61926075290E+03  0.00000000000E+00 0. -1.
        -11    1    3    3    0    0  0.54602012907E+03  0.28271648609E+03  0.45825710059E+03  0.76685472098E+03  0.00000000000E+00 0.  1.
         22    1    1    2    0    0 -0.94999623235E+03 -0.58345165896E+03 -0.80426447375E+03  0.13746817899E+04  0.00000000000E+00 0. -1.
<mgrwt>
<rscale>  0 0.27607601E+04</rscale>
<asrwt>0</asrwt>
<pdfrwt beam="1">  1        3 0.21126644E+00 0.27607601E+04</pdfrwt>
<pdfrwt beam="2">  1       -3 0.21347160E+00 0.27607601E+04</pdfrwt>
<totfact> 0.34313590E-02</totfact>
</mgrwt>
</event>
<event>
 6    1  0.1072514E-005  0.1444786E+04  0.7818608E-02  0.8922023E-01
          1   -1    0    0  501    0  0.00000000000E+00  0.00000000000E+00  0.30244100197E+04  0.30244100197E+04  0.00000000000E+00 0. -1.
         -1   -1    0    0    0  501 -0.00000000000E+00 -0.00000000000E+00 -0.17254669277E+03  0.17254669277E+03  0.00000000000E+00 0.  1.
         23    2    1    2    0    0  0.28623033659E+03  0.29100937500E+03  0.27426414326E+04  0.27744124141E+04  0.93101845156E+02 0.  0.
         13    1    3    3    0    0  0.27565700555E+03  0.25851523235E+03  0.23396119619E+04  0.23699369279E+04  0.00000000000E+00 0. -1.
        -13    1    3    3    0    0  0.10573331042E+02  0.32494142647E+02  0.40302947074E+03  0.40447548618E+03  0.00000000000E+00 0.  1.
         22    1    1    2    0    0 -0.28623033659E+03 -0.29100937500E+03  0.10922189433E+03  0.42254429841E+03  0.00000000000E+00 0.  1.
<mgrwt>
<rscale>  0 0.14447864E+04</rscale>
<asrwt>0</asrwt>
<pdfrwt beam="1">  1        1 0.46529381E+00 0.14447864E+04</pdfrwt>
<pdfrwt beam="2">  1       -1 0.26545647E-01 0.14447864E+04</pdfrwt>
<totfact> 0.70924015E+00</totfact>
</mgrwt>
</event>
<event>
 6    1  0.1072514E-005  0.3060950E+04  0.7818608E-02  0.8226537E-01
         -1   -1    0    0    0  501 -0.00000000000E+00  0.00000000000E+00  0.89666755255E+03  0.89666755255E+03  0.00000000000E+00 0. -1.
          1   -1    0    0  501    0  0.00000000000E+00 -0.00000000000E+00 -0.26122871158E+04  0.26122871158E+04  0.00000000000E+00 0.  1.
         23    2    1    2    0    0  0.64840687464E+03  0.12292483510E+04 -0.12782201689E+03  0.13988399720E+04  0.94508283434E+02 0.  0.
         11    1    3    3    0    0  0.63982080732E+03  0.12023838457E+04 -0.11228489362E+03  0.13666402142E+04  0.00000000000E+00 0.  1.
        -11    1    3    3    0    0  0.85860673175E+01  0.26864505360E+02 -0.15537123270E+02  0.32199757759E+02  0.00000000000E+00 0. -1.
         22    1    1    2    0    0 -0.64840687464E+03 -0.12292483510E+04 -0.15877975464E+04  0.21101146964E+04  0.00000000000E+00 0.  1.
<mgrwt>
<rscale>  0 0.30609496E+04</rscale>
<asrwt>0</asrwt>
<pdfrwt beam="1">  1        1 0.40189033E+00 0.30609496E+04</pdfrwt>
<pdfrwt beam="2">  1       -1 0.13794885E+00 0.30609496E+04</pdfrwt>
<totfact> 0.41701595E-01</totfact>
</mgrwt>
</event>
<event>
 6    1  0.1072514E-005  0.5863732E+04  0.7818608E-02  0.7707531E-01
          2   -1    0    0  501    0  0.00000000000E+00  0.00000000000E+00  0.29987515700E+04  0.29987515700E+04  0.00000000000E+00 0.  1.
         -2   -1    0    0    0  501 -0.00000000000E+00 -0.00000000000E+00 -0.28664721033E+04  0.28664721033E+04  0.00000000000E+00 0. -1.
         23    2    1    2    0    0  0.58141682205E+03  0.10017147820E+03 -0.28056818438E+04  0.28686094992E+04  0.94815632798E+02 0.  0.
         13    1    3    3    0    0  0.54006190931E+03  0.72950940074E+02 -0.24787401052E+04  0.25379403489E+04  0.00000000000E+00 0.  1.
        -13    1    3    3    0    0  0.41354912744E+02  0.27220538129E+02 -0.32694173866E+03  0.33066915033E+03  0.00000000000E+00 0. -1.
         22    1    1    2    0    0 -0.58141682205E+03 -0.10017147820E+03  0.29379613106E+04  0.29966141741E+04  0.00000000000E+00 0.  1.
<mgrwt>
<rscale>  0 0.58637318E+04</rscale>
<asrwt>0</asrwt>
<pdfrwt beam="1">  1        2 0.46134640E+00 0.58637318E+04</pdfrwt>
<pdfrwt beam="2">  1       -2 0.44099571E+00 0.58637318E+04</pdfrwt>
<totfact> 0.47394305E-03</totfact>
</mgrwt>
</event>
<event>
 6    1  0.1072514E-005  0.2409664E+04  0.7818608E-02  0.8435894E-01
          1   -1    0    0  501    0  0.00000000000E+00  0.00000000000E+00  0.21024939844E+04  0.21024939844E+04  0.00000000000E+00 0. -1.
         -1   -1    0    0    0  501 -0.00000000000E+00 -0.00000000000E+00 -0.69042780260E+03  0.69042780260E+03  0.00000000000E+00 0.  1.
         23    2    1    2    0    0 -0.62516467424E+03 -0.46838982843E+03  0.17675982302E+04  0.19346543818E+04  0.90907492955E+02 0.  0.
         13    1    3    3    0    0 -0.66295088869E+02 -0.86323859048E+02  0.21950413418E+03  0.24500798430E+03  0.00000000000E+00 0.  1.
        -13    1    3    3    0    0 -0.55886958537E+03 -0.38206596938E+03  0.15480940960E+04  0.16896463975E+04  0.00000000000E+00 0. -1.
         22    1    1    2    0    0  0.62516467424E+03  0.46838982843E+03 -0.35553204845E+03  0.85826740517E+03  0.00000000000E+00 0.  1.
<mgrwt>
<rscale>  0 0.24096641E+04</rscale>
<asrwt>0</asrwt>
<pdfrwt beam="1">  1        1 0.32346061E+00 0.24096641E+04</pdfrwt>
<pdfrwt beam="2">  1       -1 0.10621966E+00 0.24096641E+04</pdfrwt>
<totfact> 0.18831139E+00</totfact>
</mgrwt>
</event>
<event>
 6    1  0.1072514E-005  0.4182506E+04  0.7818608E-02  0.7968708E-01
          2   -1    0    0  501    0  0.00000000000E+00  0.00000000000E+00  0.24253825158E+04  0.24253825158E+04  0.00000000000E+00 0. -1.
         -2   -1    0    0    0  501 -0.00000000000E+00 -0.00000000000E+00 -0.18031543885E+04  0.18031543885E+04  0.00000000000E+00 0.  1.
         23    2    1    2    0    0 -0.15046173377E+03 -0.12803913213E+04  0.19747104902E+04  0.23600484214E+04  0.91139246067E+02 0.  0.
         13    1    3    3    0    0 -0.12799109942E+03 -0.76937153767E+03  0.12367652615E+04  0.14621568304E+04  0.00000000000E+00 0. -1.
        -13    1    3    3    0    0 -0.22470634353E+02 -0.51101978368E+03  0.73794522866E+03  0.89789159102E+03  0.00000000000E+00 0.  1.
         22    1    1    2    0    0  0.15046173377E+03  0.12803913213E+04 -0.13524823628E+04  0.18684884829E+04  0.00000000000E+00 0.  1.
<mgrwt>
<rscale>  0 0.41825060E+04</rscale>
<asrwt>0</asrwt>
<pdfrwt beam="1">  1        2 0.37313577E+00 0.41825060E+04</pdfrwt>
<pdfrwt beam="2">  1       -2 0.27740837E+00 0.41825060E+04</pdfrwt>
<totfact> 0.13051926E-01</totfact>
</mgrwt>
</event>
<event>
 6    1  0.1072514E-005  0.4535684E+04  0.7818608E-02  0.7904419E-01
         -2   -1    0    0    0  501 -0.00000000000E+00  0.00000000000E+00  0.38498513760E+04  0.38498513760E+04  0.00000000000E+00 0.  1.
          2   -1    0    0  501    0  0.00000000000E+00 -0.00000000000E+00 -0.13359233388E+04  0.13359233388E+04  0.00000000000E+00 0. -1.
         23    2    1    2    0    0 -0.13116968942E+04 -0.11442036959E+04  0.29179462799E+04  0.33988831175E+04  0.90802609027E+02 0.  0.
         11    1    3    3    0    0 -0.74595853615E+03 -0.68988029391E+03  0.17675592529E+04  0.20387875490E+04  0.00000000000E+00 0. -1.
        -11    1    3    3    0    0 -0.56573835806E+03 -0.45432340203E+03  0.11503870270E+04  0.13600955685E+04  0.00000000000E+00 0.  1.
         22    1    1    2    0    0  0.13116968942E+04  0.11442036959E+04 -0.40401824264E+03  0.17868915973E+04  0.00000000000E+00 0. -1.
<mgrwt>
<rscale>  0 0.45356835E+04</rscale>
<asrwt>0</asrwt>
<pdfrwt beam="1">  1        2 0.20552667E+00 0.45356835E+04</pdfrwt>
<pdfrwt beam="2">  1       -2 0.59228482E+00 0.45356835E+04</pdfrwt>
<totfact> 0.65237937E-03</totfact>
</mgrwt>
</event>
<event>
 6    1  0.1072514E-005  0.4060996E+04  0.7818608E-02  0.7992354E-01
          2   -1    0    0  501    0  0.00000000000E+00  0.00000000000E+00  0.12561396031E+04  0.12561396031E+04  0.00000000000E+00 0. -1.
         -2   -1    0    0    0  501 -0.00000000000E+00 -0.00000000000E+00 -0.32822160485E+04  0.32822160485E+04  0.00000000000E+00 0.  1.
         23    2    1    2    0    0 -0.16244700991E+03 -0.17511356141E+04  0.11830159544E+03  0.17650503759E+04  0.92426142968E+02 0.  0.
         11    1    3    3    0    0 -0.99492725625E+01 -0.38461202678E+03  0.54319211879E+02  0.38855627127E+03  0.00000000000E+00 0. -1.
        -11    1    3    3    0    0 -0.15249773734E+03 -0.13665235874E+04  0.63982383556E+02  0.13764941046E+04  0.00000000000E+00 0.  1.
         22    1    1    2    0    0  0.16244700991E+03  0.17511356141E+04 -0.21443780408E+04  0.27733052757E+04  0.00000000000E+00 0.  1.
<mgrwt>
<rscale>  0 0.40609957E+04</rscale>
<asrwt>0</asrwt>
<pdfrwt beam="1">  1        2 0.19325225E+00 0.40609957E+04</pdfrwt>
<pdfrwt beam="2">  1       -2 0.50495631E+00 0.40609957E+04</pdfrwt>
<totfact> 0.21205902E-02</totfact>
</mgrwt>
</event>
<event>
 6    1  0.1072514E-005  0.1871042E+04  0.7818608E-02  0.8669406E-01
         -2   -1    0    0    0  501 -0.00000000000E+00  0.00000000000E+00  0.13257730147E+04  0.13257730147E+04  0.00000000000E+00 0.  1.
          2   -1    0    0  501    0  0.00000000000E+00 -0.00000000000E+00 -0.66014294417E+03  0.66014294417E+03  0.00000000000E+00 0. -1.
         23    2    1    2    0    0 -0.69438613200E+03 -0.49522233853E+03 -0.68843667829E+02  0.86036323367E+03  0.89823039108E+02 0.  0.
         11    1    3    3    0    0 -0.51825788166E+03 -0.31963146582E+03 -0.47649291628E+02  0.61075851270E+03  0.00000000000E+00 0.  1.
        -11    1    3    3    0    0 -0.17612825035E+03 -0.17559087271E+03 -0.21194376201E+02  0.24960472097E+03  0.00000000000E+00 0. -1.
         22    1    1    2    0    0  0.69438613200E+03  0.49522233853E+03  0.73447373838E+03  0.11255527252E+04  0.00000000000E+00 0. -1.
<mgrwt>
<rscale>  0 0.18710422E+04</rscale>
<asrwt>0</asrwt>
<pdfrwt beam="1">  1        2 0.10156045E+00 0.18710422E+04</pdfrwt>
<pdfrwt beam="2">  1       -2 0.20396508E+00 0.18710422E+04</pdfrwt>
<totfact> 0.51835868E+00</totfact>
</mgrwt>
</event>
<event>
 6    1  0.1072514E-005  0.2448551E+04  0.7818608E-02  0.8421547E-01
          1   -1    0    0  501    0  0.00000000000E+00  0.00000000000E+00  0.15030087951E+04  0.15030087951E+04  0.00000000000E+00 0. -1.
         -1   -1    0    0    0  501 -0.00000000000E+00 -0.00000000000E+00 -0.99723326520E+03  0.99723326520E+03  0.00000000000E+00 0.  1.
         23    2    1    2    0    0 -0.10527520652E+04  0.55954673642E+03  0.53120982553E+03  0.13077545910E+04  0.81601044032E+02 0.  0.
         11    1    3    3    0    0 -0.95587222472E+03  0.49698926866E+03  0.50322389593E+03  0.11890855026E+04  0.00000000000E+00 0. -1.
        -11    1    3    3    0    0 -0.96879840520E+02  0.62557467759E+02  0.27985929591E+02  0.11866908834E+03  0.00000000000E+00 0.  1.
         22    1    1    2    0    0  0.10527520652E+04 -0.55954673642E+03 -0.25434295617E+02  0.11924874693E+04  0.00000000000E+00 0. -1.
<mgrwt>
<rscale>  0 0.24485509E+04</rscale>
<asrwt>0</asrwt>
<pdfrwt beam="1">  1        1 0.23123212E+00 0.24485509E+04</pdfrwt>
<pdfrwt beam="2">  1       -1 0.15342050E+00 0.24485509E+04</pdfrwt>
<totfact> 0.19067342E+00</totfact>
</mgrwt>
</event>
<event>
 6    1  0.1072514E-005  0.1901078E+04  0.7818608E-02  0.8654320E-01
         -2   -1    0    0    0  501 -0.00000000000E+00  0.00000000000E+00  0.17207092144E+04  0.17207092144E+04  0.00000000000E+00 0.  1.
          2   -1    0    0  501    0  0.00000000000E+00 -0.00000000000E+00 -0.52508828053E+03  0.52508828053E+03  0.00000000000E+00 0. -1.
         23    2    1    2    0    0 -0.33612699723E+03 -0.86650216246E+03  0.82222215311E+03  0.12441817975E+04  0.90176052056E+02 0.  0.
         13    1    3    3    0    0 -0.19144127447E+03 -0.41920043511E+03  0.45527235559E+03  0.64780528258E+03  0.00000000000E+00 0. -1.
        -13    1    3    3    0    0 -0.14468572276E+03 -0.44730172735E+03  0.36694979751E+03  0.59637651492E+03  0.00000000000E+00 0.  1.
         22    1    1    2    0    0  0.33612699723E+03  0.86650216246E+03  0.37339878073E+03  0.10016156974E+04  0.00000000000E+00 0. -1.
<mgrwt>
<rscale>  0 0.19010778E+04</rscale>
<asrwt>0</asrwt>
<pdfrwt beam="1">  1        2 0.80782813E-01 0.19010778E+04</pdfrwt>
<pdfrwt beam="2">  1       -2 0.26472449E+00 0.19010778E+04</pdfrwt>
<totfact> 0.28433863E+00</totfact>
</mgrwt>
</event>
<event>
 6    1  0.1072514E-005  0.3774898E+04  0.7818608E-02  0.8051563E-01
          2   -1    0    0  501    0  0.00000000000E+00  0.00000000000E+00  0.25490240573E+04  0.25490240573E+04  0.00000000000E+00 0. -1.
         -2   -1    0    0    0  501 -0.00000000000E+00 -0.00000000000E+00 -0.13975795945E+04  0.13975795945E+04  0.00000000000E+00 0.  1.
         23    2    1    2    0    0  0.18726187500E+04 -0.69454206209E+01  0.33823716844E+03  0.19050220773E+04  0.89193672481E+02 0.  0.
         11    1    3    3    0    0  0.95257456597E+03  0.40248129142E+02  0.16342664122E+03  0.96732956260E+03  0.00000000000E+00 0.  1.
        -11    1    3    3    0    0  0.92004418406E+03 -0.47193549763E+02  0.17481052721E+03  0.93769251473E+03  0.00000000000E+00 0. -1.
         22    1    1    2    0    0 -0.18726187500E+04  0.69454206209E+01  0.81320729436E+03  0.20415815745E+04  0.00000000000E+00 0. -1.
<mgrwt>
<rscale>  0 0.37748981E+04</rscale>
<asrwt>0</asrwt>
<pdfrwt beam="1">  1        2 0.39215755E+00 0.37748981E+04</pdfrwt>
<pdfrwt beam="2">  1       -2 0.21501225E+00 0.37748981E+04</pdfrwt>
<totfact> 0.27847459E-01</totfact>
</mgrwt>
</event>
<event>
 6    1  0.1072514E-005  0.3271027E+04  0.7818608E-02  0.8170307E-01
          2   -1    0    0  501    0  0.00000000000E+00  0.00000000000E+00  0.15512957474E+04  0.15512957474E+04  0.00000000000E+00 0. -1.
         -2   -1    0    0    0  501 -0.00000000000E+00 -0.00000000000E+00 -0.17243037618E+04  0.17243037618E+04  0.00000000000E+00 0.  1.
         23    2    1    2    0    0  0.58322449292E+03  0.86982041145E+03  0.11697429389E+04  0.15727435318E+04  0.92115777840E+02 0.  0.
         11    1    3    3    0    0  0.37304061477E+03  0.55321504427E+03  0.67781609703E+03  0.95112609409E+03  0.00000000000E+00 0.  1.
        -11    1    3    3    0    0  0.21018387816E+03  0.31660536717E+03  0.49192684183E+03  0.62161743772E+03  0.00000000000E+00 0. -1.
         22    1    1    2    0    0 -0.58322449292E+03 -0.86982041145E+03 -0.13427509532E+04  0.17028559774E+04  0.00000000000E+00 0.  1.
<mgrwt>
<rscale>  0 0.32710274E+04</rscale>
<asrwt>0</asrwt>
<pdfrwt beam="1">  1        2 0.23866089E+00 0.32710274E+04</pdfrwt>
<pdfrwt beam="2">  1       -2 0.26527750E+00 0.32710274E+04</pdfrwt>
<totfact> 0.51499695E-01</totfact>
</mgrwt>
</event>
<event>
 6    1  0.1072514E-005  0.1329294E+04  0.7818608E-02  0.9006652E-01
          1   -1    0    0  501    0  0.00000000000E+00  0.00000000000E+00  0.11186660519E+04  0.11186660519E+04  0.00000000000E+00 0. -1.
         -1   -1    0    0    0  501 -0.00000000000E+00 -0.00000000000E+00 -0.39489476323E+03  0.39489476323E+03  0.00000000000E+00 0.  1.
         23    2    1    2    0    0 -0.17800196107E+03  0.37802831091E+03 -0.22015441389E+03  0.48128864466E+03  0.92632022132E+02 0.  0.
         13    1    3    3    0    0 -0.12233192953E+03  0.30898228706E+03 -0.13614606611E+03  0.35912519546E+03  0.00000000000E+00 0. -1.
        -13    1    3    3    0    0 -0.55670031544E+02  0.69046023849E+02 -0.84008347784E+02  0.12216344919E+03  0.00000000000E+00 0.  1.
         22    1    1    2    0    0  0.17800196107E+03 -0.37802831091E+03  0.94392570257E+03  0.10322721705E+04  0.00000000000E+00 0. -1.
<mgrwt>
<rscale>  0 0.13292936E+04</rscale>
<asrwt>0</asrwt>
<pdfrwt beam="1">  1        1 0.17210247E+00 0.13292936E+04</pdfrwt>
<pdfrwt beam="2">  1       -1 0.60753041E-01 0.13292936E+04</pdfrwt>
<totfact> 0.33066237E+01</totfact>
</mgrwt>
</event>
<event>
 6    1  0.1072514E-005  0.4446816E+04  0.7818608E-02  0.7920014E-01
         -1   -1    0    0    0  501 -0.00000000000E+00  0.00000000000E+00  0.12269422699E+04  0.12269422699E+04  0.00000000000E+00 0.  1.
          1   -1    0    0  501    0  0.00000000000E+00 -0.00000000000E+00 -0.40291564389E+04  0.40291564389E+04  0.00000000000E+00 0. -1.
         23    2    1    2    0    0  0.15767661162E+04 -0.54408737086E+03  0.33424845747E+03  0.17036882230E+04  0.92785113224E+02 0.  0.
         13    1    3    3    0    0  0.89161942338E+03 -0.31263934805E+03  0.14261709081E+03  0.95554601809E+03  0.00000000000E+00 0.  1.
        -13    1    3    3    0    0  0.68514669286E+03 -0.23144802281E+03  0.19163136666E+03  0.74814220486E+03  0.00000000000E+00 0. -1.
         22    1    1    2    0    0 -0.15767661162E+04  0.54408737086E+03 -0.31364626264E+04  0.35524104858E+04  0.00000000000E+00 0. -1.
<mgrwt>
<rscale>  0 0.44468156E+04</rscale>
<asrwt>0</asrwt>
<pdfrwt beam="1">  1        1 0.61987022E+00 0.44468156E+04</pdfrwt>
<pdfrwt beam="2">  1       -1 0.18876035E+00 0.44468156E+04</pdfrwt>
<totfact> 0.12258088E-02</totfact>
</mgrwt>
</event>
<event>
 6    1  0.1072514E-005  0.5339270E+04  0.7818608E-02  0.7778201E-01
          2   -1    0    0  501    0  0.00000000000E+00  0.00000000000E+00  0.43238805121E+04  0.43238805121E+04  0.00000000000E+00 0. -1.
         -2   -1    0    0    0  501 -0.00000000000E+00 -0.00000000000E+00 -0.16482763229E+04  0.16482763229E+04  0.00000000000E+00 0.  1.
         23    2    1    2    0    0 -0.24629463421E+04  0.14846689535E+03  0.20043973207E+03  0.24772196120E+04  0.91070395330E+02 0.  0.
         13    1    3    3    0    0 -0.20868722782E+04  0.15097101002E+03  0.19089371737E+03  0.21010160787E+04  0.00000000000E+00 0.  1.
        -13    1    3    3    0    0 -0.37607406386E+03 -0.25041146720E+01  0.95460146992E+01  0.37620353333E+03  0.00000000000E+00 0. -1.
         22    1    1    2    0    0  0.24629463421E+04 -0.14846689535E+03  0.24751644571E+04  0.34949372230E+04  0.00000000000E+00 0. -1.
<mgrwt>
<rscale>  0 0.53392696E+04</rscale>
<asrwt>0</asrwt>
<pdfrwt beam="1">  1        2 0.66521238E+00 0.53392696E+04</pdfrwt>
<pdfrwt beam="2">  1       -2 0.25358098E+00 0.53392696E+04</pdfrwt>
<totfact> 0.77492552E-03</totfact>
</mgrwt>
</event>
<event>
 6    1  0.1072514E-005  0.2974976E+04  0.7818608E-02  0.8250913E-01
         -2   -1    0    0    0  501 -0.00000000000E+00  0.00000000000E+00  0.24302917277E+04  0.24302917277E+04  0.00000000000E+00 0.  1.
          2   -1    0    0  501    0  0.00000000000E+00 -0.00000000000E+00 -0.91043402238E+03  0.91043402238E+03  0.00000000000E+00 0. -1.
         23    2    1    2    0    0 -0.44340143074E+03 -0.99966609806E+03  0.18905311021E+04  0.21860240988E+04  0.93039647682E+02 0.  0.
         11    1    3    3    0    0 -0.23353726850E+03 -0.63782338975E+03  0.11741118367E+04  0.13564280067E+04  0.00000000000E+00 0.  1.
        -11    1    3    3    0    0 -0.20986416224E+03 -0.36184270831E+03  0.71641926540E+03  0.82959609208E+03  0.00000000000E+00 0. -1.
         22    1    1    2    0    0  0.44340143074E+03  0.99966609806E+03 -0.37067339679E+03  0.11547016513E+04  0.00000000000E+00 0. -1.
<mgrwt>
<rscale>  0 0.29749758E+04</rscale>
<asrwt>0</asrwt>
<pdfrwt beam="1">  1        2 0.14006677E+00 0.29749758E+04</pdfrwt>
<pdfrwt beam="2">  1       -2 0.37389103E+00 0.29749758E+04</pdfrwt>
<totfact> 0.27114743E-01</totfact>
</mgrwt>
</event>
<event>
 6    1  0.1072514E-005  0.2181279E+04  0.7818608E-02  0.8526261E-01
         -2   -1    0    0    0  501 -0.00000000000E+00  0.00000000000E+00  0.72398652441E+03  0.72398652441E+03  0.00000000000E+00 0. -1.
          2   -1    0    0  501    0  0.00000000000E+00 -0.00000000000E+00 -0.16429789001E+04  0.16429789001E+04  0.00000000000E+00 0.  1.
         23    2    1    2    0    0 -0.32355317312E+03  0.82774075785E+03  0.22215028806E+03  0.92057405386E+03  0.90908856137E+02 0.  0.
         11    1    3    3    0    0 -0.17142538448E+03  0.54531489446E+03  0.12184763356E+03  0.58446714396E+03  0.00000000000E+00 0. -1.
        -11    1    3    3    0    0 -0.15212778863E+03  0.28242586339E+03  0.10030265450E+03  0.33610690991E+03  0.00000000000E+00 0.  1.
         22    1    1    2    0    0  0.32355317312E+03 -0.82774075785E+03 -0.11411426637E+04  0.14463913706E+04  0.00000000000E+00 0.  1.
<mgrwt>
<rscale>  0 0.21812791E+04</rscale>
<asrwt>0</asrwt>
<pdfrwt beam="1">  1        2 0.25276599E+00 0.21812791E+04</pdfrwt>
<pdfrwt beam="2">  1       -2 0.11138254E+00 0.21812791E+04</pdfrwt>
<totfact> 0.61576142E+00</totfact>
</mgrwt>
</event>
<event>
 6    1  0.1072514E-005  0.1515540E+04  0.7818608E-02  0.8874185E-01
         -2   -1    0    0    0  501 -0.00000000000E+00  0.00000000000E+00  0.36546920800E+03  0.36546920800E+03  0.00000000000E+00 0.  1.
          2   -1    0    0  501    0  0.00000000000E+00 -0.00000000000E+00 -0.15711720510E+04  0.15711720510E+04  0.00000000000E+00 0. -1.
         23    2    1    2    0    0 -0.36282521850E+03  0.42792981775E+03  0.40799802553E+02  0.56969761953E+03  0.90137038497E+02 0.  0.
         13    1    3    3    0    0 -0.21571754097E+03  0.31510992246E+03  0.11821317869E+02  0.38205767139E+03  0.00000000000E+00 0.  1.
        -13    1    3    3    0    0 -0.14710767753E+03  0.11281989529E+03  0.28978484683E+02  0.18763994814E+03  0.00000000000E+00 0. -1.
         22    1    1    2    0    0  0.36282521850E+03 -0.42792981775E+03 -0.12465026456E+04  0.13669436395E+04  0.00000000000E+00 0. -1.
<mgrwt>
<rscale>  0 0.15155395E+04</rscale>
<asrwt>0</asrwt>
<pdfrwt beam="1">  1        2 0.24171878E+00 0.15155395E+04</pdfrwt>
<pdfrwt beam="2">  1       -2 0.56226031E-01 0.15155395E+04</pdfrwt>
<totfact> 0.33162091E+01</totfact>
</mgrwt>
</event>
<event>
 6    1  0.1072514E-005  0.1333953E+04  0.7818608E-02  0.9003065E-01
          2   -1    0    0  501    0  0.00000000000E+00  0.00000000000E+00  0.11256300779E+04  0.11256300779E+04  0.00000000000E+00 0. -1.
         -2   -1    0    0    0  501 -0.00000000000E+00 -0.00000000000E+00 -0.39520794570E+03  0.39520794570E+03  0.00000000000E+00 0.  1.
         23    2    1    2    0    0 -0.64987698151E+03  0.10038402852E+03  0.46364095413E+03  0.81119780401E+03  0.10325647007E+03 0.  0.
         13    1    3    3    0    0 -0.16696842035E+03  0.17047675007E+02  0.17494463631E+03  0.24243494466E+03  0.00000000000E+00 0.  1.
        -13    1    3    3    0    0 -0.48290856116E+03  0.83336353510E+02  0.28869631782E+03  0.56876285936E+03  0.00000000000E+00 0. -1.
         22    1    1    2    0    0  0.64987698151E+03 -0.10038402852E+03  0.26678117806E+03  0.70964021958E+03  0.00000000000E+00 0.  1.
<mgrwt>
<rscale>  0 0.13339534E+04</rscale>
<asrwt>0</asrwt>
<pdfrwt beam="1">  1        2 0.17317386E+00 0.13339534E+04</pdfrwt>
<pdfrwt beam="2">  1       -2 0.60801223E-01 0.13339534E+04</pdfrwt>
<totfact> 0.51735817E+01</totfact>
</mgrwt>
</event>
<event>
 6    1  0.1072514E-005  0.2231220E+04  0.7818608E-02  0.8505545E-01
         -2   -1    0    0    0  501 -0.00000000000E+00  0.00000000000E+00  0.17090212893E+04  0.17090212893E+04  0.00000000000E+00 0.  1.
          2   -1    0    0  501    0  0.00000000000E+00 -0.00000000000E+00 -0.72824477523E+03  0.72824477523E+03  0.00000000000E+00 0. -1.
         23    2    1    2    0    0 -0.58245372721E+02  0.10912675716E+04  0.25634951089E+03  0.11261398619E+04  0.90655834624E+02 0.  0.
         11    1    3    3    0    0 -0.54233446895E+02  0.29425412682E+03  0.57496839290E+02  0.30468449984E+03  0.00000000000E+00 0.  1.
        -11    1    3    3    0    0 -0.40119258255E+01  0.79701344482E+03  0.19885267160E+03  0.82145536201E+03  0.00000000000E+00 0. -1.
         22    1    1    2    0    0  0.58245372721E+02 -0.10912675716E+04  0.72442700315E+03  0.13111262026E+04  0.00000000000E+00 0.  1.
<mgrwt>
<rscale>  0 0.22312201E+04</rscale>
<asrwt>0</asrwt>
<pdfrwt beam="1">  1        2 0.11203766E+00 0.22312201E+04</pdfrwt>
<pdfrwt beam="2">  1       -2 0.26292635E+00 0.22312201E+04</pdfrwt>
<totfact> 0.19013498E+00</totfact>
</mgrwt>
</event>
<event>
 6    1  0.1072514E-005  0.3376669E+04  0.7818608E-02  0.8143656E-01
         -2   -1    0    0    0  501 -0.00000000000E+00  0.00000000000E+00  0.22741470508E+04  0.22741470508E+04  0.00000000000E+00 0.  1.
          2   -1    0    0  501    0  0.00000000000E+00 -0.00000000000E+00 -0.12534255270E+04  0.12534255270E+04  0.00000000000E+00 0. -1.
         23    2    1    2    0    0  0.86938643419E+03  0.51434308524E+03 -0.90092016159E+03  0.13566077350E+04  0.91355502671E+02 0.  0.
         11    1    3    3    0    0  0.11181280697E+03  0.38326596275E+02 -0.12856450171E+03  0.17464209941E+03  0.00000000000E+00 0. -1.
        -11    1    3    3    0    0  0.75757362722E+03  0.47601648897E+03 -0.77235565988E+03  0.11819656356E+04  0.00000000000E+00 0.  1.
         22    1    1    2    0    0 -0.86938643419E+03 -0.51434308524E+03  0.19216416854E+04  0.21709648427E+04  0.00000000000E+00 0.  1.
<mgrwt>
<rscale>  0 0.33766693E+04</rscale>
<asrwt>0</asrwt>
<pdfrwt beam="1">  1        2 0.19283470E+00 0.33766693E+04</pdfrwt>
<pdfrwt beam="2">  1       -2 0.34986878E+00 0.33766693E+04</pdfrwt>
<totfact> 0.22768398E-01</totfact>
</mgrwt>
</event>
<event>
 6    1  0.1072514E-005  0.1711568E+04  0.7818608E-02  0.8754794E-01
         -1   -1    0    0    0  501 -0.00000000000E+00  0.00000000000E+00  0.38569929513E+03  0.38569929513E+03  0.00000000000E+00 0.  1.
          1   -1    0    0  501    0  0.00000000000E+00 -0.00000000000E+00 -0.18988009897E+04  0.18988009897E+04  0.00000000000E+00 0. -1.
         23    2    1    2    0    0  0.74913487052E+03  0.40828494210E+03 -0.74250334360E+03  0.11348388274E+04  0.92996240616E+02 0.  0.
         11    1    3    3    0    0  0.31122748160E+03  0.20266572081E+03 -0.37017343579E+03  0.52437039605E+03  0.00000000000E+00 0.  1.
        -11    1    3    3    0    0  0.43790738891E+03  0.20561922130E+03 -0.37232990782E+03  0.61046843136E+03  0.00000000000E+00 0. -1.
         22    1    1    2    0    0 -0.74913487052E+03 -0.40828494210E+03 -0.77059835099E+03  0.11496614574E+04  0.00000000000E+00 0. -1.
<mgrwt>
<rscale>  0 0.17115679E+04</rscale>
<asrwt>0</asrwt>
<pdfrwt beam="1">  1        1 0.29212323E+00 0.17115679E+04</pdfrwt>
<pdfrwt beam="2">  1       -1 0.59338353E-01 0.17115679E+04</pdfrwt>
<totfact> 0.95553155E+00</totfact>
</mgrwt>
</event>
<event>
 6    1  0.1072514E-005  0.1676762E+04  0.7818608E-02  0.8774730E-01
          2   -1    0    0  501    0  0.00000000000E+00  0.00000000000E+00  0.91262312863E+03  0.91262312863E+03  0.00000000000E+00 0. -1.
         -2   -1    0    0    0  501 -0.00000000000E+00 -0.00000000000E+00 -0.77017855269E+03  0.77017855269E+03  0.00000000000E+00 0.  1.
         23    2    1    2    0    0 -0.73536988878E+03  0.26973352801E+03 -0.22130687464E+03  0.81918129755E+03  0.92499816395E+02 0.  0.
         13    1    3    3    0    0 -0.49121974523E+03  0.13309466340E+03 -0.14135956138E+03  0.52819840318E+03  0.00000000000E+00 0.  1.
        -13    1    3    3    0    0 -0.24415014355E+03  0.13663886461E+03 -0.79947313259E+02  0.29098289437E+03  0.00000000000E+00 0. -1.
         22    1    1    2    0    0  0.73536988878E+03 -0.26973352801E+03  0.36375145059E+03  0.86362038377E+03  0.00000000000E+00 0. -1.
<mgrwt>
<rscale>  0 0.16767621E+04</rscale>
<asrwt>0</asrwt>
<pdfrwt beam="1">  1        2 0.14040356E+00 0.16767621E+04</pdfrwt>
<pdfrwt beam="2">  1       -2 0.11848901E+00 0.16767621E+04</pdfrwt>
<totfact> 0.15019579E+01</totfact>
</mgrwt>
</event>
<event>
 6    1  0.1072514E-005  0.1444110E+04  0.7818608E-02  0.8922494E-01
         -2   -1    0    0    0  501 -0.00000000000E+00  0.00000000000E+00  0.39085518381E+03  0.39085518381E+03  0.00000000000E+00 0.  1.
          2   -1    0    0  501    0  0.00000000000E+00 -0.00000000000E+00 -0.13339050234E+04  0.13339050234E+04  0.00000000000E+00 0. -1.
         23    2    1    2    0    0 -0.28692894016E+03  0.10911222241E+03  0.30342666606E+03  0.44104007693E+03  0.90636162762E+02 0.  0.
         11    1    3    3    0    0 -0.22497939783E+03  0.77005354410E+02  0.17628370056E+03  0.29600928556E+03  0.00000000000E+00 0. -1.
        -11    1    3    3    0    0 -0.61949542326E+02  0.32106867999E+02  0.12714296550E+03  0.14503079136E+03  0.00000000000E+00 0.  1.
         22    1    1    2    0    0  0.28692894016E+03 -0.10911222241E+03 -0.12464765057E+04  0.12837201303E+04  0.00000000000E+00 0. -1.
<mgrwt>
<rscale>  0 0.14441104E+04</rscale>
<asrwt>0</asrwt>
<pdfrwt beam="1">  1        2 0.20521616E+00 0.14441104E+04</pdfrwt>
<pdfrwt beam="2">  1       -2 0.60131567E-01 0.14441104E+04</pdfrwt>
<totfact> 0.39507809E+01</totfact>
</mgrwt>
</event>
<event>
 6    1  0.1072514E-005  0.2555476E+04  0.7818608E-02  0.8383484E-01
          1   -1    0    0  501    0  0.00000000000E+00  0.00000000000E+00  0.31945788277E+04  0.31945788277E+04  0.00000000000E+00 0. -1.
         -1   -1    0    0    0  501 -0.00000000000E+00 -0.00000000000E+00 -0.51105785895E+03  0.51105785895E+03  0.00000000000E+00 0.  1.
         23    2    1    2    0    0 -0.12688811205E+04  0.13540841130E+03  0.13639486006E+04  0.18699716925E+04  0.89686173893E+02 0.  0.
         13    1    3    3    0    0 -0.85430208419E+03  0.96971516129E+02  0.85689693543E+03  0.12138813303E+04  0.00000000000E+00 0. -1.
        -13    1    3    3    0    0 -0.41457903636E+03  0.38436895173E+02  0.50705166515E+03  0.65609036225E+03  0.00000000000E+00 0.  1.
         22    1    1    2    0    0  0.12688811205E+04 -0.13540841130E+03  0.13195723682E+04  0.18356649942E+04  0.00000000000E+00 0.  1.
<mgrwt>
<rscale>  0 0.25554762E+04</rscale>
<asrwt>0</asrwt>
<pdfrwt beam="1">  1        1 0.49147366E+00 0.25554762E+04</pdfrwt>
<pdfrwt beam="2">  1       -1 0.78624288E-01 0.25554762E+04</pdfrwt>
<totfact> 0.61406977E-01</totfact>
</mgrwt>
</event>
<event>
 6    1  0.1072514E-005  0.1824117E+04  0.7818608E-02  0.8693579E-01
         -1   -1    0    0    0  501 -0.00000000000E+00  0.00000000000E+00  0.60204006197E+03  0.60204006197E+03  0.00000000000E+00 0.  1.
          1   -1    0    0  501    0  0.00000000000E+00 -0.00000000000E+00 -0.13817191643E+04  0.13817191643E+04  0.00000000000E+00 0. -1.
         23    2    1    2    0    0  0.49809141617E+03  0.75346806091E+03 -0.51345979566E+03  0.10421213464E+04  0.81035554551E+02 0.  0.
         13    1    3    3    0    0  0.29883719454E+03  0.41973177393E+03 -0.25113682296E+03  0.57319118515E+03  0.00000000000E+00 0. -1.
        -13    1    3    3    0    0  0.19925422163E+03  0.33373628698E+03 -0.26232297270E+03  0.46893016121E+03  0.00000000000E+00 0.  1.
         22    1    1    2    0    0 -0.49809141617E+03 -0.75346806091E+03 -0.26621930670E+03  0.94163787993E+03  0.00000000000E+00 0.  1.
<mgrwt>
<rscale>  0 0.18241165E+04</rscale>
<asrwt>0</asrwt>
<pdfrwt beam="1">  1        1 0.21257218E+00 0.18241165E+04</pdfrwt>
<pdfrwt beam="2">  1       -1 0.92621549E-01 0.18241165E+04</pdfrwt>
<totfact> 0.84460984E+00</totfact>
</mgrwt>
</event>
<event>
 6    1  0.1365690E-005  0.3888407E+04  0.7818608E-02  0.8027445E-01
         -2   -1    0    0    0  501 -0.00000000000E+00  0.00000000000E+00  0.15930829359E+04  0.15930829359E+04  0.00000000000E+00 0. -1.
          2   -1    0    0  501    0  0.00000000000E+00 -0.00000000000E+00 -0.23727117326E+04  0.23727117326E+04  0.00000000000E+00 0.  1.
         23    2    1    2    0    0 -0.33618470246E+03 -0.19138370793E+04 -0.40082213472E+03  0.19860757472E+04  0.89699329732E+02 0.  0.
         11    1    3    3    0    0 -0.26147182812E+03 -0.12440398868E+04 -0.26776554212E+03  0.12991155231E+04  0.00000000000E+00 0.  1.
        -11    1    3    3    0    0 -0.74712874342E+02 -0.66979719252E+03 -0.13305659260E+03  0.68696022412E+03  0.00000000000E+00 0. -1.
         22    1    1    2    0    0  0.33618470246E+03  0.19138370793E+04 -0.37880666201E+03  0.19797189213E+04  0.00000000000E+00 0. -1.
<mgrwt>
<rscale>  0 0.38884067E+04</rscale>
<asrwt>0</asrwt>
<pdfrwt beam="1">  1        2 0.36503257E+00 0.38884067E+04</pdfrwt>
<pdfrwt beam="2">  1       -2 0.24508968E+00 0.38884067E+04</pdfrwt>
<totfact> 0.22603712E-01</totfact>
</mgrwt>
</event>
<event>
 6    1  0.1072514E-005  0.3011092E+04  0.7818608E-02  0.8240571E-01
         -2   -1    0    0    0  501 -0.00000000000E+00  0.00000000000E+00  0.73465124415E+03  0.73465124415E+03  0.00000000000E+00 0.  1.
          2   -1    0    0  501    0  0.00000000000E+00 -0.00000000000E+00 -0.30853665298E+04  0.30853665298E+04  0.00000000000E+00 0. -1.
         23    2    1    2    0    0  0.11769725942E+04  0.73480976714E+03 -0.19136290605E+04  0.23652826607E+04  0.85883655874E+02 0.  0.
         13    1    3    3    0    0  0.17263505006E+03  0.10247209583E+03 -0.22847801603E+03  0.30414732407E+03  0.00000000000E+00 0. -1.
        -13    1    3    3    0    0  0.10043375442E+04  0.63233767132E+03 -0.16851510445E+04  0.20611353366E+04  0.00000000000E+00 0.  1.
         22    1    1    2    0    0 -0.11769725942E+04 -0.73480976714E+03 -0.43708622510E+03  0.14547351132E+04  0.00000000000E+00 0.  1.
<mgrwt>
<rscale>  0 0.30110917E+04</rscale>
<asrwt>0</asrwt>
<pdfrwt beam="1">  1        2 0.47467178E+00 0.30110917E+04</pdfrwt>
<pdfrwt beam="2">  1       -2 0.11302327E+00 0.30110917E+04</pdfrwt>
<totfact> 0.80835661E-01</totfact>
</mgrwt>
</event>
<event>
 6    1  0.1072514E-005  0.1897447E+04  0.7818608E-02  0.8656128E-01
         -1   -1    0    0    0  501 -0.00000000000E+00  0.00000000000E+00  0.10690022943E+04  0.10690022943E+04  0.00000000000E+00 0.  1.
          1   -1    0    0  501    0  0.00000000000E+00 -0.00000000000E+00 -0.84197812248E+03  0.84197812248E+03  0.00000000000E+00 0. -1.
         23    2    1    2    0    0  0.13004575145E+03 -0.16783383325E+03  0.10427365565E+04  0.10680884975E+04  0.91833648508E+02 0.  0.
         13    1    3    3    0    0  0.14460653595E+03 -0.15153542108E+03  0.94751453969E+03  0.97039055900E+03  0.00000000000E+00 0. -1.
        -13    1    3    3    0    0 -0.14560784501E+02 -0.16298412171E+02  0.95222016849E+02  0.97697938450E+02  0.00000000000E+00 0.  1.
         22    1    1    2    0    0 -0.13004575145E+03  0.16783383325E+03 -0.81571238473E+03  0.84289191932E+03  0.00000000000E+00 0. -1.
<mgrwt>
<rscale>  0 0.18974473E+04</rscale>
<asrwt>0</asrwt>
<pdfrwt beam="1">  1        1 0.12953510E+00 0.18974473E+04</pdfrwt>
<pdfrwt beam="2">  1       -1 0.16446189E+00 0.18974473E+04</pdfrwt>
<totfact> 0.51494662E+00</totfact>
</mgrwt>
</event>
<event>
 6    1  0.1072514E-005  0.9522916E+03  0.7818608E-02  0.9362476E-01
          1   -1    0    0  501    0  0.00000000000E+00  0.00000000000E+00  0.28377113806E+03  0.28377113806E+03  0.00000000000E+00 0. -1.
         -1   -1    0    0    0  501 -0.00000000000E+00 -0.00000000000E+00 -0.79893552311E+03  0.79893552311E+03  0.00000000000E+00 0.  1.
         23    2    1    2    0    0 -0.44336980320E+03  0.31600219508E+02 -0.78709398750E+02  0.45975536988E+03  0.87203637655E+02 0.  0.
         11    1    3    3    0    0 -0.69776930477E+02  0.16310243379E+02  0.17307301319E+02  0.73718293149E+02  0.00000000000E+00 0.  1.
        -11    1    3    3    0    0 -0.37359287272E+03  0.15289976129E+02 -0.96016700069E+02  0.38603707673E+03  0.00000000000E+00 0. -1.
         22    1    1    2    0    0  0.44336980320E+03 -0.31600219508E+02 -0.43645498629E+03  0.62295129129E+03  0.00000000000E+00 0.  1.
<mgrwt>
<rscale>  0 0.95229164E+03</rscale>
<asrwt>0</asrwt>
<pdfrwt beam="1">  1        1 0.43657098E-01 0.95229164E+03</pdfrwt>
<pdfrwt beam="2">  1       -1 0.12291316E+00 0.95229164E+03</pdfrwt>
<totfact> 0.55327999E+01</totfact>
</mgrwt>
</event>
<event>
 6    1  0.1072514E-005  0.1896059E+04  0.7818608E-02  0.8656821E-01
          2   -1    0    0  501    0  0.00000000000E+00  0.00000000000E+00  0.83928899448E+03  0.83928899448E+03  0.00000000000E+00 0. -1.
         -2   -1    0    0    0  501 -0.00000000000E+00 -0.00000000000E+00 -0.10708583393E+04  0.10708583393E+04  0.00000000000E+00 0.  1.
         23    2    1    2    0    0  0.31274956066E+03  0.48397048943E+03 -0.87167346048E+03  0.10488848875E+04  0.91132668283E+02 0.  0.
         11    1    3    3    0    0  0.10028220686E+03  0.22575533073E+03 -0.32817583019E+03  0.41075706432E+03  0.00000000000E+00 0.  1.
        -11    1    3    3    0    0  0.21246735381E+03  0.25821515870E+03 -0.54349763028E+03  0.63812782320E+03  0.00000000000E+00 0. -1.
         22    1    1    2    0    0 -0.31274956066E+03 -0.48397048943E+03  0.64010411569E+03  0.86126244622E+03  0.00000000000E+00 0. -1.
<mgrwt>
<rscale>  0 0.18960587E+04</rscale>
<asrwt>0</asrwt>
<pdfrwt beam="1">  1        2 0.12912138E+00 0.18960587E+04</pdfrwt>
<pdfrwt beam="2">  1       -2 0.16474744E+00 0.18960587E+04</pdfrwt>
<totfact> 0.70310048E+00</totfact>
</mgrwt>
</event>
<event>
 6    1  0.1072514E-005  0.3169075E+04  0.7818608E-02  0.8197032E-01
         -1   -1    0    0    0  501 -0.00000000000E+00  0.00000000000E+00  0.92832282502E+03  0.92832282502E+03  0.00000000000E+00 0.  1.
          1   -1    0    0  501    0  0.00000000000E+00 -0.00000000000E+00 -0.27046182655E+04  0.27046182655E+04  0.00000000000E+00 0. -1.
         23    2    1    2    0    0 -0.70070641349E+02  0.15742728888E+04 -0.10654958031E+04  0.19042186872E+04  0.86732225547E+02 0.  0.
         11    1    3    3    0    0 -0.31964177994E+02  0.13364002764E+04 -0.92028201644E+03  0.16229314210E+04  0.00000000000E+00 0.  1.
        -11    1    3    3    0    0 -0.38106463355E+02  0.23787261246E+03 -0.14521378663E+03  0.28128726621E+03  0.00000000000E+00 0. -1.
         22    1    1    2    0    0  0.70070641349E+02 -0.15742728888E+04 -0.71079963744E+03  0.17287224034E+04  0.00000000000E+00 0. -1.
<mgrwt>
<rscale>  0 0.31690749E+04</rscale>
<asrwt>0</asrwt>
<pdfrwt beam="1">  1        1 0.41609511E+00 0.31690749E+04</pdfrwt>
<pdfrwt beam="2">  1       -1 0.14281890E+00 0.31690749E+04</pdfrwt>
<totfact> 0.32481561E-01</totfact>
</mgrwt>
</event>
<event>
 6    1  0.1072514E-005  0.2093136E+04  0.7818608E-02  0.8564273E-01
          2   -1    0    0  501    0  0.00000000000E+00  0.00000000000E+00  0.13891650300E+04  0.13891650300E+04  0.00000000000E+00 0. -1.
         -2   -1    0    0    0  501 -0.00000000000E+00 -0.00000000000E+00 -0.78846251073E+03  0.78846251073E+03  0.00000000000E+00 0.  1.
         23    2    1    2    0    0 -0.33524055069E+03 -0.71343910789E+03 -0.41215408523E+03  0.89417123499E+03  0.91047350433E+02 0.  0.
         11    1    3    3    0    0 -0.23380396633E+03 -0.56533576372E+03 -0.34612620430E+03  0.70290267442E+03  0.00000000000E+00 0. -1.
        -11    1    3    3    0    0 -0.10143658436E+03 -0.14810334417E+03 -0.66027880934E+02  0.19126856057E+03  0.00000000000E+00 0.  1.
         22    1    1    2    0    0  0.33524055069E+03  0.71343910789E+03  0.10128566045E+04  0.12834563058E+04  0.00000000000E+00 0. -1.
<mgrwt>
<rscale>  0 0.20931360E+04</rscale>
<asrwt>0</asrwt>
<pdfrwt beam="1">  1        2 0.21371770E+00 0.20931360E+04</pdfrwt>
<pdfrwt beam="2">  1       -2 0.12130192E+00 0.20931360E+04</pdfrwt>
<totfact> 0.69978219E+00</totfact>
</mgrwt>
</event>
<event>
 6    1  0.1072514E-005  0.2242694E+04  0.7818608E-02  0.8500865E-01
         -1   -1    0    0    0  501 -0.00000000000E+00  0.00000000000E+00  0.30543565536E+04  0.30543565536E+04  0.00000000000E+00 0.  1.
          1   -1    0    0  501    0  0.00000000000E+00 -0.00000000000E+00 -0.41168046551E+03  0.41168046551E+03  0.00000000000E+00 0. -1.
         23    2    1    2    0    0 -0.94767765110E+03 -0.58759652438E+03  0.14702948802E+04  0.18480628838E+04  0.10102861940E+03 0.  0.
         11    1    3    3    0    0 -0.53711540461E+03 -0.27804953661E+03  0.76369183352E+03  0.97418156381E+03  0.00000000000E+00 0.  1.
        -11    1    3    3    0    0 -0.41056224649E+03 -0.30954698777E+03  0.70660304671E+03  0.87388132003E+03  0.00000000000E+00 0. -1.
         22    1    1    2    0    0  0.94767765110E+03  0.58759652438E+03  0.11723812078E+04  0.16179741353E+04  0.00000000000E+00 0. -1.
<mgrwt>
<rscale>  0 0.22426939E+04</rscale>
<asrwt>0</asrwt>
<pdfrwt beam="1">  1        1 0.63335458E-01 0.22426939E+04</pdfrwt>
<pdfrwt beam="2">  1       -1 0.46990099E+00 0.22426939E+04</pdfrwt>
<totfact> 0.12376065E-01</totfact>
</mgrwt>
</event>
<event>
 6    1  0.1072514E-005  0.5358256E+04  0.7818608E-02  0.7775500E-01
         -2   -1    0    0    0  501 -0.00000000000E+00  0.00000000000E+00  0.23609051890E+04  0.23609051890E+04  0.00000000000E+00 0.  1.
          2   -1    0    0  501    0  0.00000000000E+00 -0.00000000000E+00 -0.30402435603E+04  0.30402435603E+04  0.00000000000E+00 0. -1.
         23    2    1    2    0    0 -0.18804343617E+04 -0.15928637152E+04  0.71791320214E+03  0.25682067868E+04  0.83895947659E+02 0.  0.
         11    1    3    3    0    0 -0.13294346670E+04 -0.11075387480E+04  0.54101971645E+03  0.18129371047E+04  0.00000000000E+00 0.  1.
        -11    1    3    3    0    0 -0.55099969470E+03 -0.48532496716E+03  0.17689348568E+03  0.75526968203E+03  0.00000000000E+00 0. -1.
         22    1    1    2    0    0  0.18804343617E+04  0.15928637152E+04 -0.13972515734E+04  0.28329419625E+04  0.00000000000E+00 0.  1.
<mgrwt>
<rscale>  0 0.53582560E+04</rscale>
<asrwt>0</asrwt>
<pdfrwt beam="1">  1        2 0.46772978E+00 0.53582560E+04</pdfrwt>
<pdfrwt beam="2">  1       -2 0.36321618E+00 0.53582560E+04</pdfrwt>
<totfact> 0.14906040E-02</totfact>
</mgrwt>
</event>
<event>
 6    1  0.1072514E-005  0.2821273E+03  0.7818608E-02  0.1094533E+00
          3   -1    0    0  501    0  0.00000000000E+00  0.00000000000E+00  0.42884128481E+02  0.42884128481E+02  0.00000000000E+00 0. -1.
         -3   -1    0    0    0  501 -0.00000000000E+00 -0.00000000000E+00 -0.46401659049E+03  0.46401659049E+03  0.00000000000E+00 0.  1.
         23    2    1    2    0    0  0.23501605387E+02 -0.69253257389E+01 -0.45575881190E+03  0.46448291964E+03  0.86185859749E+02 0.  0.
         11    1    3    3    0    0  0.89688741360E+01  0.22569051076E+02 -0.39194132839E+03  0.39269301963E+03  0.00000000000E+00 0. -1.
        -11    1    3    3    0    0  0.14532731251E+02 -0.29494376815E+02 -0.63817483515E+02  0.71789900010E+02  0.00000000000E+00 0.  1.
         22    1    1    2    0    0 -0.23501605387E+02  0.69253257389E+01  0.34626349897E+02  0.42417799325E+02  0.00000000000E+00 0. -1.
<mgrwt>
<rscale>  0 0.28212726E+03</rscale>
<asrwt>0</asrwt>
<pdfrwt beam="1">  1        3 0.65975581E-02 0.28212726E+03</pdfrwt>
<pdfrwt beam="2">  1       -3 0.71387169E-01 0.28212726E+03</pdfrwt>
<totfact> 0.70955256E+02</totfact>
</mgrwt>
</event>
<event>
 6    1  0.1072514E-005  0.2275174E+04  0.7818608E-02  0.8487774E-01
          1   -1    0    0  501    0  0.00000000000E+00  0.00000000000E+00  0.85774784730E+03  0.85774784730E+03  0.00000000000E+00 0. -1.
         -1   -1    0    0    0  501 -0.00000000000E+00 -0.00000000000E+00 -0.15087239363E+04  0.15087239363E+04  0.00000000000E+00 0.  1.
         23    2    1    2    0    0 -0.14941709521E+03  0.70999987962E+03 -0.12350718052E+04  0.14350250041E+04  0.86423961143E+02 0.  0.
         13    1    3    3    0    0 -0.14267100367E+03  0.57782471450E+03 -0.10585556025E+04  0.12144037136E+04  0.00000000000E+00 0. -1.
        -13    1    3    3    0    0 -0.67460915440E+01  0.13217516512E+03 -0.17651620271E+03  0.22062129055E+03  0.00000000000E+00 0.  1.
         22    1    1    2    0    0  0.14941709521E+03 -0.70999987962E+03  0.58409571617E+03  0.93144677951E+03  0.00000000000E+00 0. -1.
<mgrwt>
<rscale>  0 0.22751745E+04</rscale>
<asrwt>0</asrwt>
<pdfrwt beam="1">  1        1 0.13196121E+00 0.22751745E+04</pdfrwt>
<pdfrwt beam="2">  1       -1 0.23211137E+00 0.22751745E+04</pdfrwt>
<totfact> 0.16332294E+00</totfact>
</mgrwt>
</event>
<event>
 6    1  0.1072514E-005  0.3290849E+04  0.7818608E-02  0.8165228E-01
         -2   -1    0    0    0  501 -0.00000000000E+00  0.00000000000E+00  0.19634517863E+04  0.19634517863E+04  0.00000000000E+00 0.  1.
          2   -1    0    0  501    0  0.00000000000E+00 -0.00000000000E+00 -0.13789091034E+04  0.13789091034E+04  0.00000000000E+00 0. -1.
         23    2    1    2    0    0  0.10986241064E+04  0.65935962334E+03 -0.75395920880E+03  0.14894395869E+04  0.90806137105E+02 0.  0.
         13    1    3    3    0    0  0.22454274697E+03  0.17711463177E+03 -0.15603683269E+03  0.32578602051E+03  0.00000000000E+00 0. -1.
        -13    1    3    3    0    0  0.87408135941E+03  0.48224499157E+03 -0.59792237611E+03  0.11636535664E+04  0.00000000000E+00 0.  1.
         22    1    1    2    0    0 -0.10986241064E+04 -0.65935962334E+03  0.13385018918E+04  0.18529213028E+04  0.00000000000E+00 0.  1.
<mgrwt>
<rscale>  0 0.32908489E+04</rscale>
<asrwt>0</asrwt>
<pdfrwt beam="1">  1        2 0.21213986E+00 0.32908489E+04</pdfrwt>
<pdfrwt beam="2">  1       -2 0.30206951E+00 0.32908489E+04</pdfrwt>
<totfact> 0.38387420E-01</totfact>
</mgrwt>
</event>
<event>
 6    1  0.1072514E-005  0.8748749E+03  0.7818608E-02  0.9457546E-01
         -2   -1    0    0    0  501 -0.00000000000E+00  0.00000000000E+00  0.89357571001E+02  0.89357571001E+02  0.00000000000E+00 0.  1.
          2   -1    0    0  501    0  0.00000000000E+00 -0.00000000000E+00 -0.21414136953E+04  0.21414136953E+04  0.00000000000E+00 0. -1.
         23    2    1    2    0    0  0.76137212609E+02 -0.41799622227E+03 -0.12446892834E+04  0.13184341944E+04  0.92193252304E+02 0.  0.
         11    1    3    3    0    0  0.84208980172E+02 -0.33750541509E+03 -0.10854454129E+04  0.11398213904E+04  0.00000000000E+00 0. -1.
        -11    1    3    3    0    0 -0.80717675631E+01 -0.80490807173E+02 -0.15924387053E+03  0.17861280405E+03  0.00000000000E+00 0.  1.
         22    1    1    2    0    0 -0.76137212609E+02  0.41799622227E+03 -0.80736684083E+03  0.91233707183E+03  0.00000000000E+00 0.  1.
<mgrwt>
<rscale>  0 0.87487491E+03</rscale>
<asrwt>0</asrwt>
<pdfrwt beam="1">  1        2 0.32944826E+00 0.87487491E+03</pdfrwt>
<pdfrwt beam="2">  1       -2 0.13747318E-01 0.87487491E+03</pdfrwt>
<totfact> 0.22984502E+02</totfact>
</mgrwt>
</event>
<event>
 6    1  0.1072514E-005  0.2079969E+04  0.7818608E-02  0.8570119E-01
          2   -1    0    0  501    0  0.00000000000E+00  0.00000000000E+00  0.24975314063E+04  0.24975314063E+04  0.00000000000E+00 0. -1.
         -2   -1    0    0    0  501 -0.00000000000E+00 -0.00000000000E+00 -0.43305481497E+03  0.43305481497E+03  0.00000000000E+00 0.  1.
         23    2    1    2    0    0 -0.58357095670E+03  0.73287612456E+03  0.40310384872E+03  0.10232787302E+04  0.83331695371E+02 0.  0.
         13    1    3    3    0    0 -0.36761514644E+03  0.48282759465E+03  0.21970131389E+03  0.64539294184E+03  0.00000000000E+00 0.  1.
        -13    1    3    3    0    0 -0.21595581027E+03  0.25004852991E+03  0.18340253482E+03  0.37788578840E+03  0.00000000000E+00 0. -1.
         22    1    1    2    0    0  0.58357095670E+03 -0.73287612456E+03  0.16613727426E+04  0.19073074910E+04  0.00000000000E+00 0. -1.
<mgrwt>
<rscale>  0 0.20799692E+04</rscale>
<asrwt>0</asrwt>
<pdfrwt beam="1">  1        2 0.38423559E+00 0.20799692E+04</pdfrwt>
<pdfrwt beam="2">  1       -2 0.66623819E-01 0.20799692E+04</pdfrwt>
<totfact> 0.66755290E+00</totfact>
</mgrwt>
</event>
<event>
 6    1  0.1072514E-005  0.9853419E+03  0.7818608E-02  0.9324769E-01
          2   -1    0    0  501    0  0.00000000000E+00  0.00000000000E+00  0.24341041910E+04  0.24341041910E+04  0.00000000000E+00 0. -1.
         -2   -1    0    0    0  501 -0.00000000000E+00 -0.00000000000E+00 -0.99718277473E+02  0.99718277473E+02  0.00000000000E+00 0.  1.
         23    2    1    2    0    0  0.31553512345E+03  0.28734720799E+03  0.17885895054E+04  0.18409844274E+04  0.89668338675E+02 0.  0.
         13    1    3    3    0    0  0.21983735875E+02  0.25015835459E+02  0.27596280868E+03  0.27796501298E+03  0.00000000000E+00 0.  1.
        -13    1    3    3    0    0  0.29355138758E+03  0.26233137253E+03  0.15126266967E+04  0.15630194144E+04  0.00000000000E+00 0. -1.
         22    1    1    2    0    0 -0.31553512345E+03 -0.28734720799E+03  0.54579640816E+03  0.69283804113E+03  0.00000000000E+00 0.  1.
<mgrwt>
<rscale>  0 0.98534192E+03</rscale>
<asrwt>0</asrwt>
<pdfrwt beam="1">  1        2 0.37447752E+00 0.98534192E+03</pdfrwt>
<pdfrwt beam="2">  1       -2 0.15341275E-01 0.98534192E+03</pdfrwt>
<totfact> 0.12983040E+02</totfact>
</mgrwt>
</event>
<event>
 6    1  0.1072514E-005  0.3328872E+04  0.7818608E-02  0.8155588E-01
          2   -1    0    0  501    0  0.00000000000E+00  0.00000000000E+00  0.23918045794E+04  0.23918045794E+04  0.00000000000E+00 0.  1.
         -2   -1    0    0    0  501 -0.00000000000E+00 -0.00000000000E+00 -0.11582662862E+04  0.11582662862E+04  0.00000000000E+00 0. -1.
         23    2    1    2    0    0 -0.86884755016E+03 -0.12400545689E+04 -0.11669866713E+03  0.15213344982E+04  0.90601751077E+02 0.  0.
         13    1    3    3    0    0 -0.28468264402E+03 -0.45300769178E+03 -0.71275749393E+01  0.53508034812E+03  0.00000000000E+00 0.  1.
        -13    1    3    3    0    0 -0.58416490614E+03 -0.78704687711E+03 -0.10957109219E+03  0.98625415010E+03  0.00000000000E+00 0. -1.
         22    1    1    2    0    0  0.86884755016E+03  0.12400545689E+04  0.13502369603E+04  0.20287363674E+04  0.00000000000E+00 0.  1.
<mgrwt>
<rscale>  0 0.33288716E+04</rscale>
<asrwt>0</asrwt>
<pdfrwt beam="1">  1        2 0.36796993E+00 0.33288716E+04</pdfrwt>
<pdfrwt beam="2">  1       -2 0.17819481E+00 0.33288716E+04</pdfrwt>
<totfact> 0.62490002E-01</totfact>
</mgrwt>
</event>
<event>
 6    1  0.1234869E-005  0.4004738E+04  0.7818608E-02  0.8003591E-01
          2   -1    0    0  501    0  0.00000000000E+00  0.00000000000E+00  0.28171314901E+04  0.28171314901E+04  0.00000000000E+00 0.  1.
         -2   -1    0    0    0  501 -0.00000000000E+00 -0.00000000000E+00 -0.14232497559E+04  0.14232497559E+04  0.00000000000E+00 0. -1.
         23    2    1    2    0    0  0.23076600055E+03  0.11172905719E+04 -0.10437392779E+04  0.15489899018E+04  0.91579837848E+02 0.  0.
         11    1    3    3    0    0  0.15743511922E+03  0.55647827921E+03 -0.55349777338E+03  0.80050838668E+03  0.00000000000E+00 0. -1.
        -11    1    3    3    0    0  0.73330881330E+02  0.56081229273E+03 -0.49024150448E+03  0.74848151516E+03  0.00000000000E+00 0.  1.
         22    1    1    2    0    0 -0.23076600055E+03 -0.11172905719E+04  0.24376210121E+04  0.26913913442E+04  0.00000000000E+00 0.  1.
<mgrwt>
<rscale>  0 0.40047380E+04</rscale>
<asrwt>0</asrwt>
<pdfrwt beam="1">  1        2 0.43340484E+00 0.40047380E+04</pdfrwt>
<pdfrwt beam="2">  1       -2 0.21896150E+00 0.40047380E+04</pdfrwt>
<totfact> 0.17860381E-01</totfact>
</mgrwt>
</event>
<event>
 6    1  0.1072514E-005  0.3162884E+04  0.7818608E-02  0.8198689E-01
          2   -1    0    0  501    0  0.00000000000E+00  0.00000000000E+00  0.41724281153E+04  0.41724281153E+04  0.00000000000E+00 0. -1.
         -2   -1    0    0    0  501 -0.00000000000E+00 -0.00000000000E+00 -0.59940112062E+03  0.59940112062E+03  0.00000000000E+00 0.  1.
         23    2    1    2    0    0 -0.12753137519E+04  0.67614057553E+03  0.27579010170E+04  0.31141134571E+04  0.89963107512E+02 0.  0.
         13    1    3    3    0    0 -0.20093672321E+03  0.71595390894E+02  0.39014660656E+03  0.44465249503E+03  0.00000000000E+00 0.  1.
        -13    1    3    3    0    0 -0.10743770287E+04  0.60454518464E+03  0.23677544104E+04  0.26694609621E+04  0.00000000000E+00 0. -1.
         22    1    1    2    0    0  0.12753137519E+04 -0.67614057553E+03  0.81512597773E+03  0.16577157788E+04  0.00000000000E+00 0.  1.
<mgrwt>
<rscale>  0 0.31628836E+04</rscale>
<asrwt>0</asrwt>
<pdfrwt beam="1">  1        2 0.64191200E+00 0.31628836E+04</pdfrwt>
<pdfrwt beam="2">  1       -2 0.92215560E-01 0.31628836E+04</pdfrwt>
<totfact> 0.20690484E-01</totfact>
</mgrwt>
</event>
<event>
 6    1  0.1072514E-005  0.2449744E+04  0.7818608E-02  0.8421111E-01
          2   -1    0    0  501    0  0.00000000000E+00  0.00000000000E+00  0.25572686804E+04  0.25572686804E+04  0.00000000000E+00 0. -1.
         -2   -1    0    0    0  501 -0.00000000000E+00 -0.00000000000E+00 -0.58668525484E+03  0.58668525484E+03  0.00000000000E+00 0.  1.
         23    2    1    2    0    0  0.23102930367E+03 -0.14918917014E+03  0.25162785477E+04  0.25328769237E+04  0.90420317326E+02 0.  0.
         13    1    3    3    0    0  0.11014882298E+03 -0.21636085713E+02  0.85767761822E+03  0.86499235847E+03  0.00000000000E+00 0.  1.
        -13    1    3    3    0    0  0.12088048070E+03 -0.12755308442E+03  0.16586009294E+04  0.16678845653E+04  0.00000000000E+00 0. -1.
         22    1    1    2    0    0 -0.23102930367E+03  0.14918917014E+03 -0.54569512212E+03  0.61107701147E+03  0.00000000000E+00 0.  1.
<mgrwt>
<rscale>  0 0.24497443E+04</rscale>
<asrwt>0</asrwt>
<pdfrwt beam="1">  1        2 0.39342595E+00 0.24497443E+04</pdfrwt>
<pdfrwt beam="2">  1       -2 0.90259271E-01 0.24497443E+04</pdfrwt>
<totfact> 0.30306121E+00</totfact>
</mgrwt>
</event>
<event>
 6    1  0.1072514E-005  0.2930190E+04  0.7818608E-02  0.8263951E-01
          2   -1    0    0  501    0  0.00000000000E+00  0.00000000000E+00  0.28283053844E+04  0.28283053844E+04  0.00000000000E+00 0.  1.
         -2   -1    0    0    0  501 -0.00000000000E+00 -0.00000000000E+00 -0.75893616265E+03  0.75893616265E+03  0.00000000000E+00 0. -1.
         23    2    1    2    0    0 -0.54149776363E+03  0.78023668866E+03  0.23991033630E+04  0.25818989576E+04  0.92283056643E+02 0.  0.
         11    1    3    3    0    0 -0.36282090317E+03  0.56009165448E+03  0.17790872281E+04  0.19001297415E+04  0.00000000000E+00 0. -1.
        -11    1    3    3    0    0 -0.17867686045E+03  0.22014503418E+03  0.62001613492E+03  0.68176921616E+03  0.00000000000E+00 0.  1.
         22    1    1    2    0    0  0.54149776363E+03 -0.78023668866E+03 -0.32973414123E+03  0.10053425895E+04  0.00000000000E+00 0. -1.
<mgrwt>
<rscale>  0 0.29301899E+04</rscale>
<asrwt>0</asrwt>
<pdfrwt beam="1">  1        2 0.43512390E+00 0.29301899E+04</pdfrwt>
<pdfrwt beam="2">  1       -2 0.11675941E+00 0.29301899E+04</pdfrwt>
<totfact> 0.10867094E+00</totfact>
</mgrwt>
</event>
<event>
 6    1  0.1353720E-005  0.3682067E+04  0.7818608E-02  0.8071948E-01
          1   -1    0    0  501    0  0.00000000000E+00  0.00000000000E+00  0.26484753837E+04  0.26484753837E+04  0.00000000000E+00 0. -1.
         -1   -1    0    0    0  501 -0.00000000000E+00 -0.00000000000E+00 -0.12797568086E+04  0.12797568086E+04  0.00000000000E+00 0.  1.
         23    2    1    2    0    0  0.95407076763E+03  0.10561908741E+03 -0.98970451271E+03  0.13819474709E+04  0.94113593623E+02 0.  0.
         11    1    3    3    0    0  0.48690462584E+03  0.74648733423E+02 -0.56790497101E+03  0.75177430400E+03  0.00000000000E+00 0. -1.
        -11    1    3    3    0    0  0.46716614179E+03  0.30970353986E+02 -0.42179954170E+03  0.63017316687E+03  0.00000000000E+00 0.  1.
         22    1    1    2    0    0 -0.95407076763E+03 -0.10561908741E+03  0.23584230878E+04  0.25462847214E+04  0.00000000000E+00 0. -1.
<mgrwt>
<rscale>  0 0.36820670E+04</rscale>
<asrwt>0</asrwt>
<pdfrwt beam="1">  1        1 0.40745775E+00 0.36820670E+04</pdfrwt>
<pdfrwt beam="2">  1       -1 0.19688566E+00 0.36820670E+04</pdfrwt>
<totfact> 0.13557108E-01</totfact>
</mgrwt>
</event>
<event>
 6    1  0.1072514E-005  0.3124741E+04  0.7818608E-02  0.8208981E-01
          2   -1    0    0  501    0  0.00000000000E+00  0.00000000000E+00  0.37224611491E+04  0.37224611491E+04  0.00000000000E+00 0. -1.
         -2   -1    0    0    0  501 -0.00000000000E+00 -0.00000000000E+00 -0.65574928265E+03  0.65574928265E+03  0.00000000000E+00 0.  1.
         23    2    1    2    0    0  0.13530621669E+04  0.64689569521E+03  0.21416453414E+04  0.26161095993E+04  0.90185361241E+02 0.  0.
         13    1    3    3    0    0  0.45942183513E+03  0.18450837239E+03  0.75586852105E+03  0.90357566545E+03  0.00000000000E+00 0. -1.
        -13    1    3    3    0    0  0.89364033176E+03  0.46238732282E+03  0.13857768203E+04  0.17125339339E+04  0.00000000000E+00 0.  1.
         22    1    1    2    0    0 -0.13530621669E+04 -0.64689569521E+03  0.92506652511E+03  0.17621008325E+04  0.00000000000E+00 0. -1.
<mgrwt>
<rscale>  0 0.31247408E+04</rscale>
<asrwt>0</asrwt>
<pdfrwt beam="1">  1        2 0.57268632E+00 0.31247408E+04</pdfrwt>
<pdfrwt beam="2">  1       -2 0.10088451E+00 0.31247408E+04</pdfrwt>
<totfact> 0.38452281E-01</totfact>
</mgrwt>
</event>
<event>
 6    1  0.1072514E-005  0.3766172E+04  0.7818608E-02  0.8053453E-01
          2   -1    0    0  501    0  0.00000000000E+00  0.00000000000E+00  0.18673974479E+04  0.18673974479E+04  0.00000000000E+00 0. -1.
         -2   -1    0    0    0  501 -0.00000000000E+00 -0.00000000000E+00 -0.18989068258E+04  0.18989068258E+04  0.00000000000E+00 0.  1.
         23    2    1    2    0    0  0.81386590318E+03 -0.11478062123E+04 -0.12655689447E+04  0.18947434750E+04  0.92473092688E+02 0.  0.
         11    1    3    3    0    0  0.10490600886E+03 -0.10427091648E+03 -0.15031187292E+03  0.21088232230E+03  0.00000000000E+00 0. -1.
        -11    1    3    3    0    0  0.70895989432E+03 -0.10435352958E+04 -0.11152570718E+04  0.16838611527E+04  0.00000000000E+00 0.  1.
         22    1    1    2    0    0 -0.81386590318E+03  0.11478062123E+04  0.12340595668E+04  0.18715607988E+04  0.00000000000E+00 0. -1.
<mgrwt>
<rscale>  0 0.37661725E+04</rscale>
<asrwt>0</asrwt>
<pdfrwt beam="1">  1        2 0.28729192E+00 0.37661725E+04</pdfrwt>
<pdfrwt beam="2">  1       -2 0.29213951E+00 0.37661725E+04</pdfrwt>
<totfact> 0.22599580E-01</totfact>
</mgrwt>
</event>
<event>
 6    1  0.1072514E-005  0.2701676E+04  0.7818608E-02  0.8334461E-01
          1   -1    0    0  501    0  0.00000000000E+00  0.00000000000E+00  0.18118158338E+04  0.18118158338E+04  0.00000000000E+00 0. -1.
         -1   -1    0    0    0  501 -0.00000000000E+00 -0.00000000000E+00 -0.10071462155E+04  0.10071462155E+04  0.00000000000E+00 0.  1.
         23    2    1    2    0    0 -0.90414929240E+03  0.52049426949E+03 -0.49009490795E+03  0.11561886414E+04  0.90437426873E+02 0.  0.
         11    1    3    3    0    0 -0.80989621831E+03  0.49256028029E+03 -0.45810332591E+03  0.10528087060E+04  0.00000000000E+00 0.  1.
        -11    1    3    3    0    0 -0.94253074095E+02  0.27933989202E+02 -0.31991582043E+02  0.10337993544E+03  0.00000000000E+00 0. -1.
         22    1    1    2    0    0  0.90414929240E+03 -0.52049426949E+03  0.12947645263E+04  0.16627734079E+04  0.00000000000E+00 0. -1.
<mgrwt>
<rscale>  0 0.27016761E+04</rscale>
<asrwt>0</asrwt>
<pdfrwt beam="1">  1        1 0.27874090E+00 0.27016761E+04</pdfrwt>
<pdfrwt beam="2">  1       -1 0.15494557E+00 0.27016761E+04</pdfrwt>
<totfact> 0.11152920E+00</totfact>
</mgrwt>
</event>
<event>
 6    1  0.1072514E-005  0.3439626E+04  0.7818608E-02  0.8128249E-01
          1   -1    0    0  501    0  0.00000000000E+00  0.00000000000E+00  0.20304164021E+04  0.20304164021E+04  0.00000000000E+00 0. -1.
         -1   -1    0    0    0  501 -0.00000000000E+00 -0.00000000000E+00 -0.14567239636E+04  0.14567239636E+04  0.00000000000E+00 0.  1.
         23    2    1    2    0    0 -0.13493270255E+04 -0.90847932259E+03  0.84947374126E+03  0.18372696348E+04  0.89084075543E+02 0.  0.
         11    1    3    3    0    0 -0.57215956138E+03 -0.42710044003E+03  0.34174232317E+03  0.79156122000E+03  0.00000000000E+00 0. -1.
        -11    1    3    3    0    0 -0.77716746416E+03 -0.48137888256E+03  0.50773141808E+03  0.10457084148E+04  0.00000000000E+00 0.  1.
         22    1    1    2    0    0  0.13493270255E+04  0.90847932259E+03 -0.27578130277E+03  0.16498707308E+04  0.00000000000E+00 0.  1.
<mgrwt>
<rscale>  0 0.34396257E+04</rscale>
<asrwt>0</asrwt>
<pdfrwt beam="1">  1        1 0.31237175E+00 0.34396257E+04</pdfrwt>
<pdfrwt beam="2">  1       -1 0.22411138E+00 0.34396257E+04</pdfrwt>
<totfact> 0.24070888E-01</totfact>
</mgrwt>
</event>
<event>
 6    1  0.1072514E-005  0.3087205E+04  0.7818608E-02  0.8219258E-01
         -1   -1    0    0    0  501 -0.00000000000E+00  0.00000000000E+00  0.27591739971E+04  0.27591739971E+04  0.00000000000E+00 0.  1.
          1   -1    0    0  501    0  0.00000000000E+00 -0.00000000000E+00 -0.86355865657E+03  0.86355865657E+03  0.00000000000E+00 0. -1.
         23    2    1    2    0    0  0.84885201912E+03  0.46294023613E+03 -0.46137162375E+03  0.10751355579E+04  0.90494641250E+02 0.  0.
         11    1    3    3    0    0  0.42244188302E+03  0.23536982217E+03 -0.18088535523E+03  0.51630960620E+03  0.00000000000E+00 0. -1.
        -11    1    3    3    0    0  0.42641013610E+03  0.22757041395E+03 -0.28048626852E+03  0.55882595171E+03  0.00000000000E+00 0.  1.
         22    1    1    2    0    0 -0.84885201912E+03 -0.46294023613E+03  0.23569869643E+04  0.25475970958E+04  0.00000000000E+00 0.  1.
<mgrwt>
<rscale>  0 0.30872049E+04</rscale>
<asrwt>0</asrwt>
<pdfrwt beam="1">  1        1 0.13285518E+00 0.30872049E+04</pdfrwt>
<pdfrwt beam="2">  1       -1 0.42448830E+00 0.30872049E+04</pdfrwt>
<totfact> 0.79933117E-02</totfact>
</mgrwt>
</event>
<event>
 6    1  0.1072514E-005  0.2983027E+04  0.7818608E-02  0.8248594E-01
         -2   -1    0    0    0  501 -0.00000000000E+00  0.00000000000E+00  0.59444146307E+03  0.59444146307E+03  0.00000000000E+00 0.  1.
          2   -1    0    0  501    0  0.00000000000E+00 -0.00000000000E+00 -0.37423572168E+04  0.37423572168E+04  0.00000000000E+00 0. -1.
         23    2    1    2    0    0 -0.13089023388E+04 -0.71184840163E+03 -0.15409741604E+04  0.21454030598E+04  0.90550794926E+02 0.  0.
         13    1    3    3    0    0 -0.71557043888E+03 -0.36054437921E+03 -0.77419119267E+03  0.11141836945E+04  0.00000000000E+00 0. -1.
        -13    1    3    3    0    0 -0.59333189990E+03 -0.35130402243E+03 -0.76678296771E+03  0.10312193652E+04  0.00000000000E+00 0.  1.
         22    1    1    2    0    0  0.13089023388E+04  0.71184840163E+03 -0.16069415933E+04  0.21913956201E+04  0.00000000000E+00 0. -1.
<mgrwt>
<rscale>  0 0.29830269E+04</rscale>
<asrwt>0</asrwt>
<pdfrwt beam="1">  1        2 0.57574727E+00 0.29830269E+04</pdfrwt>
<pdfrwt beam="2">  1       -2 0.91452533E-01 0.29830269E+04</pdfrwt>
<totfact> 0.47357480E-01</totfact>
</mgrwt>
</event>
<event>
 6    1  0.1072514E-005  0.1506502E+04  0.7818608E-02  0.8880141E-01
         -2   -1    0    0    0  501 -0.00000000000E+00  0.00000000000E+00  0.78980846323E+03  0.78980846323E+03  0.00000000000E+00 0.  1.
          2   -1    0    0  501    0  0.00000000000E+00 -0.00000000000E+00 -0.71838530176E+03  0.71838530176E+03  0.00000000000E+00 0. -1.
         23    2    1    2    0    0 -0.38939362034E+03 -0.19844362096E+03  0.64641567096E+03  0.78595858983E+03  0.94182923108E+02 0.  0.
         13    1    3    3    0    0 -0.32210310496E+03 -0.16991462096E+03  0.59118277909E+03  0.69434751165E+03  0.00000000000E+00 0.  1.
        -13    1    3    3    0    0 -0.67290515382E+02 -0.28529000002E+02  0.55232891868E+02  0.91611078181E+02  0.00000000000E+00 0. -1.
         22    1    1    2    0    0  0.38939362034E+03  0.19844362096E+03 -0.57499250949E+03  0.72223517515E+03  0.00000000000E+00 0. -1.
<mgrwt>
<rscale>  0 0.15065016E+04</rscale>
<asrwt>0</asrwt>
<pdfrwt beam="1">  1        2 0.11052082E+00 0.15065016E+04</pdfrwt>
<pdfrwt beam="2">  1       -2 0.12150899E+00 0.15065016E+04</pdfrwt>
<totfact> 0.19702287E+01</totfact>
</mgrwt>
</event>
<event>
 6    1  0.1072514E-005  0.2501618E+04  0.7818608E-02  0.8402409E-01
         -2   -1    0    0    0  501 -0.00000000000E+00  0.00000000000E+00  0.43654378368E+03  0.43654378368E+03  0.00000000000E+00 0. -1.
          2   -1    0    0  501    0  0.00000000000E+00 -0.00000000000E+00 -0.35838858196E+04  0.35838858196E+04  0.00000000000E+00 0.  1.
         23    2    1    2    0    0  0.58649220653E+03 -0.20471100035E+03 -0.33177256088E+04  0.33762943194E+04  0.78615608631E+02 0.  0.
         11    1    3    3    0    0  0.26398620913E+02 -0.27748983754E+02 -0.23642292687E+03  0.23950510148E+03  0.00000000000E+00 0.  1.
        -11    1    3    3    0    0  0.56009358562E+03 -0.17696201660E+03 -0.30813026819E+04  0.31367892179E+04  0.00000000000E+00 0. -1.
         22    1    1    2    0    0 -0.58649220653E+03  0.20471100035E+03  0.17038357291E+03  0.64413528385E+03  0.00000000000E+00 0. -1.
<mgrwt>
<rscale>  0 0.25016179E+04</rscale>
<asrwt>0</asrwt>
<pdfrwt beam="1">  1        2 0.55136703E+00 0.25016179E+04</pdfrwt>
<pdfrwt beam="2">  1       -2 0.67160584E-01 0.25016179E+04</pdfrwt>
<totfact> 0.12882717E+00</totfact>
</mgrwt>
</event>
<event>
 6    1  0.1072514E-005  0.1076036E+04  0.7818608E-02  0.9228869E-01
          2   -1    0    0  501    0  0.00000000000E+00  0.00000000000E+00  0.17198696149E+04  0.17198696149E+04  0.00000000000E+00 0. -1.
         -2   -1    0    0    0  501 -0.00000000000E+00 -0.00000000000E+00 -0.16830537786E+03  0.16830537786E+03  0.00000000000E+00 0.  1.
         23    2    1    2    0    0 -0.33835919559E+03 -0.41218544639E+03  0.73802209613E+03  0.91542908427E+03  0.94604474067E+02 0.  0.
         13    1    3    3    0    0 -0.29585777629E+03 -0.35942274608E+03  0.69011360192E+03  0.83245018935E+03  0.00000000000E+00 0. -1.
        -13    1    3    3    0    0 -0.42501419293E+02 -0.52762700311E+02  0.47908494205E+02  0.82978894925E+02  0.00000000000E+00 0.  1.
         22    1    1    2    0    0  0.33835919559E+03  0.41218544639E+03  0.81354214091E+03  0.97274590849E+03  0.00000000000E+00 0. -1.
<mgrwt>
<rscale>  0 0.10760359E+04</rscale>
<asrwt>0</asrwt>
<pdfrwt beam="1">  1        2 0.26459531E+00 0.10760359E+04</pdfrwt>
<pdfrwt beam="2">  1       -2 0.25893136E-01 0.10760359E+04</pdfrwt>
<totfact> 0.12794289E+02</totfact>
</mgrwt>
</event>
<event>
 6    1  0.1072514E-005  0.2634795E+04  0.7818608E-02  0.8356477E-01
         -1   -1    0    0    0  501 -0.00000000000E+00  0.00000000000E+00  0.89555705401E+03  0.89555705401E+03  0.00000000000E+00 0.  1.
          1   -1    0    0  501    0  0.00000000000E+00 -0.00000000000E+00 -0.19379397274E+04  0.19379397274E+04  0.00000000000E+00 0. -1.
         23    2    1    2    0    0  0.41848602435E+03  0.51564799701E+03  0.69981760559E+03  0.96901690179E+03  0.90695454497E+02 0.  0.
         13    1    3    3    0    0  0.23043578616E+03  0.35338338928E+03  0.44188099991E+03  0.61093313009E+03  0.00000000000E+00 0.  1.
        -13    1    3    3    0    0  0.18805023819E+03  0.16226460773E+03  0.25793660569E+03  0.35808377170E+03  0.00000000000E+00 0. -1.
         22    1    1    2    0    0 -0.41848602435E+03 -0.51564799701E+03 -0.17422002790E+04  0.18644798796E+04  0.00000000000E+00 0. -1.
<mgrwt>
<rscale>  0 0.26347946E+04</rscale>
<asrwt>0</asrwt>
<pdfrwt beam="1">  1        1 0.29814457E+00 0.26347946E+04</pdfrwt>
<pdfrwt beam="2">  1       -1 0.13777801E+00 0.26347946E+04</pdfrwt>
<totfact> 0.12599286E+00</totfact>
</mgrwt>
</event>
<event>
 6    1  0.1072514E-005  0.1912837E+04  0.7818608E-02  0.8648493E-01
          2   -1    0    0  501    0  0.00000000000E+00  0.00000000000E+00  0.18512130126E+04  0.18512130126E+04  0.00000000000E+00 0. -1.
         -2   -1    0    0    0  501 -0.00000000000E+00 -0.00000000000E+00 -0.49412818357E+03  0.49412818357E+03  0.00000000000E+00 0.  1.
         23    2    1    2    0    0  0.25853690394E+03 -0.91912169551E+03  0.70127222509E+03  0.11870164604E+04  0.74828616425E+02 0.  0.
         13    1    3    3    0    0  0.14517810188E+03 -0.39982152561E+03  0.33630383838E+03  0.54224920960E+03  0.00000000000E+00 0.  1.
        -13    1    3    3    0    0  0.11335880205E+03 -0.51930016991E+03  0.36496838671E+03  0.64476725085E+03  0.00000000000E+00 0. -1.
         22    1    1    2    0    0 -0.25853690394E+03  0.91912169551E+03  0.65581260390E+03  0.11583247357E+04  0.00000000000E+00 0.  1.
<mgrwt>
<rscale>  0 0.19128372E+04</rscale>
<asrwt>0</asrwt>
<pdfrwt beam="1">  1        2 0.28480200E+00 0.19128372E+04</pdfrwt>
<pdfrwt beam="2">  1       -2 0.76019722E-01 0.19128372E+04</pdfrwt>
<totfact> 0.11716223E+01</totfact>
</mgrwt>
</event>
<event>
 6    1  0.1072514E-005  0.4002246E+04  0.7818608E-02  0.8004094E-01
          1   -1    0    0  501    0  0.00000000000E+00  0.00000000000E+00  0.34296215003E+04  0.34296215003E+04  0.00000000000E+00 0. -1.
         -1   -1    0    0    0  501 -0.00000000000E+00 -0.00000000000E+00 -0.11676197605E+04  0.11676197605E+04  0.00000000000E+00 0.  1.
         23    2    1    2    0    0 -0.13551118866E+04 -0.14395327622E+04  0.78341426412E+03  0.21284756336E+04  0.89932279321E+02 0.  0.
         13    1    3    3    0    0 -0.51320465755E+03 -0.60862623201E+03  0.32299803815E+03  0.85914646218E+03  0.00000000000E+00 0.  1.
        -13    1    3    3    0    0 -0.84190722904E+03 -0.83090653019E+03  0.46041622598E+03  0.12693291714E+04  0.00000000000E+00 0. -1.
         22    1    1    2    0    0  0.13551118866E+04  0.14395327622E+04  0.14785874757E+04  0.24687656272E+04  0.00000000000E+00 0. -1.
<mgrwt>
<rscale>  0 0.40022463E+04</rscale>
<asrwt>0</asrwt>
<pdfrwt beam="1">  1        1 0.52763407E+00 0.40022463E+04</pdfrwt>
<pdfrwt beam="2">  1       -1 0.17963381E+00 0.40022463E+04</pdfrwt>
<totfact> 0.46424027E-02</totfact>
</mgrwt>
</event>
<event>
 6    1  0.1127252E-005  0.1865568E+04  0.7818608E-02  0.8672188E-01
          2   -1    0    0  501    0  0.00000000000E+00  0.00000000000E+00  0.96923245613E+03  0.96923245613E+03  0.00000000000E+00 0. -1.
         -2   -1    0    0    0  501 -0.00000000000E+00 -0.00000000000E+00 -0.89770594170E+03  0.89770594170E+03  0.00000000000E+00 0.  1.
         23    2    1    2    0    0  0.28257727825E+03 -0.83075084289E+03  0.34571896438E+03  0.94760256107E+03  0.91826631666E+02 0.  0.
         11    1    3    3    0    0  0.14092416277E+03 -0.46736402182E+03  0.14655529605E+03  0.50967362434E+03  0.00000000000E+00 0. -1.
        -11    1    3    3    0    0  0.14165311547E+03 -0.36338682107E+03  0.19916366833E+03  0.43792893674E+03  0.00000000000E+00 0.  1.
         22    1    1    2    0    0 -0.28257727825E+03  0.83075084289E+03 -0.27419244995E+03  0.91933583676E+03  0.00000000000E+00 0.  1.
<mgrwt>
<rscale>  0 0.18655677E+04</rscale>
<asrwt>0</asrwt>
<pdfrwt beam="1">  1        2 0.14911269E+00 0.18655677E+04</pdfrwt>
<pdfrwt beam="2">  1       -2 0.13810861E+00 0.18655677E+04</pdfrwt>
<totfact> 0.92144604E+00</totfact>
</mgrwt>
</event>
<event>
 6    1  0.1072514E-005  0.1684092E+04  0.7818608E-02  0.8770490E-01
         -1   -1    0    0    0  501 -0.00000000000E+00  0.00000000000E+00  0.58965791266E+03  0.58965791266E+03  0.00000000000E+00 0.  1.
          1   -1    0    0  501    0  0.00000000000E+00 -0.00000000000E+00 -0.12024625496E+04  0.12024625496E+04  0.00000000000E+00 0. -1.
         23    2    1    2    0    0  0.23059303521E+03 -0.69739690608E+03  0.12542728971E+03  0.75071661648E+03  0.91147357373E+02 0.  0.
         11    1    3    3    0    0  0.15792972043E+03 -0.44395608941E+03  0.12322538840E+03  0.48705574862E+03  0.00000000000E+00 0. -1.
        -11    1    3    3    0    0  0.72663314776E+02 -0.25344081667E+03  0.22019013067E+01  0.26366086785E+03  0.00000000000E+00 0.  1.
         22    1    1    2    0    0 -0.23059303521E+03  0.69739690608E+03 -0.73823192667E+03  0.10414038458E+04  0.00000000000E+00 0. -1.
<mgrwt>
<rscale>  0 0.16840921E+04</rscale>
<asrwt>0</asrwt>
<pdfrwt beam="1">  1        1 0.18499424E+00 0.16840921E+04</pdfrwt>
<pdfrwt beam="2">  1       -1 0.90716603E-01 0.16840921E+04</pdfrwt>
<totfact> 0.12036658E+01</totfact>
</mgrwt>
</event>
<event>
 6    1  0.1072514E-005  0.1479049E+04  0.7818608E-02  0.8898506E-01
          4   -1    0    0  501    0  0.00000000000E+00  0.00000000000E+00  0.66985926437E+03  0.66985926437E+03  0.00000000000E+00 0.  1.
         -4   -1    0    0    0  501 -0.00000000000E+00 -0.00000000000E+00 -0.81643447571E+03  0.81643447571E+03  0.00000000000E+00 0. -1.
         23    2    1    2    0    0 -0.22078453755E+03 -0.64150641892E+03  0.21486208793E+03  0.71758494030E+03  0.92120205051E+02 0.  0.
         13    1    3    3    0    0 -0.45540987857E+02 -0.18744095920E+03  0.22344780090E+02  0.19418389212E+03  0.00000000000E+00 0.  1.
        -13    1    3    3    0    0 -0.17524354969E+03 -0.45406545972E+03  0.19251730784E+03  0.52340104818E+03  0.00000000000E+00 0. -1.
         22    1    1    2    0    0  0.22078453755E+03  0.64150641892E+03 -0.36143729927E+03  0.76870879977E+03  0.00000000000E+00 0.  1.
<mgrwt>
<rscale>  0 0.14790486E+04</rscale>
<asrwt>0</asrwt>
<pdfrwt beam="1">  1        4 0.10305527E+00 0.14790486E+04</pdfrwt>
<pdfrwt beam="2">  1       -4 0.12560530E+00 0.14790486E+04</pdfrwt>
<totfact> 0.70142714E-01</totfact>
</mgrwt>
</event>
<event>
 6    1  0.1072514E-005  0.1952330E+04  0.7818608E-02  0.8629238E-01
          1   -1    0    0  501    0  0.00000000000E+00  0.00000000000E+00  0.41275983569E+04  0.41275983569E+04  0.00000000000E+00 0. -1.
         -1   -1    0    0    0  501 -0.00000000000E+00 -0.00000000000E+00 -0.23086015577E+03  0.23086015577E+03  0.00000000000E+00 0.  1.
         23    2    1    2    0    0  0.79665745968E+03 -0.54462718529E+03  0.16374530507E+04  0.19017022631E+04  0.62746514194E+02 0.  0.
         13    1    3    3    0    0  0.42950583275E+03 -0.27942449427E+03  0.92609257029E+03  0.10583953690E+04  0.00000000000E+00 0. -1.
        -13    1    3    3    0    0  0.36715162692E+03 -0.26520269102E+03  0.71136048045E+03  0.84330689409E+03  0.00000000000E+00 0.  1.
         22    1    1    2    0    0 -0.79665745968E+03  0.54462718529E+03  0.22592851503E+04  0.24567562495E+04  0.00000000000E+00 0. -1.
<mgrwt>
<rscale>  0 0.19523299E+04</rscale>
<asrwt>0</asrwt>
<pdfrwt beam="1">  1        1 0.63501508E+00 0.19523299E+04</pdfrwt>
<pdfrwt beam="2">  1       -1 0.35516950E-01 0.19523299E+04</pdfrwt>
<totfact> 0.52453633E-01</totfact>
</mgrwt>
</event>
<event>
 6    1  0.1072514E-005  0.1483922E+04  0.7818608E-02  0.8895216E-01
          2   -1    0    0  501    0  0.00000000000E+00  0.00000000000E+00  0.29988464088E+03  0.29988464088E+03  0.00000000000E+00 0. -1.
         -2   -1    0    0    0  501 -0.00000000000E+00 -0.00000000000E+00 -0.18357255723E+04  0.18357255723E+04  0.00000000000E+00 0.  1.
         23    2    1    2    0    0  0.73726647489E+03 -0.54721610089E+02 -0.76840076391E+03  0.10700020674E+04  0.88929076747E+02 0.  0.
         13    1    3    3    0    0  0.35430012775E+03 -0.10479241480E+02 -0.30859679531E+03  0.46996848522E+03  0.00000000000E+00 0.  1.
        -13    1    3    3    0    0  0.38296634714E+03 -0.44242368609E+02 -0.45980396860E+03  0.60003358220E+03  0.00000000000E+00 0. -1.
         22    1    1    2    0    0 -0.73726647489E+03  0.54721610089E+02 -0.76744016751E+03  0.10656081458E+04  0.00000000000E+00 0.  1.
<mgrwt>
<rscale>  0 0.14839217E+04</rscale>
<asrwt>0</asrwt>
<pdfrwt beam="1">  1        2 0.46136099E-01 0.14839217E+04</pdfrwt>
<pdfrwt beam="2">  1       -2 0.28241932E+00 0.14839217E+04</pdfrwt>
<totfact> 0.43365341E+00</totfact>
</mgrwt>
</event>
<event>
 6    1  0.1072514E-005  0.4435130E+04  0.7818608E-02  0.7922093E-01
         -2   -1    0    0    0  501 -0.00000000000E+00  0.00000000000E+00  0.17341040349E+04  0.17341040349E+04  0.00000000000E+00 0.  1.
          2   -1    0    0  501    0  0.00000000000E+00 -0.00000000000E+00 -0.28358125042E+04  0.28358125042E+04  0.00000000000E+00 0. -1.
         23    2    1    2    0    0 -0.61820350678E+03  0.20267374670E+04  0.11954433864E+03  0.21242471507E+04  0.91075640700E+02 0.  0.
         13    1    3    3    0    0 -0.48370154298E+03  0.16212011472E+04  0.13050185963E+03  0.16968473938E+04  0.00000000000E+00 0.  1.
        -13    1    3    3    0    0 -0.13450196380E+03  0.40553631984E+03 -0.10957520988E+02  0.42739975695E+03  0.00000000000E+00 0. -1.
         22    1    1    2    0    0  0.61820350678E+03 -0.20267374670E+04 -0.12212528080E+04  0.24456693884E+04  0.00000000000E+00 0.  1.
<mgrwt>
<rscale>  0 0.44351297E+04</rscale>
<asrwt>0</asrwt>
<pdfrwt beam="1">  1        2 0.43627885E+00 0.44351297E+04</pdfrwt>
<pdfrwt beam="2">  1       -2 0.26678524E+00 0.44351297E+04</pdfrwt>
<totfact> 0.84929927E-02</totfact>
</mgrwt>
</event>
<event>
 6    1  0.1072514E-005  0.1528081E+04  0.7818608E-02  0.8865991E-01
          2   -1    0    0  501    0  0.00000000000E+00  0.00000000000E+00  0.62970570129E+03  0.62970570129E+03  0.00000000000E+00 0. -1.
         -2   -1    0    0    0  501 -0.00000000000E+00 -0.00000000000E+00 -0.92703261895E+03  0.92703261895E+03  0.00000000000E+00 0.  1.
         23    2    1    2    0    0 -0.43124420041E+03  0.13374235515E+03  0.47522603929E+03  0.66192177522E+03  0.91880738683E+02 0.  0.
         13    1    3    3    0    0 -0.37435502804E+03  0.83800151877E+02  0.37645706145E+03  0.53747936852E+03  0.00000000000E+00 0. -1.
        -13    1    3    3    0    0 -0.56889172374E+02  0.49942203271E+02  0.98768977837E+02  0.12444240669E+03  0.00000000000E+00 0.  1.
         22    1    1    2    0    0  0.43124420041E+03 -0.13374235515E+03 -0.77255295695E+03  0.89481654502E+03  0.00000000000E+00 0.  1.
<mgrwt>
<rscale>  0 0.15280808E+04</rscale>
<asrwt>0</asrwt>
<pdfrwt beam="1">  1        2 0.96877801E-01 0.15280808E+04</pdfrwt>
<pdfrwt beam="2">  1       -2 0.14262040E+00 0.15280808E+04</pdfrwt>
<totfact> 0.15417953E+01</totfact>
</mgrwt>
</event>
<event>
 6    1  0.1072514E-005  0.6635198E+03  0.7818608E-02  0.9781736E-01
          2   -1    0    0  501    0  0.00000000000E+00  0.00000000000E+00  0.16777379905E+03  0.16777379905E+03  0.00000000000E+00 0. -1.
         -2   -1    0    0    0  501 -0.00000000000E+00 -0.00000000000E+00 -0.65602987590E+03  0.65602987590E+03  0.00000000000E+00 0.  1.
         23    2    1    2    0    0  0.22440731776E+03 -0.23175135360E+03 -0.19315175582E+03  0.38659217641E+03  0.89880898588E+02 0.  0.
         13    1    3    3    0    0  0.12704539275E+03 -0.98133062242E+02 -0.13979135228E+03  0.21286674681E+03  0.00000000000E+00 0. -1.
        -13    1    3    3    0    0  0.97361925009E+02 -0.13361829135E+03 -0.53360403535E+02  0.17372542960E+03  0.00000000000E+00 0.  1.
         22    1    1    2    0    0 -0.22440731776E+03  0.23175135360E+03 -0.29510432104E+03  0.43721149853E+03  0.00000000000E+00 0. -1.
<mgrwt>
<rscale>  0 0.66351978E+03</rscale>
<asrwt>0</asrwt>
<pdfrwt beam="1">  1        2 0.25811353E-01 0.66351978E+03</pdfrwt>
<pdfrwt beam="2">  1       -2 0.10092767E+00 0.66351978E+03</pdfrwt>
<totfact> 0.17261582E+02</totfact>
</mgrwt>
</event>
<event>
 6    1  0.1072514E-005  0.9867629E+03  0.7818608E-02  0.9323183E-01
          2   -1    0    0  501    0  0.00000000000E+00  0.00000000000E+00  0.30633750829E+04  0.30633750829E+04  0.00000000000E+00 0. -1.
         -2   -1    0    0    0  501 -0.00000000000E+00 -0.00000000000E+00 -0.79463099345E+02  0.79463099345E+02  0.00000000000E+00 0.  1.
         23    2    1    2    0    0 -0.93061832652E+02 -0.29288019155E+03  0.27172270280E+04  0.27359473162E+04  0.87439604305E+02 0.  0.
         13    1    3    3    0    0 -0.80639332951E+02 -0.17470603406E+03  0.13626577186E+04  0.13761762091E+04  0.00000000000E+00 0. -1.
        -13    1    3    3    0    0 -0.12422499701E+02 -0.11817415749E+03  0.13545693094E+04  0.13597711071E+04  0.00000000000E+00 0.  1.
         22    1    1    2    0    0  0.93061832652E+02  0.29288019155E+03  0.26668495557E+03  0.40689086599E+03  0.00000000000E+00 0.  1.
<mgrwt>
<rscale>  0 0.98676295E+03</rscale>
<asrwt>0</asrwt>
<pdfrwt beam="1">  1        2 0.47128838E+00 0.98676295E+03</pdfrwt>
<pdfrwt beam="2">  1       -2 0.12225095E-01 0.98676295E+03</pdfrwt>
<totfact> 0.80624105E+01</totfact>
</mgrwt>
</event>
<event>
 6    1  0.1072514E-005  0.1742058E+04  0.7818608E-02  0.8737734E-01
          1   -1    0    0  501    0  0.00000000000E+00  0.00000000000E+00  0.11590998016E+04  0.11590998016E+04  0.00000000000E+00 0. -1.
         -1   -1    0    0    0  501 -0.00000000000E+00 -0.00000000000E+00 -0.65455271427E+03  0.65455271427E+03  0.00000000000E+00 0.  1.
         23    2    1    2    0    0 -0.80843335913E+03  0.13829220924E+03 -0.44760533751E+02  0.82652127137E+03  0.91894914808E+02 0.  0.
         11    1    3    3    0    0 -0.74548915350E+03  0.14860311636E+03 -0.28461315323E+02  0.76068851092E+03  0.00000000000E+00 0. -1.
        -11    1    3    3    0    0 -0.62944205627E+02 -0.10310907117E+02 -0.16299218429E+02  0.65832760453E+02  0.00000000000E+00 0.  1.
         22    1    1    2    0    0  0.80843335913E+03 -0.13829220924E+03  0.54930762108E+03  0.98713124449E+03  0.00000000000E+00 0.  1.
<mgrwt>
<rscale>  0 0.17420585E+04</rscale>
<asrwt>0</asrwt>
<pdfrwt beam="1">  1        1 0.17832305E+00 0.17420585E+04</pdfrwt>
<pdfrwt beam="2">  1       -1 0.10070042E+00 0.17420585E+04</pdfrwt>
<totfact> 0.10187932E+01</totfact>
</mgrwt>
</event>
<event>
 6    1  0.1072514E-005  0.2655008E+04  0.7818608E-02  0.8349753E-01
          2   -1    0    0  501    0  0.00000000000E+00  0.00000000000E+00  0.13588950177E+04  0.13588950177E+04  0.00000000000E+00 0. -1.
         -2   -1    0    0    0  501 -0.00000000000E+00 -0.00000000000E+00 -0.12968382990E+04  0.12968382990E+04  0.00000000000E+00 0.  1.
         23    2    1    2    0    0  0.12103224208E+04  0.17522966353E+03  0.54360754295E+03  0.13413981260E+04  0.90851385631E+02 0.  0.
         13    1    3    3    0    0  0.67337630964E+02  0.12749076315E+02  0.54609787498E+02  0.87630613265E+02  0.00000000000E+00 0.  1.
        -13    1    3    3    0    0  0.11429847899E+04  0.16248058721E+03  0.48899775545E+03  0.12537675127E+04  0.00000000000E+00 0. -1.
         22    1    1    2    0    0 -0.12103224208E+04 -0.17522966353E+03 -0.48155082420E+03  0.13143351908E+04  0.00000000000E+00 0.  1.
<mgrwt>
<rscale>  0 0.26550082E+04</rscale>
<asrwt>0</asrwt>
<pdfrwt beam="1">  1        2 0.20906077E+00 0.26550082E+04</pdfrwt>
<pdfrwt beam="2">  1       -2 0.19951358E+00 0.26550082E+04</pdfrwt>
<totfact> 0.18028513E+00</totfact>
</mgrwt>
</event>
<event>
 6    1  0.1072514E-005  0.1335310E+04  0.7818608E-02  0.9002023E-01
          2   -1    0    0  501    0  0.00000000000E+00  0.00000000000E+00  0.17074096025E+04  0.17074096025E+04  0.00000000000E+00 0. -1.
         -2   -1    0    0    0  501 -0.00000000000E+00 -0.00000000000E+00 -0.26107577314E+03  0.26107577314E+03  0.00000000000E+00 0.  1.
         23    2    1    2    0    0  0.50501004872E+03 -0.30664454892E+03  0.27808272037E+03  0.65933424519E+03  0.91244829001E+02 0.  0.
         11    1    3    3    0    0  0.73111677174E+02 -0.10653826665E+02  0.41924108688E+02  0.84949704244E+02  0.00000000000E+00 0. -1.
        -11    1    3    3    0    0  0.43189837155E+03 -0.29599072225E+03  0.23615861169E+03  0.57438454095E+03  0.00000000000E+00 0.  1.
         22    1    1    2    0    0 -0.50501004872E+03  0.30664454892E+03  0.11682511090E+04  0.13091511305E+04  0.00000000000E+00 0.  1.
<mgrwt>
<rscale>  0 0.13353101E+04</rscale>
<asrwt>0</asrwt>
<pdfrwt beam="1">  1        2 0.26267839E+00 0.13353101E+04</pdfrwt>
<pdfrwt beam="2">  1       -2 0.40165505E-01 0.13353101E+04</pdfrwt>
<totfact> 0.55715574E+01</totfact>
</mgrwt>
</event>
<event>
 6    1  0.1072514E-005  0.2459862E+04  0.7818608E-02  0.8417426E-01
         -2   -1    0    0    0  501 -0.00000000000E+00  0.00000000000E+00  0.67108051146E+03  0.67108051146E+03  0.00000000000E+00 0.  1.
          2   -1    0    0  501    0  0.00000000000E+00 -0.00000000000E+00 -0.22541713216E+04  0.22541713216E+04  0.00000000000E+00 0. -1.
         23    2    1    2    0    0  0.31917502217E+03  0.29565044206E+03 -0.21584416752E+04  0.22039263195E+04  0.95597477916E+02 0.  0.
         13    1    3    3    0    0  0.18439690294E+03  0.11336272581E+03 -0.11659877013E+04  0.11859092060E+04  0.00000000000E+00 0. -1.
        -13    1    3    3    0    0  0.13477811923E+03  0.18228771625E+03 -0.99245397392E+03  0.10180171134E+04  0.00000000000E+00 0.  1.
         22    1    1    2    0    0 -0.31917502217E+03 -0.29565044206E+03  0.57535086504E+03  0.72132551360E+03  0.00000000000E+00 0.  1.
<mgrwt>
<rscale>  0 0.24598621E+04</rscale>
<asrwt>0</asrwt>
<pdfrwt beam="1">  1        2 0.34679558E+00 0.24598621E+04</pdfrwt>
<pdfrwt beam="2">  1       -2 0.10324316E+00 0.24598621E+04</pdfrwt>
<totfact> 0.32960954E+00</totfact>
</mgrwt>
</event>
<event>
 6    1  0.1072514E-005  0.1283515E+04  0.7818608E-02  0.9042741E-01
         -1   -1    0    0    0  501 -0.00000000000E+00  0.00000000000E+00  0.57638652469E+03  0.57638652469E+03  0.00000000000E+00 0.  1.
          1   -1    0    0  501    0  0.00000000000E+00 -0.00000000000E+00 -0.71454254803E+03  0.71454254803E+03  0.00000000000E+00 0. -1.
         23    2    1    2    0    0  0.27186823754E+03 -0.22509733241E+03  0.46568114442E+03  0.59150039672E+03  0.91829425598E+02 0.  0.
         11    1    3    3    0    0  0.14417520015E+03 -0.60584308758E+02  0.19405451965E+03  0.24922701179E+03  0.00000000000E+00 0.  1.
        -11    1    3    3    0    0  0.12769303739E+03 -0.16451302365E+03  0.27162662477E+03  0.34227338493E+03  0.00000000000E+00 0. -1.
         22    1    1    2    0    0 -0.27186823754E+03  0.22509733241E+03 -0.60383716776E+03  0.69942867600E+03  0.00000000000E+00 0. -1.
<mgrwt>
<rscale>  0 0.12835150E+04</rscale>
<asrwt>0</asrwt>
<pdfrwt beam="1">  1        1 0.10992962E+00 0.12835150E+04</pdfrwt>
<pdfrwt beam="2">  1       -1 0.88674850E-01 0.12835150E+04</pdfrwt>
<totfact> 0.32431126E+01</totfact>
</mgrwt>
</event>
<event>
 6    1  0.1072514E-005  0.2189765E+04  0.7818608E-02  0.8522700E-01
         -2   -1    0    0    0  501 -0.00000000000E+00  0.00000000000E+00  0.56016621320E+03  0.56016621320E+03  0.00000000000E+00 0.  1.
          2   -1    0    0  501    0  0.00000000000E+00 -0.00000000000E+00 -0.21400209634E+04  0.21400209634E+04  0.00000000000E+00 0. -1.
         23    2    1    2    0    0  0.14711532282E+03 -0.32673619891E+03  0.48190351564E+03  0.60752222284E+03  0.91939061204E+02 0.  0.
         13    1    3    3    0    0  0.70792448022E+02 -0.17468821273E+03  0.17806868257E+03  0.25929905144E+03  0.00000000000E+00 0. -1.
        -13    1    3    3    0    0  0.76322874798E+02 -0.15204798619E+03  0.30383483306E+03  0.34822317141E+03  0.00000000000E+00 0.  1.
         22    1    1    2    0    0 -0.14711532282E+03  0.32673619891E+03 -0.20617582659E+04  0.20926649538E+04  0.00000000000E+00 0. -1.
<mgrwt>
<rscale>  0 0.21897648E+04</rscale>
<asrwt>0</asrwt>
<pdfrwt beam="1">  1        2 0.32923400E+00 0.21897648E+04</pdfrwt>
<pdfrwt beam="2">  1       -2 0.86179417E-01 0.21897648E+04</pdfrwt>
<totfact> 0.59598491E+00</totfact>
</mgrwt>
</event>
<event>
 6    1  0.1072514E-005  0.3702531E+03  0.7818608E-02  0.1054596E+00
         -2   -1    0    0    0  501 -0.00000000000E+00  0.00000000000E+00  0.60805847472E+02  0.60805847472E+02  0.00000000000E+00 0.  1.
          2   -1    0    0  501    0  0.00000000000E+00 -0.00000000000E+00 -0.56362729711E+03  0.56362729711E+03  0.00000000000E+00 0. -1.
         23    2    1    2    0    0 -0.81814789434E+02  0.13856989672E+02 -0.52441123418E+03  0.53869053715E+03  0.91075113767E+02 0.  0.
         11    1    3    3    0    0 -0.62870843279E+02 -0.28135547620E+02 -0.40278781424E+03  0.40863477003E+03  0.00000000000E+00 0.  1.
        -11    1    3    3    0    0 -0.18943946156E+02  0.41992537291E+02 -0.12162341994E+03  0.13005576712E+03  0.00000000000E+00 0. -1.
         22    1    1    2    0    0  0.81814789434E+02 -0.13856989672E+02  0.21589784541E+02  0.85742607433E+02  0.00000000000E+00 0.  1.
<mgrwt>
<rscale>  0 0.37025308E+03</rscale>
<asrwt>0</asrwt>
<pdfrwt beam="1">  1        2 0.86711889E-01 0.37025308E+03</pdfrwt>
<pdfrwt beam="2">  1       -2 0.93547460E-02 0.37025308E+03</pdfrwt>
<totfact> 0.40261695E+03</totfact>
</mgrwt>
</event>
<event>
 6    1  0.1072514E-005  0.2705820E+04  0.7818608E-02  0.8333119E-01
          2   -1    0    0  501    0  0.00000000000E+00  0.00000000000E+00  0.21775405660E+04  0.21775405660E+04  0.00000000000E+00 0.  1.
         -2   -1    0    0    0  501 -0.00000000000E+00 -0.00000000000E+00 -0.84056542826E+03  0.84056542826E+03  0.00000000000E+00 0. -1.
         23    2    1    2    0    0  0.44588374611E+03 -0.54536103226E+03 -0.61714470928E+03  0.94089263327E+03  0.90445478587E+02 0.  0.
         11    1    3    3    0    0  0.29743408443E+03 -0.29416774264E+03 -0.37160292003E+03  0.55954483785E+03  0.00000000000E+00 0.  1.
        -11    1    3    3    0    0  0.14844966168E+03 -0.25119328962E+03 -0.24554178925E+03  0.38134779542E+03  0.00000000000E+00 0. -1.
         22    1    1    2    0    0 -0.44588374611E+03  0.54536103226E+03  0.19541198470E+04  0.20772133610E+04  0.00000000000E+00 0.  1.
<mgrwt>
<rscale>  0 0.27058199E+04</rscale>
<asrwt>0</asrwt>
<pdfrwt beam="1">  1        2 0.33500624E+00 0.27058199E+04</pdfrwt>
<pdfrwt beam="2">  1       -2 0.12931776E+00 0.27058199E+04</pdfrwt>
<totfact> 0.20516288E+00</totfact>
</mgrwt>
</event>
<event>
 6    1  0.1072514E-005  0.1231903E+04  0.7818608E-02  0.9085381E-01
         -1   -1    0    0    0  501 -0.00000000000E+00  0.00000000000E+00  0.25757081416E+03  0.25757081416E+03  0.00000000000E+00 0.  1.
          1   -1    0    0  501    0  0.00000000000E+00 -0.00000000000E+00 -0.14729786146E+04  0.14729786146E+04  0.00000000000E+00 0. -1.
         23    2    1    2    0    0 -0.57965386710E+03  0.59669950943E+02 -0.87632149011E+03  0.10563546242E+04  0.91578541817E+02 0.  0.
         13    1    3    3    0    0 -0.55726708724E+03  0.49822263270E+02 -0.80016341497E+03  0.97636589201E+03  0.00000000000E+00 0. -1.
        -13    1    3    3    0    0 -0.22386779861E+02  0.98476876734E+01 -0.76158075141E+02  0.79988732170E+02  0.00000000000E+00 0.  1.
         22    1    1    2    0    0  0.57965386710E+03 -0.59669950943E+02 -0.33908631037E+03  0.67419480461E+03  0.00000000000E+00 0.  1.
<mgrwt>
<rscale>  0 0.12319031E+04</rscale>
<asrwt>0</asrwt>
<pdfrwt beam="1">  1        1 0.22661209E+00 0.12319031E+04</pdfrwt>
<pdfrwt beam="2">  1       -1 0.39626279E-01 0.12319031E+04</pdfrwt>
<totfact> 0.41786478E+01</totfact>
</mgrwt>
</event>
<event>
 6    1  0.1072514E-005  0.2196096E+04  0.7818608E-02  0.8520055E-01
          1   -1    0    0  501    0  0.00000000000E+00  0.00000000000E+00  0.28243684262E+04  0.28243684262E+04  0.00000000000E+00 0. -1.
         -1   -1    0    0    0  501 -0.00000000000E+00 -0.00000000000E+00 -0.42689530168E+03  0.42689530168E+03  0.00000000000E+00 0.  1.
         23    2    1    2    0    0 -0.40737574039E+03 -0.10023754985E+04  0.14599959421E+04  0.18196300103E+04  0.93560619488E+02 0.  0.
         11    1    3    3    0    0 -0.14499440628E+03 -0.44781279632E+03  0.58184644935E+03  0.74840160944E+03  0.00000000000E+00 0.  1.
        -11    1    3    3    0    0 -0.26238133411E+03 -0.55456270216E+03  0.87814949275E+03  0.10712284008E+04  0.00000000000E+00 0. -1.
         22    1    1    2    0    0  0.40737574039E+03  0.10023754985E+04  0.93747718239E+03  0.14316337176E+04  0.00000000000E+00 0.  1.
<mgrwt>
<rscale>  0 0.21960962E+04</rscale>
<asrwt>0</asrwt>
<pdfrwt beam="1">  1        1 0.43451821E+00 0.21960962E+04</pdfrwt>
<pdfrwt beam="2">  1       -1 0.65676202E-01 0.21960962E+04</pdfrwt>
<totfact> 0.17168891E+00</totfact>
</mgrwt>
</event>
<event>
 6    1  0.1072514E-005  0.2099509E+04  0.7818608E-02  0.8561460E-01
         -2   -1    0    0    0  501 -0.00000000000E+00  0.00000000000E+00  0.44521686121E+03  0.44521686121E+03  0.00000000000E+00 0.  1.
          2   -1    0    0  501    0  0.00000000000E+00 -0.00000000000E+00 -0.24751631291E+04  0.24751631291E+04  0.00000000000E+00 0. -1.
         23    2    1    2    0    0 -0.74118579408E+03  0.73937918230E+03 -0.95748314918E+03  0.14216421555E+04  0.90854172533E+02 0.  0.
         11    1    3    3    0    0 -0.19127181714E+03  0.21943334701E+03 -0.21940534454E+03  0.36451969361E+03  0.00000000000E+00 0.  1.
        -11    1    3    3    0    0 -0.54991397694E+03  0.51994583529E+03 -0.73807780464E+03  0.10571224619E+04  0.00000000000E+00 0. -1.
         22    1    1    2    0    0  0.74118579408E+03 -0.73937918230E+03 -0.10724631187E+04  0.14987378348E+04  0.00000000000E+00 0. -1.
<mgrwt>
<rscale>  0 0.20995089E+04</rscale>
<asrwt>0</asrwt>
<pdfrwt beam="1">  1        2 0.38079433E+00 0.20995089E+04</pdfrwt>
<pdfrwt beam="2">  1       -2 0.68494901E-01 0.20995089E+04</pdfrwt>
<totfact> 0.64656068E+00</totfact>
</mgrwt>
</event>
<event>
 6    1  0.1072514E-005  0.2017691E+04  0.7818608E-02  0.8598394E-01
         -2   -1    0    0    0  501 -0.00000000000E+00  0.00000000000E+00  0.96039911794E+03  0.96039911794E+03  0.00000000000E+00 0.  1.
          2   -1    0    0  501    0  0.00000000000E+00 -0.00000000000E+00 -0.10597358201E+04  0.10597358201E+04  0.00000000000E+00 0. -1.
         23    2    1    2    0    0  0.68377814026E+03  0.11333792848E+03  0.68133223474E+03  0.97617994851E+03  0.91190167507E+02 0.  0.
         11    1    3    3    0    0  0.26464621772E+03  0.42740759466E+02  0.32685442373E+03  0.42272710747E+03  0.00000000000E+00 0.  1.
        -11    1    3    3    0    0  0.41913192253E+03  0.70597169017E+02  0.35447781101E+03  0.55345284104E+03  0.00000000000E+00 0. -1.
         22    1    1    2    0    0 -0.68377814026E+03 -0.11333792848E+03 -0.78066893686E+03  0.10439549895E+04  0.00000000000E+00 0. -1.
<mgrwt>
<rscale>  0 0.20176911E+04</rscale>
<asrwt>0</asrwt>
<pdfrwt beam="1">  1        2 0.16303628E+00 0.20176911E+04</pdfrwt>
<pdfrwt beam="2">  1       -2 0.14775371E+00 0.20176911E+04</pdfrwt>
<totfact> 0.66769679E+00</totfact>
</mgrwt>
</event>
<event>
 6    1  0.1072514E-005  0.1889399E+04  0.7818608E-02  0.8660151E-01
         -1   -1    0    0    0  501 -0.00000000000E+00  0.00000000000E+00  0.68540556897E+03  0.68540556897E+03  0.00000000000E+00 0.  1.
          1   -1    0    0  501    0  0.00000000000E+00 -0.00000000000E+00 -0.13020868852E+04  0.13020868852E+04  0.00000000000E+00 0. -1.
         23    2    1    2    0    0 -0.21649074812E+03 -0.40011826570E+03  0.55921690362E+03  0.72665959688E+03  0.91366043311E+02 0.  0.
         11    1    3    3    0    0 -0.89265115030E+02 -0.18351499720E+03  0.18192653777E+03  0.27339217272E+03  0.00000000000E+00 0.  1.
        -11    1    3    3    0    0 -0.12722563309E+03 -0.21660326850E+03  0.37729036585E+03  0.45326742416E+03  0.00000000000E+00 0. -1.
         22    1    1    2    0    0  0.21649074812E+03  0.40011826570E+03 -0.11758982199E+04  0.12608328573E+04  0.00000000000E+00 0. -1.
<mgrwt>
<rscale>  0 0.18893995E+04</rscale>
<asrwt>0</asrwt>
<pdfrwt beam="1">  1        1 0.20032106E+00 0.18893995E+04</pdfrwt>
<pdfrwt beam="2">  1       -1 0.10544701E+00 0.18893995E+04</pdfrwt>
<totfact> 0.71164755E+00</totfact>
</mgrwt>
</event>
<event>
 6    1  0.1072514E-005  0.1426076E+04  0.7818608E-02  0.8935157E-01
         -2   -1    0    0    0  501 -0.00000000000E+00  0.00000000000E+00  0.39194838794E+03  0.39194838794E+03  0.00000000000E+00 0.  1.
          2   -1    0    0  501    0  0.00000000000E+00 -0.00000000000E+00 -0.12971679263E+04  0.12971679263E+04  0.00000000000E+00 0. -1.
         23    2    1    2    0    0 -0.12775666865E+03 -0.59325457847E+03 -0.18176081642E+02  0.61435175614E+03  0.93941200099E+02 0.  0.
         13    1    3    3    0    0 -0.24733462365E+02 -0.24603067922E+03  0.29571083303E+02  0.24903270517E+03  0.00000000000E+00 0.  1.
        -13    1    3    3    0    0 -0.10302320629E+03 -0.34722389925E+03 -0.47747164945E+02  0.36531905097E+03  0.00000000000E+00 0. -1.
         22    1    1    2    0    0  0.12775666865E+03  0.59325457847E+03 -0.88704345676E+03  0.10747645581E+04  0.00000000000E+00 0. -1.
<mgrwt>
<rscale>  0 0.14260756E+04</rscale>
<asrwt>0</asrwt>
<pdfrwt beam="1">  1        2 0.19956429E+00 0.14260756E+04</pdfrwt>
<pdfrwt beam="2">  1       -2 0.60299753E-01 0.14260756E+04</pdfrwt>
<totfact> 0.41311883E+01</totfact>
</mgrwt>
</event>
<event>
 6    1  0.1072514E-005  0.3014330E+04  0.7818608E-02  0.8239651E-01
          2   -1    0    0  501    0  0.00000000000E+00  0.00000000000E+00  0.18553082655E+04  0.18553082655E+04  0.00000000000E+00 0. -1.
         -2   -1    0    0    0  501 -0.00000000000E+00 -0.00000000000E+00 -0.12243496796E+04  0.12243496796E+04  0.00000000000E+00 0.  1.
         23    2    1    2    0    0 -0.13518112831E+04  0.13035037767E+03  0.98078634911E+03  0.16772441582E+04  0.82590177642E+02 0.  0.
         11    1    3    3    0    0 -0.12637895865E+04  0.11746893611E+03  0.93978589866E+03  0.15792911718E+04  0.00000000000E+00 0. -1.
        -11    1    3    3    0    0 -0.88021696575E+02  0.12881441569E+02  0.41000450450E+02  0.97952986386E+02  0.00000000000E+00 0.  1.
         22    1    1    2    0    0  0.13518112831E+04 -0.13035037767E+03 -0.34982776318E+03  0.14024137870E+04  0.00000000000E+00 0.  1.
<mgrwt>
<rscale>  0 0.30143298E+04</rscale>
<asrwt>0</asrwt>
<pdfrwt beam="1">  1        2 0.28543204E+00 0.30143298E+04</pdfrwt>
<pdfrwt beam="2">  1       -2 0.18836149E+00 0.30143298E+04</pdfrwt>
<totfact> 0.10930324E+00</totfact>
</mgrwt>
</event>
<event>
 6    1  0.1072514E-005  0.3459603E+04  0.7818608E-02  0.8123431E-01
          2   -1    0    0  501    0  0.00000000000E+00  0.00000000000E+00  0.24621313715E+04  0.24621313715E+04  0.00000000000E+00 0. -1.
         -2   -1    0    0    0  501 -0.00000000000E+00 -0.00000000000E+00 -0.12152936417E+04  0.12152936417E+04  0.00000000000E+00 0.  1.
         23    2    1    2    0    0 -0.87681250100E+02 -0.16768297981E+04  0.18730626631E+03  0.16919645892E+04  0.90633108201E+02 0.  0.
         11    1    3    3    0    0 -0.61872441358E+02 -0.72833235982E+03  0.43153377960E+02  0.73222840657E+03  0.00000000000E+00 0. -1.
        -11    1    3    3    0    0 -0.25808808742E+02 -0.94849743827E+03  0.14415288835E+03  0.95973618263E+03  0.00000000000E+00 0.  1.
         22    1    1    2    0    0  0.87681250100E+02  0.16768297981E+04  0.10595314635E+04  0.19854604240E+04  0.00000000000E+00 0. -1.
<mgrwt>
<rscale>  0 0.34596026E+04</rscale>
<asrwt>0</asrwt>
<pdfrwt beam="1">  1        2 0.37878944E+00 0.34596026E+04</pdfrwt>
<pdfrwt beam="2">  1       -2 0.18696825E+00 0.34596026E+04</pdfrwt>
<totfact> 0.49037121E-01</totfact>
</mgrwt>
</event>
<event>
 6    1  0.1072514E-005  0.1848103E+04  0.7818608E-02  0.8681129E-01
         -2   -1    0    0    0  501 -0.00000000000E+00  0.00000000000E+00  0.30842906514E+03  0.30842906514E+03  0.00000000000E+00 0.  1.
          2   -1    0    0  501    0  0.00000000000E+00 -0.00000000000E+00 -0.27684511265E+04  0.27684511265E+04  0.00000000000E+00 0. -1.
         23    2    1    2    0    0  0.15259499802E+03 -0.90127799628E+03 -0.10364297477E+04  0.13850757303E+04  0.93063938653E+02 0.  0.
         11    1    3    3    0    0  0.64655876001E+02 -0.63280782947E+03 -0.73163380841E+03  0.96949170236E+03  0.00000000000E+00 0.  1.
        -11    1    3    3    0    0  0.87939122018E+02 -0.26847016681E+03 -0.30479593931E+03  0.41558402793E+03  0.00000000000E+00 0. -1.
         22    1    1    2    0    0 -0.15259499802E+03  0.90127799628E+03 -0.14235923136E+04  0.16918044613E+04  0.00000000000E+00 0.  1.
<mgrwt>
<rscale>  0 0.18481026E+04</rscale>
<asrwt>0</asrwt>
<pdfrwt beam="1">  1        2 0.42591557E+00 0.18481026E+04</pdfrwt>
<pdfrwt beam="2">  1       -2 0.47450624E-01 0.18481026E+04</pdfrwt>
<totfact> 0.95843722E+00</totfact>
</mgrwt>
</event>
<event>
 6    1  0.1072514E-005  0.4408175E+04  0.7818608E-02  0.7926913E-01
         -1   -1    0    0    0  501 -0.00000000000E+00  0.00000000000E+00  0.14156680061E+04  0.14156680061E+04  0.00000000000E+00 0.  1.
          1   -1    0    0  501    0  0.00000000000E+00 -0.00000000000E+00 -0.34315959773E+04  0.34315959773E+04  0.00000000000E+00 0. -1.
         23    2    1    2    0    0  0.32970146881E+03 -0.20895533675E+03 -0.33926224575E+04  0.34163016849E+04  0.94152388761E+02 0.  0.
         13    1    3    3    0    0  0.25503008825E+03 -0.20418269908E+03 -0.27714005732E+04  0.27905899121E+04  0.00000000000E+00 0. -1.
        -13    1    3    3    0    0  0.74671380561E+02 -0.47726376639E+01 -0.62122188432E+03  0.62571177286E+03  0.00000000000E+00 0.  1.
         22    1    1    2    0    0 -0.32970146881E+03  0.20895533675E+03  0.13766944863E+04  0.14309622985E+04  0.00000000000E+00 0.  1.
<mgrwt>
<rscale>  0 0.44081745E+04</rscale>
<asrwt>0</asrwt>
<pdfrwt beam="1">  1        1 0.52793784E+00 0.44081745E+04</pdfrwt>
<pdfrwt beam="2">  1       -1 0.21779508E+00 0.44081745E+04</pdfrwt>
<totfact> 0.24344495E-02</totfact>
</mgrwt>
</event>
<event>
 6    1  0.1072514E-005  0.7994592E+03  0.7818608E-02  0.9560800E-01
         -1   -1    0    0    0  501 -0.00000000000E+00  0.00000000000E+00  0.21676764657E+04  0.21676764657E+04  0.00000000000E+00 0.  1.
          1   -1    0    0  501    0  0.00000000000E+00 -0.00000000000E+00 -0.73711995864E+02  0.73711995864E+02  0.00000000000E+00 0. -1.
         23    2    1    2    0    0  0.24608088008E+03  0.17142917919E+03  0.34076647665E+03  0.46272408448E+03  0.89710778185E+02 0.  0.
         13    1    3    3    0    0  0.20831599086E+03  0.10811883892E+03  0.29066214736E+03  0.37359030941E+03  0.00000000000E+00 0. -1.
        -13    1    3    3    0    0  0.37764889223E+02  0.63310340274E+02  0.50104329294E+02  0.89133775067E+02  0.00000000000E+00 0.  1.
         22    1    1    2    0    0 -0.24608088008E+03 -0.17142917919E+03  0.17531979932E+04  0.17786643771E+04  0.00000000000E+00 0.  1.
<mgrwt>
<rscale>  0 0.79945921E+03</rscale>
<asrwt>0</asrwt>
<pdfrwt beam="1">  1        1 0.11340309E-01 0.79945921E+03</pdfrwt>
<pdfrwt beam="2">  1       -1 0.33348864E+00 0.79945921E+03</pdfrwt>
<totfact> 0.11762678E+01</totfact>
</mgrwt>
</event>
<event>
 6    1  0.1072514E-005  0.6967579E+03  0.7818608E-02  0.9722793E-01
         -2   -1    0    0    0  501 -0.00000000000E+00  0.00000000000E+00  0.99937036429E+02  0.99937036429E+02  0.00000000000E+00 0.  1.
          2   -1    0    0  501    0  0.00000000000E+00 -0.00000000000E+00 -0.12144437043E+04  0.12144437043E+04  0.00000000000E+00 0. -1.
         23    2    1    2    0    0 -0.78428155980E+02  0.22168429053E+03 -0.95856877565E+02  0.26894193544E+03  0.88579474725E+02 0.  0.
         13    1    3    3    0    0 -0.26331543140E+02  0.71332470903E+02  0.11625105938E+02  0.76920833701E+02  0.00000000000E+00 0.  1.
        -13    1    3    3    0    0 -0.52096612840E+02  0.15035181963E+03 -0.10748198350E+03  0.19202110174E+03  0.00000000000E+00 0. -1.
         22    1    1    2    0    0  0.78428155980E+02 -0.22168429053E+03 -0.10186497903E+04  0.10454388053E+04  0.00000000000E+00 0. -1.
<mgrwt>
<rscale>  0 0.69675793E+03</rscale>
<asrwt>0</asrwt>
<pdfrwt beam="1">  1        2 0.18683750E+00 0.69675793E+03</pdfrwt>
<pdfrwt beam="2">  1       -2 0.15374928E-01 0.69675793E+03</pdfrwt>
<totfact> 0.62997092E+02</totfact>
</mgrwt>
</event>
<event>
 6    1  0.1072514E-005  0.1944539E+04  0.7818608E-02  0.8632999E-01
         -2   -1    0    0    0  501 -0.00000000000E+00  0.00000000000E+00  0.51157096299E+03  0.51157096299E+03  0.00000000000E+00 0.  1.
          2   -1    0    0  501    0  0.00000000000E+00 -0.00000000000E+00 -0.18478531483E+04  0.18478531483E+04  0.00000000000E+00 0. -1.
         23    2    1    2    0    0  0.80547040344E+03  0.23529379859E+03 -0.12601805986E+04  0.15168464033E+04  0.92855412699E+02 0.  0.
         11    1    3    3    0    0  0.29921481922E+03  0.13414691815E+03 -0.47904746675E+03  0.58052681169E+03  0.00000000000E+00 0.  1.
        -11    1    3    3    0    0  0.50625558422E+03  0.10114688044E+03 -0.78113313183E+03  0.93631959160E+03  0.00000000000E+00 0. -1.
         22    1    1    2    0    0 -0.80547040344E+03 -0.23529379859E+03 -0.76101586716E+02  0.84257770798E+03  0.00000000000E+00 0.  1.
<mgrwt>
<rscale>  0 0.19445390E+04</rscale>
<asrwt>0</asrwt>
<pdfrwt beam="1">  1        2 0.28428510E+00 0.19445390E+04</pdfrwt>
<pdfrwt beam="2">  1       -2 0.78703225E-01 0.19445390E+04</pdfrwt>
<totfact> 0.10861373E+01</totfact>
</mgrwt>
</event>
<event>
 6    1  0.1072514E-005  0.4286876E+04  0.7818608E-02  0.7949049E-01
          1   -1    0    0  501    0  0.00000000000E+00  0.00000000000E+00  0.26965240173E+04  0.26965240173E+04  0.00000000000E+00 0. -1.
         -1   -1    0    0    0  501 -0.00000000000E+00 -0.00000000000E+00 -0.17037960127E+04  0.17037960127E+04  0.00000000000E+00 0.  1.
         23    2    1    2    0    0 -0.10809599214E+04 -0.17687199324E+04  0.10523423713E+04  0.23265798285E+04  0.93298880133E+02 0.  0.
         11    1    3    3    0    0 -0.38998354795E+03 -0.59968952862E+03  0.40771593837E+03  0.82337536082E+03  0.00000000000E+00 0.  1.
        -11    1    3    3    0    0 -0.69097637344E+03 -0.11690304038E+04  0.64462643289E+03  0.15032044677E+04  0.00000000000E+00 0. -1.
         22    1    1    2    0    0  0.10809599214E+04  0.17687199324E+04 -0.59614366663E+02  0.20737402016E+04  0.00000000000E+00 0.  1.
<mgrwt>
<rscale>  0 0.42868762E+04</rscale>
<asrwt>0</asrwt>
<pdfrwt beam="1">  1        1 0.41484985E+00 0.42868762E+04</pdfrwt>
<pdfrwt beam="2">  1       -1 0.26212246E+00 0.42868762E+04</pdfrwt>
<totfact> 0.43859140E-02</totfact>
</mgrwt>
</event>
<event>
 6    1  0.1072514E-005  0.5751339E+04  0.7818608E-02  0.7722021E-01
         -2   -1    0    0    0  501 -0.00000000000E+00  0.00000000000E+00  0.20446826296E+04  0.20446826296E+04  0.00000000000E+00 0.  1.
          2   -1    0    0  501    0  0.00000000000E+00 -0.00000000000E+00 -0.40443810193E+04  0.40443810193E+04  0.00000000000E+00 0. -1.
         23    2    1    2    0    0 -0.27875235404E+04  0.12297434565E+03 -0.17335764626E+04  0.32861667442E+04  0.90522600696E+02 0.  0.
         11    1    3    3    0    0 -0.12067172370E+04  0.63240226978E+02 -0.69938891891E+03  0.13961771650E+04  0.00000000000E+00 0. -1.
        -11    1    3    3    0    0 -0.15808063034E+04  0.59734118668E+02 -0.10341875437E+04  0.18899895792E+04  0.00000000000E+00 0.  1.
         22    1    1    2    0    0  0.27875235404E+04 -0.12297434565E+03 -0.26612192717E+03  0.28028969046E+04  0.00000000000E+00 0. -1.
<mgrwt>
<rscale>  0 0.57513392E+04</rscale>
<asrwt>0</asrwt>
<pdfrwt beam="1">  1        2 0.62221246E+00 0.57513392E+04</pdfrwt>
<pdfrwt beam="2">  1       -2 0.31456656E+00 0.57513392E+04</pdfrwt>
<totfact> 0.55541842E-03</totfact>
</mgrwt>
</event>
<event>
 6    1  0.1072514E-005  0.3288498E+04  0.7818608E-02  0.8165828E-01
         -2   -1    0    0    0  501 -0.00000000000E+00  0.00000000000E+00  0.76685127166E+03  0.76685127166E+03  0.00000000000E+00 0.  1.
          2   -1    0    0  501    0  0.00000000000E+00 -0.00000000000E+00 -0.35255264881E+04  0.35255264881E+04  0.00000000000E+00 0. -1.
         23    2    1    2    0    0  0.64347632098E+03  0.11408543171E+04 -0.85801133591E+02  0.13158250202E+04  0.91778542540E+02 0.  0.
         11    1    3    3    0    0  0.60313573798E+03  0.10277742957E+04 -0.61044394748E+02  0.11932389280E+04  0.00000000000E+00 0.  1.
        -11    1    3    3    0    0  0.40340583000E+02  0.11308002141E+03 -0.24756738844E+02  0.12258609219E+03  0.00000000000E+00 0. -1.
         22    1    1    2    0    0 -0.64347632098E+03 -0.11408543171E+04 -0.26728740829E+04  0.29765527396E+04  0.00000000000E+00 0. -1.
<mgrwt>
<rscale>  0 0.32884978E+04</rscale>
<asrwt>0</asrwt>
<pdfrwt beam="1">  1        2 0.54238869E+00 0.32884978E+04</pdfrwt>
<pdfrwt beam="2">  1       -2 0.11797712E+00 0.32884978E+04</pdfrwt>
<totfact> 0.36066966E-01</totfact>
</mgrwt>
</event>
<event>
 6    1  0.1072514E-005  0.3909577E+04  0.7818608E-02  0.8023040E-01
          1   -1    0    0  501    0  0.00000000000E+00  0.00000000000E+00  0.19580649182E+04  0.19580649182E+04  0.00000000000E+00 0. -1.
         -1   -1    0    0    0  501 -0.00000000000E+00 -0.00000000000E+00 -0.19515171343E+04  0.19515171343E+04  0.00000000000E+00 0.  1.
         23    2    1    2    0    0  0.89750124399E+02 -0.12127085502E+04 -0.15258995321E+04  0.19532814906E+04  0.90675724010E+02 0.  0.
         13    1    3    3    0    0  0.67975863514E+02 -0.37835395844E+03 -0.45956844833E+03  0.59914572066E+03  0.00000000000E+00 0. -1.
        -13    1    3    3    0    0  0.21774260885E+02 -0.83435459176E+03 -0.10663310837E+04  0.13541357699E+04  0.00000000000E+00 0.  1.
         22    1    1    2    0    0 -0.89750124399E+02  0.12127085502E+04  0.15324473160E+04  0.19563005620E+04  0.00000000000E+00 0. -1.
<mgrwt>
<rscale>  0 0.39095766E+04</rscale>
<asrwt>0</asrwt>
<pdfrwt beam="1">  1        1 0.30124076E+00 0.39095766E+04</pdfrwt>
<pdfrwt beam="2">  1       -1 0.30023341E+00 0.39095766E+04</pdfrwt>
<totfact> 0.82559734E-02</totfact>
</mgrwt>
</event>
<event>
 6    1  0.1072514E-005  0.5332899E+04  0.7818608E-02  0.7779110E-01
         -2   -1    0    0    0  501 -0.00000000000E+00  0.00000000000E+00  0.14627668614E+04  0.14627668614E+04  0.00000000000E+00 0.  1.
          2   -1    0    0  501    0  0.00000000000E+00 -0.00000000000E+00 -0.48606200424E+04  0.48606200424E+04  0.00000000000E+00 0. -1.
         23    2    1    2    0    0 -0.15273454672E+03  0.78604794329E+03  0.13153956549E+04  0.15426010060E+04  0.90293541891E+02 0.  0.
         13    1    3    3    0    0 -0.20348905185E+02  0.24011535481E+03  0.33495448111E+03  0.41263054416E+03  0.00000000000E+00 0. -1.
        -13    1    3    3    0    0 -0.13238564154E+03  0.54593258848E+03  0.98044117381E+03  0.11299704618E+04  0.00000000000E+00 0.  1.
         22    1    1    2    0    0  0.15273454672E+03 -0.78604794329E+03 -0.47132488359E+04  0.47807858978E+04  0.00000000000E+00 0. -1.
<mgrwt>
<rscale>  0 0.53328994E+04</rscale>
<asrwt>0</asrwt>
<pdfrwt beam="1">  1        2 0.74778769E+00 0.53328994E+04</pdfrwt>
<pdfrwt beam="2">  1       -2 0.22504106E+00 0.53328994E+04</pdfrwt>
<totfact> 0.32493400E-03</totfact>
</mgrwt>
</event>
<event>
 6    1  0.1072514E-005  0.5165690E+04  0.7818608E-02  0.7803444E-01
          2   -1    0    0  501    0  0.00000000000E+00  0.00000000000E+00  0.39011600356E+04  0.39011600356E+04  0.00000000000E+00 0. -1.
         -2   -1    0    0    0  501 -0.00000000000E+00 -0.00000000000E+00 -0.17100271086E+04  0.17100271086E+04  0.00000000000E+00 0.  1.
         23    2    1    2    0    0  0.12388798989E+04  0.13087271454E+04 -0.91262385925E+03  0.20221905806E+04  0.93713877072E+02 0.  0.
         13    1    3    3    0    0  0.37195169913E+03  0.42545550804E+03 -0.24464101474E+03  0.61580003403E+03  0.00000000000E+00 0. -1.
        -13    1    3    3    0    0  0.86692819981E+03  0.88327163731E+03 -0.66798284450E+03  0.14063905466E+04  0.00000000000E+00 0.  1.
         22    1    1    2    0    0 -0.12388798989E+04 -0.13087271454E+04  0.31037567863E+04  0.35889965636E+04  0.00000000000E+00 0. -1.
<mgrwt>
<rscale>  0 0.51656904E+04</rscale>
<asrwt>0</asrwt>
<pdfrwt beam="1">  1        2 0.60017847E+00 0.51656904E+04</pdfrwt>
<pdfrwt beam="2">  1       -2 0.26308109E+00 0.51656904E+04</pdfrwt>
<totfact> 0.15681890E-02</totfact>
</mgrwt>
</event>
<event>
 6    1  0.1072514E-005  0.1851383E+04  0.7818608E-02  0.8679442E-01
          2   -1    0    0  501    0  0.00000000000E+00  0.00000000000E+00  0.23211021725E+04  0.23211021725E+04  0.00000000000E+00 0. -1.
         -2   -1    0    0    0  501 -0.00000000000E+00 -0.00000000000E+00 -0.36917995698E+03  0.36917995698E+03  0.00000000000E+00 0.  1.
         23    2    1    2    0    0  0.54827467219E+03 -0.43199100263E+03  0.99627085615E+02  0.71083306704E+03  0.90203938367E+02 0.  0.
         11    1    3    3    0    0  0.39802043170E+03 -0.32534531338E+03  0.33832310680E+02  0.51518391108E+03  0.00000000000E+00 0. -1.
        -11    1    3    3    0    0  0.15025424049E+03 -0.10664568924E+03  0.65794774935E+02  0.19564915596E+03  0.00000000000E+00 0.  1.
         22    1    1    2    0    0 -0.54827467219E+03  0.43199100263E+03  0.18522951299E+04  0.19794490624E+04  0.00000000000E+00 0. -1.
<mgrwt>
<rscale>  0 0.18513826E+04</rscale>
<asrwt>0</asrwt>
<pdfrwt beam="1">  1        2 0.35709263E+00 0.18513826E+04</pdfrwt>
<pdfrwt beam="2">  1       -2 0.56796918E-01 0.18513826E+04</pdfrwt>
<totfact> 0.12059470E+01</totfact>
</mgrwt>
</event>
<event>
 6    1  0.1072514E-005  0.2255007E+04  0.7818608E-02  0.8495876E-01
          2   -1    0    0  501    0  0.00000000000E+00  0.00000000000E+00  0.10351205879E+04  0.10351205879E+04  0.00000000000E+00 0. -1.
         -2   -1    0    0    0  501 -0.00000000000E+00 -0.00000000000E+00 -0.12281309544E+04  0.12281309544E+04  0.00000000000E+00 0.  1.
         23    2    1    2    0    0  0.49892783434E+03 -0.15945787588E+03 -0.10966158317E+04  0.12188097609E+04  0.92602121767E+02 0.  0.
         11    1    3    3    0    0  0.10874647343E+03 -0.46480986438E+02 -0.34104282094E+03  0.36096604176E+03  0.00000000000E+00 0.  1.
        -11    1    3    3    0    0  0.39018136091E+03 -0.11297688944E+03 -0.75557301071E+03  0.85784371914E+03  0.00000000000E+00 0. -1.
         22    1    1    2    0    0 -0.49892783434E+03  0.15945787588E+03  0.90360546511E+03  0.10444417814E+04  0.00000000000E+00 0. -1.
<mgrwt>
<rscale>  0 0.22550066E+04</rscale>
<asrwt>0</asrwt>
<pdfrwt beam="1">  1        2 0.15924932E+00 0.22550066E+04</pdfrwt>
<pdfrwt beam="2">  1       -2 0.18894322E+00 0.22550066E+04</pdfrwt>
<totfact> 0.34288738E+00</totfact>
</mgrwt>
</event>
<event>
 6    1  0.1072514E-005  0.1667312E+04  0.7818608E-02  0.8780230E-01
          1   -1    0    0  501    0  0.00000000000E+00  0.00000000000E+00  0.14900454991E+04  0.14900454991E+04  0.00000000000E+00 0. -1.
         -1   -1    0    0    0  501 -0.00000000000E+00 -0.00000000000E+00 -0.46641700006E+03  0.46641700006E+03  0.00000000000E+00 0.  1.
         23    2    1    2    0    0  0.12367379295E+03 -0.82161494844E+03  0.54422958550E+03  0.99720776302E+03  0.88832146951E+02 0.  0.
         13    1    3    3    0    0  0.71735977778E+02 -0.28368044209E+03  0.22890226396E+03  0.37150624514E+03  0.00000000000E+00 0.  1.
        -13    1    3    3    0    0  0.51937815167E+02 -0.53793450635E+03  0.31532732154E+03  0.62570151788E+03  0.00000000000E+00 0. -1.
         22    1    1    2    0    0 -0.12367379295E+03  0.82161494844E+03  0.47939891358E+03  0.95925473619E+03  0.00000000000E+00 0. -1.
<mgrwt>
<rscale>  0 0.16673123E+04</rscale>
<asrwt>0</asrwt>
<pdfrwt beam="1">  1        1 0.22923777E+00 0.16673123E+04</pdfrwt>
<pdfrwt beam="2">  1       -1 0.71756463E-01 0.16673123E+04</pdfrwt>
<totfact> 0.12432578E+01</totfact>
</mgrwt>
</event>
<event>
 6    1  0.1072514E-005  0.1551207E+04  0.7818608E-02  0.8851097E-01
          2   -1    0    0  501    0  0.00000000000E+00  0.00000000000E+00  0.63105343827E+03  0.63105343827E+03  0.00000000000E+00 0. -1.
         -2   -1    0    0    0  501 -0.00000000000E+00 -0.00000000000E+00 -0.95326405860E+03  0.95326405860E+03  0.00000000000E+00 0.  1.
         23    2    1    2    0    0  0.63381698813E+02 -0.76973843856E+03 -0.15058942699E+03  0.79313588843E+03  0.99362258711E+02 0.  0.
         11    1    3    3    0    0  0.89139324096E+02 -0.65426710102E+03 -0.13197694334E+03  0.67337149639E+03  0.00000000000E+00 0.  1.
        -11    1    3    3    0    0 -0.25757625283E+02 -0.11547133753E+03 -0.18612483651E+02  0.11976439204E+03  0.00000000000E+00 0. -1.
         22    1    1    2    0    0 -0.63381698813E+02  0.76973843856E+03 -0.17162119334E+03  0.79118160844E+03  0.00000000000E+00 0. -1.
<mgrwt>
<rscale>  0 0.15512067E+04</rscale>
<asrwt>0</asrwt>
<pdfrwt beam="1">  1        2 0.97085145E-01 0.15512067E+04</pdfrwt>
<pdfrwt beam="2">  1       -2 0.14665601E+00 0.15512067E+04</pdfrwt>
<totfact> 0.14265639E+01</totfact>
</mgrwt>
</event>
<event>
 6    1  0.1072514E-005  0.5442352E+04  0.7818608E-02  0.7763672E-01
         -2   -1    0    0    0  501 -0.00000000000E+00  0.00000000000E+00  0.24904416571E+04  0.24904416571E+04  0.00000000000E+00 0.  1.
          2   -1    0    0  501    0  0.00000000000E+00 -0.00000000000E+00 -0.29732871202E+04  0.29732871202E+04  0.00000000000E+00 0. -1.
         23    2    1    2    0    0 -0.20797599422E+04 -0.86011889025E+03  0.12927253009E+04  0.25970482125E+04  0.91185480320E+02 0.  0.
         13    1    3    3    0    0 -0.18731728729E+04 -0.74450830314E+03  0.11586750820E+04  0.23249940153E+04  0.00000000000E+00 0. -1.
        -13    1    3    3    0    0 -0.20658706930E+03 -0.11561058711E+03  0.13405021885E+03  0.27205419723E+03  0.00000000000E+00 0.  1.
         22    1    1    2    0    0  0.20797599422E+04  0.86011889025E+03 -0.17755707640E+04  0.28666805648E+04  0.00000000000E+00 0. -1.
<mgrwt>
<rscale>  0 0.54423517E+04</rscale>
<asrwt>0</asrwt>
<pdfrwt beam="1">  1        2 0.45742879E+00 0.54423517E+04</pdfrwt>
<pdfrwt beam="2">  1       -2 0.38314487E+00 0.54423517E+04</pdfrwt>
<totfact> 0.12155685E-02</totfact>
</mgrwt>
</event>
<event>
 6    1  0.1072514E-005  0.1558536E+04  0.7818608E-02  0.8846434E-01
         -2   -1    0    0    0  501 -0.00000000000E+00  0.00000000000E+00  0.95660303990E+03  0.95660303990E+03  0.00000000000E+00 0.  1.
          2   -1    0    0  501    0  0.00000000000E+00 -0.00000000000E+00 -0.63480753489E+03  0.63480753489E+03  0.00000000000E+00 0. -1.
         23    2    1    2    0    0  0.51152340122E+03 -0.57749819232E+03  0.69135735906E+02  0.77962408127E+03  0.88733341988E+02 0.  0.
         13    1    3    3    0    0  0.20394444427E+03 -0.25260525071E+03 -0.12250958774E+02  0.32488895799E+03  0.00000000000E+00 0.  1.
        -13    1    3    3    0    0  0.30757895695E+03 -0.32489294162E+03  0.81386694680E+02  0.45473512328E+03  0.00000000000E+00 0. -1.
         22    1    1    2    0    0 -0.51152340122E+03  0.57749819232E+03  0.25265976910E+03  0.81178649352E+03  0.00000000000E+00 0. -1.
<mgrwt>
<rscale>  0 0.15585363E+04</rscale>
<asrwt>0</asrwt>
<pdfrwt beam="1">  1        2 0.97662697E-01 0.15585363E+04</pdfrwt>
<pdfrwt beam="2">  1       -2 0.14716970E+00 0.15585363E+04</pdfrwt>
<totfact> 0.14024182E+01</totfact>
</mgrwt>
</event>
<event>
 6    1  0.1072514E-005  0.1674901E+04  0.7818608E-02  0.8775810E-01
         -2   -1    0    0    0  501 -0.00000000000E+00  0.00000000000E+00  0.70157752521E+03  0.70157752521E+03  0.00000000000E+00 0.  1.
          2   -1    0    0  501    0  0.00000000000E+00 -0.00000000000E+00 -0.99963791390E+03  0.99963791390E+03  0.00000000000E+00 0. -1.
         23    2    1    2    0    0  0.68716472115E+03 -0.21720484981E+03 -0.57762739146E+03  0.92821413910E+03  0.92492074679E+02 0.  0.
         13    1    3    3    0    0  0.61440737822E+03 -0.19319076478E+03 -0.54941468703E+03  0.84656694734E+03  0.00000000000E+00 0.  1.
        -13    1    3    3    0    0  0.72757342933E+02 -0.24014085029E+02 -0.28212704431E+02  0.81647191757E+02  0.00000000000E+00 0. -1.
         22    1    1    2    0    0 -0.68716472115E+03  0.21720484981E+03  0.27956700277E+03  0.77300130001E+03  0.00000000000E+00 0.  1.
<mgrwt>
<rscale>  0 0.16749012E+04</rscale>
<asrwt>0</asrwt>
<pdfrwt beam="1">  1        2 0.15379045E+00 0.16749012E+04</pdfrwt>
<pdfrwt beam="2">  1       -2 0.10793500E+00 0.16749012E+04</pdfrwt>
<totfact> 0.16529969E+01</totfact>
</mgrwt>
</event>
<event>
 6    1  0.1072514E-005  0.3503072E+04  0.7818608E-02  0.8113062E-01
         -2   -1    0    0    0  501 -0.00000000000E+00  0.00000000000E+00  0.40564849077E+04  0.40564849077E+04  0.00000000000E+00 0. -1.
          2   -1    0    0  501    0  0.00000000000E+00 -0.00000000000E+00 -0.75628968608E+03  0.75628968608E+03  0.00000000000E+00 0.  1.
         23    2    1    2    0    0 -0.12859069428E+03  0.11046469202E+04  0.35081765227E+04  0.36813875660E+04  0.92366181267E+02 0.  0.
         11    1    3    3    0    0 -0.91628156107E+02  0.62789366727E+03  0.18610753767E+04  0.19662776341E+04  0.00000000000E+00 0.  1.
        -11    1    3    3    0    0 -0.36962538172E+02  0.47675325293E+03  0.16471011460E+04  0.17151099319E+04  0.00000000000E+00 0. -1.
         22    1    1    2    0    0  0.12859069428E+03 -0.11046469202E+04 -0.20798130115E+03  0.11313870278E+04  0.00000000000E+00 0.  1.
<mgrwt>
<rscale>  0 0.35030716E+04</rscale>
<asrwt>0</asrwt>
<pdfrwt beam="1">  1        2 0.11635226E+00 0.35030716E+04</pdfrwt>
<pdfrwt beam="2">  1       -2 0.62407459E+00 0.35030716E+04</pdfrwt>
<totfact> 0.12480133E-02</totfact>
</mgrwt>
</event>
<event>
 6    1  0.1072514E-005  0.2075525E+04  0.7818608E-02  0.8572102E-01
          2   -1    0    0  501    0  0.00000000000E+00  0.00000000000E+00  0.51620234680E+04  0.51620234680E+04  0.00000000000E+00 0.  1.
         -2   -1    0    0    0  501 -0.00000000000E+00 -0.00000000000E+00 -0.20862954881E+03  0.20862954881E+03  0.00000000000E+00 0. -1.
         23    2    1    2    0    0 -0.54216042354E+03 -0.80546538466E+03  0.34142530265E+04  0.35508543746E+04  0.93437946257E+02 0.  0.
         13    1    3    3    0    0 -0.29766009629E+03 -0.46324424735E+03  0.20967885513E+04  0.21678835288E+04  0.00000000000E+00 0. -1.
        -13    1    3    3    0    0 -0.24450032724E+03 -0.34222113731E+03  0.13174644752E+04  0.13829708458E+04  0.00000000000E+00 0.  1.
         22    1    1    2    0    0  0.54216042354E+03  0.80546538466E+03  0.15391408928E+04  0.18197986423E+04  0.00000000000E+00 0. -1.
<mgrwt>
<rscale>  0 0.20755246E+04</rscale>
<asrwt>0</asrwt>
<pdfrwt beam="1">  1        2 0.79415736E+00 0.20755246E+04</pdfrwt>
<pdfrwt beam="2">  1       -2 0.32096858E-01 0.20755246E+04</pdfrwt>
<totfact> 0.17873309E-01</totfact>
</mgrwt>
</event>
<event>
 6    1  0.1072514E-005  0.2494437E+04  0.7818608E-02  0.8404970E-01
         -1   -1    0    0    0  501 -0.00000000000E+00  0.00000000000E+00  0.16782047261E+04  0.16782047261E+04  0.00000000000E+00 0.  1.
          1   -1    0    0  501    0  0.00000000000E+00 -0.00000000000E+00 -0.92691567385E+03  0.92691567385E+03  0.00000000000E+00 0. -1.
         23    2    1    2    0    0 -0.10816498624E+04 -0.59589135115E+03  0.54864889635E+03  0.13536748518E+04  0.79793895917E+02 0.  0.
         11    1    3    3    0    0 -0.46385398422E+03 -0.29903635324E+03  0.23265524031E+03  0.59892547123E+03  0.00000000000E+00 0. -1.
        -11    1    3    3    0    0 -0.61779587816E+03 -0.29685499790E+03  0.31599365604E+03  0.75474938060E+03  0.00000000000E+00 0.  1.
         22    1    1    2    0    0  0.10816498624E+04  0.59589135115E+03  0.20264015593E+03  0.12514455481E+04  0.00000000000E+00 0.  1.
<mgrwt>
<rscale>  0 0.24944372E+04</rscale>
<asrwt>0</asrwt>
<pdfrwt beam="1">  1        1 0.14260241E+00 0.24944372E+04</pdfrwt>
<pdfrwt beam="2">  1       -1 0.25818534E+00 0.24944372E+04</pdfrwt>
<totfact> 0.94799379E-01</totfact>
</mgrwt>
</event>
<event>
 6    1  0.1072514E-005  0.2537148E+04  0.7818608E-02  0.8389870E-01
          2   -1    0    0  501    0  0.00000000000E+00  0.00000000000E+00  0.84517710740E+03  0.84517710740E+03  0.00000000000E+00 0. -1.
         -2   -1    0    0    0  501 -0.00000000000E+00 -0.00000000000E+00 -0.19040745790E+04  0.19040745790E+04  0.00000000000E+00 0.  1.
         23    2    1    2    0    0  0.53160317026E+02  0.73675445186E+03 -0.16454219447E+04  0.18060422191E+04  0.93498553763E+02 0.  0.
         13    1    3    3    0    0 -0.24650253971E+01  0.39080072458E+03 -0.78162110484E+03  0.87387804310E+03  0.00000000000E+00 0.  1.
        -13    1    3    3    0    0  0.55625342423E+02  0.34595372728E+03 -0.86380083984E+03  0.93216417601E+03  0.00000000000E+00 0. -1.
         22    1    1    2    0    0 -0.53160317026E+02 -0.73675445186E+03  0.58652447308E+03  0.94320946728E+03  0.00000000000E+00 0. -1.
<mgrwt>
<rscale>  0 0.25371482E+04</rscale>
<asrwt>0</asrwt>
<pdfrwt beam="1">  1        2 0.13002725E+00 0.25371482E+04</pdfrwt>
<pdfrwt beam="2">  1       -2 0.29293455E+00 0.25371482E+04</pdfrwt>
<totfact> 0.99864554E-01</totfact>
</mgrwt>
</event>
<event>
 6    1  0.1072514E-005  0.1613318E+04  0.7818608E-02  0.8812408E-01
          2   -1    0    0  501    0  0.00000000000E+00  0.00000000000E+00  0.81970667719E+03  0.81970667719E+03  0.00000000000E+00 0. -1.
         -2   -1    0    0    0  501 -0.00000000000E+00 -0.00000000000E+00 -0.79381912595E+03  0.79381912595E+03  0.00000000000E+00 0.  1.
         23    2    1    2    0    0  0.79488133474E+01 -0.65945360117E+03  0.47305033709E+03  0.81672169122E+03  0.91189164736E+02 0.  0.
         11    1    3    3    0    0 -0.27781236219E+02 -0.41873736038E+03  0.33474767585E+03  0.53681354356E+03  0.00000000000E+00 0. -1.
        -11    1    3    3    0    0  0.35730049566E+02 -0.24071624079E+03  0.13830266124E+03  0.27990814766E+03  0.00000000000E+00 0.  1.
         22    1    1    2    0    0 -0.79488133474E+01  0.65945360117E+03 -0.44716278585E+03  0.79680411192E+03  0.00000000000E+00 0.  1.
<mgrwt>
<rscale>  0 0.16133181E+04</rscale>
<asrwt>0</asrwt>
<pdfrwt beam="1">  1        2 0.12610872E+00 0.16133181E+04</pdfrwt>
<pdfrwt beam="2">  1       -2 0.12212602E+00 0.16133181E+04</pdfrwt>
<totfact> 0.16232063E+01</totfact>
</mgrwt>
</event>
<event>
 6    1  0.1072514E-005  0.4214791E+04  0.7818608E-02  0.7962565E-01
          1   -1    0    0  501    0  0.00000000000E+00  0.00000000000E+00  0.32615784472E+04  0.32615784472E+04  0.00000000000E+00 0. -1.
         -1   -1    0    0    0  501 -0.00000000000E+00 -0.00000000000E+00 -0.13616459387E+04  0.13616459387E+04  0.00000000000E+00 0.  1.
         23    2    1    2    0    0  0.45616511929E+03  0.19809639288E+04  0.15559904977E+04  0.25615258604E+04  0.89462851220E+02 0.  0.
         13    1    3    3    0    0  0.22688861698E+03  0.96325880003E+03  0.81346995097E+03  0.12810461824E+04  0.00000000000E+00 0. -1.
        -13    1    3    3    0    0  0.22927650231E+03  0.10177051287E+04  0.74252054668E+03  0.12804796780E+04  0.00000000000E+00 0.  1.
         22    1    1    2    0    0 -0.45616511929E+03 -0.19809639288E+04  0.34394201079E+03  0.20616985255E+04  0.00000000000E+00 0.  1.
<mgrwt>
<rscale>  0 0.42147906E+04</rscale>
<asrwt>0</asrwt>
<pdfrwt beam="1">  1        1 0.50178130E+00 0.42147906E+04</pdfrwt>
<pdfrwt beam="2">  1       -1 0.20948399E+00 0.42147906E+04</pdfrwt>
<totfact> 0.38037411E-02</totfact>
</mgrwt>
</event>
<event>
 6    1  0.1072514E-005  0.4134157E+04  0.7818608E-02  0.7978016E-01
         -1   -1    0    0    0  501 -0.00000000000E+00  0.00000000000E+00  0.17984125123E+04  0.17984125123E+04  0.00000000000E+00 0.  1.
          1   -1    0    0  501    0  0.00000000000E+00 -0.00000000000E+00 -0.23758809452E+04  0.23758809452E+04  0.00000000000E+00 0. -1.
         23    2    1    2    0    0  0.13138126791E+04  0.14313893164E+04  0.42059054301E+03  0.19900084828E+04  0.90874781299E+02 0.  0.
         11    1    3    3    0    0  0.84809145760E+03  0.87257398778E+03  0.23563720935E+03  0.12394230025E+04  0.00000000000E+00 0. -1.
        -11    1    3    3    0    0  0.46572122147E+03  0.55881532867E+03  0.18495333366E+03  0.75058548035E+03  0.00000000000E+00 0.  1.
         22    1    1    2    0    0 -0.13138126791E+04 -0.14313893164E+04 -0.99805897596E+03  0.21842849746E+04  0.00000000000E+00 0. -1.
<mgrwt>
<rscale>  0 0.41341572E+04</rscale>
<asrwt>0</asrwt>
<pdfrwt beam="1">  1        1 0.36552014E+00 0.41341572E+04</pdfrwt>
<pdfrwt beam="2">  1       -1 0.27667885E+00 0.41341572E+04</pdfrwt>
<totfact> 0.59762820E-02</totfact>
</mgrwt>
</event>
<event>
 6    1  0.1072514E-005  0.1940453E+04  0.7818608E-02  0.8634978E-01
          2   -1    0    0  501    0  0.00000000000E+00  0.00000000000E+00  0.25483791431E+04  0.25483791431E+04  0.00000000000E+00 0. -1.
         -2   -1    0    0    0  501 -0.00000000000E+00 -0.00000000000E+00 -0.36938767419E+03  0.36938767419E+03  0.00000000000E+00 0.  1.
         23    2    1    2    0    0 -0.26960153098E+03 -0.84534428124E+03  0.16731663528E+04  0.18964191843E+04  0.98123080772E+02 0.  0.
         13    1    3    3    0    0 -0.11284620035E+03 -0.45246842919E+03  0.79467779841E+03  0.92139825680E+03  0.00000000000E+00 0. -1.
        -13    1    3    3    0    0 -0.15675533062E+03 -0.39287585205E+03  0.87848855441E+03  0.97502092748E+03  0.00000000000E+00 0.  1.
         22    1    1    2    0    0  0.26960153098E+03  0.84534428124E+03  0.50582511605E+03  0.10213476330E+04  0.00000000000E+00 0.  1.
<mgrwt>
<rscale>  0 0.19404534E+04</rscale>
<asrwt>0</asrwt>
<pdfrwt beam="1">  1        2 0.39205832E+00 0.19404534E+04</pdfrwt>
<pdfrwt beam="2">  1       -2 0.56828874E-01 0.19404534E+04</pdfrwt>
<totfact> 0.88514875E+00</totfact>
</mgrwt>
</event>
<event>
 6    1  0.1072514E-005  0.2345525E+04  0.7818608E-02  0.8460184E-01
          2   -1    0    0  501    0  0.00000000000E+00  0.00000000000E+00  0.15441994968E+04  0.15441994968E+04  0.00000000000E+00 0. -1.
         -2   -1    0    0    0  501 -0.00000000000E+00 -0.00000000000E+00 -0.89066986076E+03  0.89066986076E+03  0.00000000000E+00 0.  1.
         23    2    1    2    0    0  0.49697255196E+03  0.40987305632E+03 -0.68770451975E+03  0.94695581828E+03  0.93862535605E+02 0.  0.
         11    1    3    3    0    0  0.12724514349E+02  0.23177620616E+02 -0.56571376504E+02  0.62445464226E+02  0.00000000000E+00 0. -1.
        -11    1    3    3    0    0  0.48424803761E+03  0.38669543571E+03 -0.63113314325E+03  0.88451035406E+03  0.00000000000E+00 0.  1.
         22    1    1    2    0    0 -0.49697255196E+03 -0.40987305632E+03  0.13412341558E+04  0.14879135393E+04  0.00000000000E+00 0. -1.
<mgrwt>
<rscale>  0 0.23455251E+04</rscale>
<asrwt>0</asrwt>
<pdfrwt beam="1">  1        2 0.23756915E+00 0.23455251E+04</pdfrwt>
<pdfrwt beam="2">  1       -2 0.13702613E+00 0.23455251E+04</pdfrwt>
<totfact> 0.41116608E+00</totfact>
</mgrwt>
</event>
<event>
 6    1  0.1072514E-005  0.7632162E+03  0.7818608E-02  0.9614841E-01
         -1   -1    0    0    0  501 -0.00000000000E+00  0.00000000000E+00  0.68992927484E+03  0.68992927484E+03  0.00000000000E+00 0.  1.
          1   -1    0    0  501    0  0.00000000000E+00 -0.00000000000E+00 -0.21107199993E+03  0.21107199993E+03  0.00000000000E+00 0. -1.
         23    2    1    2    0    0  0.12660001593E+03  0.18340091405E+03  0.59900974897E+03  0.64782134600E+03  0.10581284263E+03 0.  0.
         11    1    3    3    0    0  0.31115528694E+02  0.13261795469E+03  0.37738228672E+03  0.40121451664E+03  0.00000000000E+00 0.  1.
        -11    1    3    3    0    0  0.95484487236E+02  0.50782959360E+02  0.22162746225E+03  0.24660682936E+03  0.00000000000E+00 0. -1.
         22    1    1    2    0    0 -0.12660001593E+03 -0.18340091405E+03 -0.12015247407E+03  0.25317992877E+03  0.00000000000E+00 0. -1.
<mgrwt>
<rscale>  0 0.76321623E+03</rscale>
<asrwt>0</asrwt>
<pdfrwt beam="1">  1        1 0.32472616E-01 0.76321623E+03</pdfrwt>
<pdfrwt beam="2">  1       -1 0.10614296E+00 0.76321623E+03</pdfrwt>
<totfact> 0.11673390E+02</totfact>
</mgrwt>
</event>
<event>
 6    1  0.1072514E-005  0.1969928E+04  0.7818608E-02  0.8620811E-01
         -1   -1    0    0    0  501 -0.00000000000E+00  0.00000000000E+00  0.10799947333E+04  0.10799947333E+04  0.00000000000E+00 0.  1.
          1   -1    0    0  501    0  0.00000000000E+00 -0.00000000000E+00 -0.89829533079E+03  0.89829533079E+03  0.00000000000E+00 0. -1.
         23    2    1    2    0    0 -0.13891289260E+03  0.93776249172E+03  0.35131679071E+03  0.10152400441E+04  0.92701548086E+02 0.  0.
         11    1    3    3    0    0 -0.11603121714E+03  0.67361222080E+03  0.29343926322E+03  0.74385702158E+03  0.00000000000E+00 0.  1.
        -11    1    3    3    0    0 -0.22881675456E+02  0.26415027092E+03  0.57877527497E+02  0.27138302248E+03  0.00000000000E+00 0. -1.
         22    1    1    2    0    0  0.13891289260E+03 -0.93776249172E+03 -0.16961738824E+03  0.96305001999E+03  0.00000000000E+00 0. -1.
<mgrwt>
<rscale>  0 0.19699281E+04</rscale>
<asrwt>0</asrwt>
<pdfrwt beam="1">  1        1 0.13819928E+00 0.19699281E+04</pdfrwt>
<pdfrwt beam="2">  1       -1 0.16615304E+00 0.19699281E+04</pdfrwt>
<totfact> 0.44608777E+00</totfact>
</mgrwt>
</event>
<event>
 6    1  0.1072514E-005  0.3619263E+03  0.7818608E-02  0.1057824E+00
         -1   -1    0    0    0  501 -0.00000000000E+00  0.00000000000E+00  0.12735315466E+03  0.12735315466E+03  0.00000000000E+00 0.  1.
          1   -1    0    0  501    0  0.00000000000E+00 -0.00000000000E+00 -0.25714052800E+03  0.25714052800E+03  0.00000000000E+00 0. -1.
         23    2    1    2    0    0  0.54036452411E+02 -0.10880880937E+03  0.55966874349E+02  0.16253887708E+03  0.92343382833E+02 0.  0.
         11    1    3    3    0    0  0.38371189105E+02 -0.39778988310E+02  0.71199219167E+02  0.90133483647E+02  0.00000000000E+00 0.  1.
        -11    1    3    3    0    0  0.15665263306E+02 -0.69029821059E+02 -0.15232344818E+02  0.72405393435E+02  0.00000000000E+00 0. -1.
         22    1    1    2    0    0 -0.54036452411E+02  0.10880880937E+03 -0.18575424769E+03  0.22195480558E+03  0.00000000000E+00 0. -1.
<mgrwt>
<rscale>  0 0.36192628E+03</rscale>
<asrwt>0</asrwt>
<pdfrwt beam="1">  1        1 0.39560081E-01 0.36192628E+03</pdfrwt>
<pdfrwt beam="2">  1       -1 0.19592793E-01 0.36192628E+03</pdfrwt>
<totfact> 0.22308822E+03</totfact>
</mgrwt>
</event>
<event>
 6    1  0.1072514E-005  0.2164857E+04  0.7818608E-02  0.8533200E-01
         -1   -1    0    0    0  501 -0.00000000000E+00  0.00000000000E+00  0.13869222959E+04  0.13869222959E+04  0.00000000000E+00 0. -1.
          1   -1    0    0  501    0  0.00000000000E+00 -0.00000000000E+00 -0.84478483826E+03  0.84478483826E+03  0.00000000000E+00 0.  1.
         23    2    1    2    0    0  0.52582033243E+03 -0.13125538290E+03 -0.69233313678E+03  0.88351106309E+03  0.86900108098E+02 0.  0.
         11    1    3    3    0    0  0.15842230773E+03 -0.38342370896E+02 -0.27594689925E+03  0.32049096118E+03  0.00000000000E+00 0. -1.
        -11    1    3    3    0    0  0.36739802471E+03 -0.92913012004E+02 -0.41638623753E+03  0.56302010192E+03  0.00000000000E+00 0.  1.
         22    1    1    2    0    0 -0.52582033243E+03  0.13125538290E+03  0.12344705944E+04  0.13481960710E+04  0.00000000000E+00 0. -1.
<mgrwt>
<rscale>  0 0.21648565E+04</rscale>
<asrwt>0</asrwt>
<pdfrwt beam="1">  1        1 0.12996690E+00 0.21648565E+04</pdfrwt>
<pdfrwt beam="2">  1       -1 0.21337266E+00 0.21648565E+04</pdfrwt>
<totfact> 0.22564675E+00</totfact>
</mgrwt>
</event>
<event>
 6    1  0.1072514E-005  0.1077335E+04  0.7818608E-02  0.9227569E-01
          2   -1    0    0  501    0  0.00000000000E+00  0.00000000000E+00  0.15091546175E+04  0.15091546175E+04  0.00000000000E+00 0. -1.
         -2   -1    0    0    0  501 -0.00000000000E+00 -0.00000000000E+00 -0.19226823562E+03  0.19226823562E+03  0.00000000000E+00 0.  1.
         23    2    1    2    0    0  0.40299933320E+03 -0.12579800462E+03  0.11816013120E+04  0.12580994377E+04  0.91645697985E+02 0.  0.
         13    1    3    3    0    0  0.25037093861E+03 -0.34712601648E+02  0.64141912743E+03  0.68942662311E+03  0.00000000000E+00 0. -1.
        -13    1    3    3    0    0  0.15262839459E+03 -0.91085402975E+02  0.54018218461E+03  0.56867281458E+03  0.00000000000E+00 0.  1.
         22    1    1    2    0    0 -0.40299933320E+03  0.12579800462E+03  0.13528506979E+03  0.44332341540E+03  0.00000000000E+00 0.  1.
<mgrwt>
<rscale>  0 0.10773347E+04</rscale>
<asrwt>0</asrwt>
<pdfrwt beam="1">  1        2 0.23217763E+00 0.10773347E+04</pdfrwt>
<pdfrwt beam="2">  1       -2 0.29579729E-01 0.10773347E+04</pdfrwt>
<totfact> 0.13118708E+02</totfact>
</mgrwt>
</event>
<event>
 6    1  0.1072514E-005  0.3881436E+04  0.7818608E-02  0.8028901E-01
         -2   -1    0    0    0  501 -0.00000000000E+00  0.00000000000E+00  0.12515036792E+04  0.12515036792E+04  0.00000000000E+00 0.  1.
          2   -1    0    0  501    0  0.00000000000E+00 -0.00000000000E+00 -0.30094889542E+04  0.30094889542E+04  0.00000000000E+00 0. -1.
         23    2    1    2    0    0  0.12824166441E+04  0.10411085717E+04 -0.19956494172E+04  0.25921655748E+04  0.90588430814E+02 0.  0.
         13    1    3    3    0    0  0.21330886981E+03  0.13152287020E+03 -0.29837989333E+03  0.38965305089E+03  0.00000000000E+00 0. -1.
        -13    1    3    3    0    0  0.10691077743E+04  0.90958570146E+03 -0.16972695239E+04  0.22025125239E+04  0.00000000000E+00 0.  1.
         22    1    1    2    0    0 -0.12824166441E+04 -0.10411085717E+04  0.23766414218E+03  0.16688270586E+04  0.00000000000E+00 0.  1.
<mgrwt>
<rscale>  0 0.38814361E+04</rscale>
<asrwt>0</asrwt>
<pdfrwt beam="1">  1        2 0.46299829E+00 0.38814361E+04</pdfrwt>
<pdfrwt beam="2">  1       -2 0.19253903E+00 0.38814361E+04</pdfrwt>
<totfact> 0.20375168E-01</totfact>
</mgrwt>
</event>
<event>
 6    1  0.1072514E-005  0.1659453E+04  0.7818608E-02  0.8784834E-01
         -2   -1    0    0    0  501 -0.00000000000E+00  0.00000000000E+00  0.24249793195E+03  0.24249793195E+03  0.00000000000E+00 0.  1.
          2   -1    0    0  501    0  0.00000000000E+00 -0.00000000000E+00 -0.28389753508E+04  0.28389753508E+04  0.00000000000E+00 0. -1.
         23    2    1    2    0    0 -0.75278372054E+03  0.33924591751E+03 -0.12059904186E+04  0.14643074841E+04  0.89511986806E+02 0.  0.
         11    1    3    3    0    0 -0.49352852525E+03  0.22683072425E+03 -0.71650789237E+03  0.89911408761E+03  0.00000000000E+00 0. -1.
        -11    1    3    3    0    0 -0.25925519529E+03  0.11241519326E+03 -0.48948252621E+03  0.56519339648E+03  0.00000000000E+00 0.  1.
         22    1    1    2    0    0  0.75278372054E+03 -0.33924591751E+03 -0.13904870003E+04  0.16171657987E+04  0.00000000000E+00 0. -1.
<mgrwt>
<rscale>  0 0.16594525E+04</rscale>
<asrwt>0</asrwt>
<pdfrwt beam="1">  1        2 0.43676541E+00 0.16594525E+04</pdfrwt>
<pdfrwt beam="2">  1       -2 0.37307376E-01 0.16594525E+04</pdfrwt>
<totfact> 0.14216201E+01</totfact>
</mgrwt>
</event>
<event>
 6    1  0.1072514E-005  0.1351035E+04  0.7818608E-02  0.8990045E-01
         -1   -1    0    0    0  501 -0.00000000000E+00  0.00000000000E+00  0.42306527046E+03  0.42306527046E+03  0.00000000000E+00 0.  1.
          1   -1    0    0  501    0  0.00000000000E+00 -0.00000000000E+00 -0.10786141413E+04  0.10786141413E+04  0.00000000000E+00 0. -1.
         23    2    1    2    0    0  0.56146965581E+03  0.86156117234E+02 -0.72958747334E+03  0.92883321462E+03  0.88103395961E+02 0.  0.
         11    1    3    3    0    0  0.34954598915E+03  0.11022755507E+02 -0.43022751133E+03  0.55443630038E+03  0.00000000000E+00 0. -1.
        -11    1    3    3    0    0  0.21192366667E+03  0.75133361726E+02 -0.29935996201E+03  0.37439691424E+03  0.00000000000E+00 0.  1.
         22    1    1    2    0    0 -0.56146965581E+03 -0.86156117234E+02  0.74038602498E+02  0.57284619716E+03  0.00000000000E+00 0.  1.
<mgrwt>
<rscale>  0 0.13510354E+04</rscale>
<asrwt>0</asrwt>
<pdfrwt beam="1">  1        1 0.16594064E+00 0.13510354E+04</pdfrwt>
<pdfrwt beam="2">  1       -1 0.65086965E-01 0.13510354E+04</pdfrwt>
<totfact> 0.30827926E+01</totfact>
</mgrwt>
</event>
<event>
 6    1  0.1072514E-005  0.4875712E+04  0.7818608E-02  0.7847971E-01
          2   -1    0    0  501    0  0.00000000000E+00  0.00000000000E+00  0.41219852513E+04  0.41219852513E+04  0.00000000000E+00 0. -1.
         -2   -1    0    0    0  501 -0.00000000000E+00 -0.00000000000E+00 -0.14418153857E+04  0.14418153857E+04  0.00000000000E+00 0.  1.
         23    2    1    2    0    0  0.30492335632E+03  0.50070977068E+03  0.40398312281E+04  0.40831360739E+04  0.89862775684E+02 0.  0.
         11    1    3    3    0    0  0.12843112341E+03  0.28129437066E+03  0.19350007765E+04  0.19595532862E+04  0.00000000000E+00 0. -1.
        -11    1    3    3    0    0  0.17649223292E+03  0.21941540003E+03  0.21048304517E+04  0.21235827877E+04  0.00000000000E+00 0.  1.
         22    1    1    2    0    0 -0.30492335632E+03 -0.50070977068E+03 -0.13596613625E+04  0.14806645631E+04  0.00000000000E+00 0.  1.
<mgrwt>
<rscale>  0 0.48757120E+04</rscale>
<asrwt>0</asrwt>
<pdfrwt beam="1">  1        2 0.63415157E+00 0.48757120E+04</pdfrwt>
<pdfrwt beam="2">  1       -2 0.22181775E+00 0.48757120E+04</pdfrwt>
<totfact> 0.19086648E-02</totfact>
</mgrwt>
</event>
<event>
 6    1  0.1072514E-005  0.3538169E+04  0.7818608E-02  0.8104803E-01
         -2   -1    0    0    0  501 -0.00000000000E+00  0.00000000000E+00  0.23258110749E+04  0.23258110749E+04  0.00000000000E+00 0. -1.
          2   -1    0    0  501    0  0.00000000000E+00 -0.00000000000E+00 -0.13456209013E+04  0.13456209013E+04  0.00000000000E+00 0.  1.
         23    2    1    2    0    0  0.12822537077E+04 -0.12001760561E+04  0.28006316095E+03  0.17807244446E+04  0.89146155835E+02 0.  0.
         11    1    3    3    0    0  0.71911981570E+03 -0.73310169918E+03  0.16688246852E+03  0.10403947179E+04  0.00000000000E+00 0.  1.
        -11    1    3    3    0    0  0.56313389197E+03 -0.46707435688E+03  0.11318069243E+03  0.74032972673E+03  0.00000000000E+00 0. -1.
         22    1    1    2    0    0 -0.12822537077E+04  0.12001760561E+04  0.70012701263E+03  0.18907075316E+04  0.00000000000E+00 0. -1.
<mgrwt>
<rscale>  0 0.35381690E+04</rscale>
<asrwt>0</asrwt>
<pdfrwt beam="1">  1        2 0.20701860E+00 0.35381690E+04</pdfrwt>
<pdfrwt beam="2">  1       -2 0.35781709E+00 0.35381690E+04</pdfrwt>
<totfact> 0.17679116E-01</totfact>
</mgrwt>
</event>
<event>
 6    1  0.1072514E-005  0.8879705E+03  0.7818608E-02  0.9440745E-01
         -1   -1    0    0    0  501 -0.00000000000E+00  0.00000000000E+00  0.13570501503E+03  0.13570501503E+03  0.00000000000E+00 0.  1.
          1   -1    0    0  501    0  0.00000000000E+00 -0.00000000000E+00 -0.14525836918E+04  0.14525836918E+04  0.00000000000E+00 0. -1.
         23    2    1    2    0    0  0.18495557262E+03  0.32707909488E+03 -0.10723590068E+04  0.11399817058E+04  0.91734137885E+02 0.  0.
         11    1    3    3    0    0  0.45722177436E+02  0.15974733429E+03 -0.39575143473E+03  0.42921897257E+03  0.00000000000E+00 0.  1.
        -11    1    3    3    0    0  0.13923339518E+03  0.16733176059E+03 -0.67660757203E+03  0.71076273324E+03  0.00000000000E+00 0. -1.
         22    1    1    2    0    0 -0.18495557262E+03 -0.32707909488E+03 -0.24451967004E+03  0.44830700104E+03  0.00000000000E+00 0.  1.
<mgrwt>
<rscale>  0 0.88797048E+03</rscale>
<asrwt>0</asrwt>
<pdfrwt beam="1">  1        1 0.22347440E+00 0.88797048E+03</pdfrwt>
<pdfrwt beam="2">  1       -1 0.20877696E-01 0.88797048E+03</pdfrwt>
<totfact> 0.13552713E+02</totfact>
</mgrwt>
</event>
<event>
 6    1  0.1072514E-005  0.4220597E+04  0.7818608E-02  0.7961466E-01
          2   -1    0    0  501    0  0.00000000000E+00  0.00000000000E+00  0.36135916925E+04  0.36135916925E+04  0.00000000000E+00 0. -1.
         -2   -1    0    0    0  501 -0.00000000000E+00 -0.00000000000E+00 -0.12323913799E+04  0.12323913799E+04  0.00000000000E+00 0.  1.
         23    2    1    2    0    0  0.70197717430E+03 -0.31655860486E+03 -0.10637004371E+04  0.13160648753E+04  0.87102425739E+02 0.  0.
         11    1    3    3    0    0  0.54798048088E+03 -0.23107184888E+03 -0.87463194771E+03  0.10576662284E+04  0.00000000000E+00 0.  1.
        -11    1    3    3    0    0  0.15399669342E+03 -0.85486755983E+02 -0.18906848934E+03  0.25839864685E+03  0.00000000000E+00 0. -1.
         22    1    1    2    0    0 -0.70197717430E+03  0.31655860486E+03  0.34449007497E+04  0.35299181972E+04  0.00000000000E+00 0. -1.
<mgrwt>
<rscale>  0 0.42205968E+04</rscale>
<asrwt>0</asrwt>
<pdfrwt beam="1">  1        2 0.55593718E+00 0.42205968E+04</pdfrwt>
<pdfrwt beam="2">  1       -2 0.18959868E+00 0.42205968E+04</pdfrwt>
<totfact> 0.81404390E-02</totfact>
</mgrwt>
</event>
<event>
 6    1  0.1072514E-005  0.1501393E+04  0.7818608E-02  0.8883527E-01
          1   -1    0    0  501    0  0.00000000000E+00  0.00000000000E+00  0.65111770236E+03  0.65111770236E+03  0.00000000000E+00 0. -1.
         -1   -1    0    0    0  501 -0.00000000000E+00 -0.00000000000E+00 -0.86550412000E+03  0.86550412000E+03  0.00000000000E+00 0.  1.
         23    2    1    2    0    0  0.37895288646E+03  0.31528782114E+03 -0.67587656693E+03  0.84135531334E+03  0.89765969270E+02 0.  0.
         13    1    3    3    0    0  0.12311036760E+03  0.14554772478E+03 -0.21233039540E+03  0.28534978466E+03  0.00000000000E+00 0. -1.
        -13    1    3    3    0    0  0.25584251887E+03  0.16974009636E+03 -0.46354617154E+03  0.55600552868E+03  0.00000000000E+00 0.  1.
         22    1    1    2    0    0 -0.37895288646E+03 -0.31528782114E+03  0.46149014928E+03  0.67526650902E+03  0.00000000000E+00 0. -1.
<mgrwt>
<rscale>  0 0.15013928E+04</rscale>
<asrwt>0</asrwt>
<pdfrwt beam="1">  1        1 0.10017195E+00 0.15013928E+04</pdfrwt>
<pdfrwt beam="2">  1       -1 0.13315448E+00 0.15013928E+04</pdfrwt>
<totfact> 0.14024050E+01</totfact>
</mgrwt>
</event>
<event>
 6    1  0.1072514E-005  0.1837354E+04  0.7818608E-02  0.8686684E-01
          2   -1    0    0  501    0  0.00000000000E+00  0.00000000000E+00  0.11447715822E+04  0.11447715822E+04  0.00000000000E+00 0.  1.
         -2   -1    0    0    0  501 -0.00000000000E+00 -0.00000000000E+00 -0.73723619590E+03  0.73723619590E+03  0.00000000000E+00 0. -1.
         23    2    1    2    0    0  0.12740919716E+03 -0.27772661831E+03  0.10893371855E+04  0.11348673152E+04  0.88899614083E+02 0.  0.
         13    1    3    3    0    0 -0.13801823190E+02 -0.28917271790E+02  0.10158027471E+03  0.10651408894E+03  0.00000000000E+00 0. -1.
        -13    1    3    3    0    0  0.14121102035E+03 -0.24880934652E+03  0.98775691076E+03  0.10283532262E+04  0.00000000000E+00 0.  1.
         22    1    1    2    0    0 -0.12740919716E+03  0.27772661831E+03 -0.68180179915E+03  0.74714046294E+03  0.00000000000E+00 0. -1.
<mgrwt>
<rscale>  0 0.18373536E+04</rscale>
<asrwt>0</asrwt>
<pdfrwt beam="1">  1        2 0.17611871E+00 0.18373536E+04</pdfrwt>
<pdfrwt beam="2">  1       -2 0.11342095E+00 0.18373536E+04</pdfrwt>
<totfact> 0.11742289E+01</totfact>
</mgrwt>
</event>
<event>
 6    1  0.1072514E-005  0.7261945E+03  0.7818608E-02  0.9673456E-01
          1   -1    0    0  501    0  0.00000000000E+00  0.00000000000E+00  0.28182940046E+03  0.28182940046E+03  0.00000000000E+00 0. -1.
         -1   -1    0    0    0  501 -0.00000000000E+00 -0.00000000000E+00 -0.46779940358E+03  0.46779940358E+03  0.00000000000E+00 0.  1.
         23    2    1    2    0    0 -0.45655162819E+02 -0.42359190977E+02 -0.45768006381E+03  0.47087254486E+03  0.91494359071E+02 0.  0.
         13    1    3    3    0    0  0.19975145980E+02 -0.40315500012E+02 -0.19097696999E+03  0.19620537471E+03  0.00000000000E+00 0. -1.
        -13    1    3    3    0    0 -0.65630308799E+02 -0.20436909653E+01 -0.26670309382E+03  0.27466717015E+03  0.00000000000E+00 0.  1.
         22    1    1    2    0    0  0.45655162819E+02  0.42359190977E+02  0.27171006069E+03  0.27875625918E+03  0.00000000000E+00 0. -1.
<mgrwt>
<rscale>  0 0.72619453E+03</rscale>
<asrwt>0</asrwt>
<pdfrwt beam="1">  1        1 0.43358370E-01 0.72619453E+03</pdfrwt>
<pdfrwt beam="2">  1       -1 0.71969139E-01 0.72619453E+03</pdfrwt>
<totfact> 0.18799370E+02</totfact>
</mgrwt>
</event>
<event>
 6    1  0.1072514E-005  0.5213689E+04  0.7818608E-02  0.7796363E-01
          2   -1    0    0  501    0  0.00000000000E+00  0.00000000000E+00  0.42364002281E+04  0.42364002281E+04  0.00000000000E+00 0. -1.
         -2   -1    0    0    0  501 -0.00000000000E+00 -0.00000000000E+00 -0.16041066307E+04  0.16041066307E+04  0.00000000000E+00 0.  1.
         23    2    1    2    0    0  0.17614901842E+04  0.34428846926E+03 -0.80005203931E+03  0.19672164244E+04  0.92059632356E+02 0.  0.
         13    1    3    3    0    0  0.13598216778E+04  0.24644108573E+03 -0.57839567469E+03  0.14981287530E+04  0.00000000000E+00 0. -1.
        -13    1    3    3    0    0  0.40166850635E+03  0.97847383531E+02 -0.22165636463E+03  0.46908767137E+03  0.00000000000E+00 0.  1.
         22    1    1    2    0    0 -0.17614901842E+04 -0.34428846926E+03  0.34323456367E+04  0.38732904343E+04  0.00000000000E+00 0. -1.
<mgrwt>
<rscale>  0 0.52136888E+04</rscale>
<asrwt>0</asrwt>
<pdfrwt beam="1">  1        2 0.65175388E+00 0.52136888E+04</pdfrwt>
<pdfrwt beam="2">  1       -2 0.24678564E+00 0.52136888E+04</pdfrwt>
<totfact> 0.10332034E-02</totfact>
</mgrwt>
</event>
<event>
 6    1  0.1072514E-005  0.3480330E+04  0.7818608E-02  0.8118467E-01
          2   -1    0    0  501    0  0.00000000000E+00  0.00000000000E+00  0.33059430705E+04  0.33059430705E+04  0.00000000000E+00 0. -1.
         -2   -1    0    0    0  501 -0.00000000000E+00 -0.00000000000E+00 -0.91597870972E+03  0.91597870972E+03  0.00000000000E+00 0.  1.
         23    2    1    2    0    0 -0.15199729292E+04 -0.10347326641E+01  0.17106888564E+03  0.15323463666E+04  0.92206547491E+02 0.  0.
         11    1    3    3    0    0 -0.30875741842E+03 -0.21331928990E+02  0.42021608541E+01  0.30952197463E+03  0.00000000000E+00 0.  1.
        -11    1    3    3    0    0 -0.12112155108E+04  0.20297196326E+02  0.16686672478E+03  0.12228243919E+04  0.00000000000E+00 0. -1.
         22    1    1    2    0    0  0.15199729292E+04  0.10347326641E+01  0.22188954751E+04  0.26895754136E+04  0.00000000000E+00 0. -1.
<mgrwt>
<rscale>  0 0.34803296E+04</rscale>
<asrwt>0</asrwt>
<pdfrwt beam="1">  1        2 0.50860662E+00 0.34803296E+04</pdfrwt>
<pdfrwt beam="2">  1       -2 0.14091980E+00 0.34803296E+04</pdfrwt>
<totfact> 0.32034996E-01</totfact>
</mgrwt>
</event>
<event>
 6    1  0.1072514E-005  0.2293278E+04  0.7818608E-02  0.8480576E-01
          1   -1    0    0  501    0  0.00000000000E+00  0.00000000000E+00  0.63189995099E+03  0.63189995099E+03  0.00000000000E+00 0. -1.
         -1   -1    0    0    0  501 -0.00000000000E+00 -0.00000000000E+00 -0.20806795847E+04  0.20806795847E+04  0.00000000000E+00 0.  1.
         23    2    1    2    0    0  0.24362230133E+03 -0.53912076552E+03 -0.18846181230E+04  0.19777610450E+04  0.98743386183E+02 0.  0.
         11    1    3    3    0    0  0.11473376150E+03 -0.36496157493E+03 -0.11617259789E+04  0.12230977218E+04  0.00000000000E+00 0.  1.
        -11    1    3    3    0    0  0.12888853983E+03 -0.17415919059E+03 -0.72289214411E+03  0.75466332320E+03  0.00000000000E+00 0. -1.
         22    1    1    2    0    0 -0.24362230133E+03  0.53912076552E+03  0.43583848925E+03  0.73481849067E+03  0.00000000000E+00 0. -1.
<mgrwt>
<rscale>  0 0.22932783E+04</rscale>
<asrwt>0</asrwt>
<pdfrwt beam="1">  1        1 0.97215377E-01 0.22932783E+04</pdfrwt>
<pdfrwt beam="2">  1       -1 0.32010455E+00 0.22932783E+04</pdfrwt>
<totfact> 0.70212253E-01</totfact>
</mgrwt>
</event>
<event>
 6    1  0.1072514E-005  0.3895739E+04  0.7818608E-02  0.8025916E-01
          2   -1    0    0  501    0  0.00000000000E+00  0.00000000000E+00  0.20967602687E+04  0.20967602687E+04  0.00000000000E+00 0. -1.
         -2   -1    0    0    0  501 -0.00000000000E+00 -0.00000000000E+00 -0.18095518957E+04  0.18095518957E+04  0.00000000000E+00 0.  1.
         23    2    1    2    0    0 -0.29002160209E+03 -0.19074002974E+04  0.40480345541E+03  0.19734083832E+04  0.90478644039E+02 0.  0.
         11    1    3    3    0    0 -0.61084722886E+02 -0.59893711936E+03  0.15661016030E+03  0.62208018666E+03  0.00000000000E+00 0. -1.
        -11    1    3    3    0    0 -0.22893687921E+03 -0.13084631781E+04  0.24819329512E+03  0.13513281965E+04  0.00000000000E+00 0.  1.
         22    1    1    2    0    0  0.29002160209E+03  0.19074002974E+04 -0.11759508243E+03  0.19329037813E+04  0.00000000000E+00 0. -1.
<mgrwt>
<rscale>  0 0.38957395E+04</rscale>
<asrwt>0</asrwt>
<pdfrwt beam="1">  1        2 0.32257850E+00 0.38957395E+04</pdfrwt>
<pdfrwt beam="2">  1       -2 0.27839260E+00 0.38957395E+04</pdfrwt>
<totfact> 0.20220778E-01</totfact>
</mgrwt>
</event>
<event>
 6    1  0.1128397E-005  0.3822369E+04  0.7818608E-02  0.8041372E-01
         -1   -1    0    0    0  501 -0.00000000000E+00  0.00000000000E+00  0.19208409961E+04  0.19208409961E+04  0.00000000000E+00 0. -1.
          1   -1    0    0  501    0  0.00000000000E+00 -0.00000000000E+00 -0.19015764814E+04  0.19015764814E+04  0.00000000000E+00 0.  1.
         23    2    1    2    0    0 -0.36045985866E+03  0.12382217509E+04  0.14187623129E+04  0.19193361598E+04  0.88545919207E+02 0.  0.
         13    1    3    3    0    0 -0.29000982733E+03  0.91451622561E+03  0.10999134543E+04  0.14595393909E+04  0.00000000000E+00 0.  1.
        -13    1    3    3    0    0 -0.70450031335E+02  0.32370552533E+03  0.31884885862E+03  0.45979676889E+03  0.00000000000E+00 0. -1.
         22    1    1    2    0    0  0.36045985866E+03 -0.12382217509E+04 -0.13994977982E+04  0.19030813176E+04  0.00000000000E+00 0.  1.
<mgrwt>
<rscale>  0 0.38223689E+04</rscale>
<asrwt>0</asrwt>
<pdfrwt beam="1">  1        1 0.29255023E+00 0.38223689E+04</pdfrwt>
<pdfrwt beam="2">  1       -1 0.29551400E+00 0.38223689E+04</pdfrwt>
<totfact> 0.97466443E-02</totfact>
</mgrwt>
</event>
<event>
 6    1  0.1072514E-005  0.1587056E+04  0.7818608E-02  0.8828540E-01
          1   -1    0    0  501    0  0.00000000000E+00  0.00000000000E+00  0.29052324213E+04  0.29052324213E+04  0.00000000000E+00 0. -1.
         -1   -1    0    0    0  501 -0.00000000000E+00 -0.00000000000E+00 -0.21674214179E+03  0.21674214179E+03  0.00000000000E+00 0.  1.
         23    2    1    2    0    0  0.76467960490E+03 -0.83437565545E+02  0.98678757300E+03  0.12544926149E+04  0.91133314912E+02 0.  0.
         13    1    3    3    0    0  0.42203480666E+03 -0.26166145756E+02  0.47507966286E+03  0.63600214722E+03  0.00000000000E+00 0.  1.
        -13    1    3    3    0    0  0.34264479824E+03 -0.57271419789E+02  0.51170791014E+03  0.61849046766E+03  0.00000000000E+00 0. -1.
         22    1    1    2    0    0 -0.76467960490E+03  0.83437565545E+02  0.17017027065E+04  0.18674819482E+04  0.00000000000E+00 0.  1.
<mgrwt>
<rscale>  0 0.15870555E+04</rscale>
<asrwt>0</asrwt>
<pdfrwt beam="1">  1        1 0.44695881E+00 0.15870555E+04</pdfrwt>
<pdfrwt beam="2">  1       -1 0.33344947E-01 0.15870555E+04</pdfrwt>
<totfact> 0.57182741E+00</totfact>
</mgrwt>
</event>
<event>
 6    1  0.1072514E-005  0.3460634E+04  0.7818608E-02  0.8123183E-01
         -2   -1    0    0    0  501 -0.00000000000E+00  0.00000000000E+00  0.20853565576E+04  0.20853565576E+04  0.00000000000E+00 0.  1.
          2   -1    0    0  501    0  0.00000000000E+00 -0.00000000000E+00 -0.14357239019E+04  0.14357239019E+04  0.00000000000E+00 0. -1.
         23    2    1    2    0    0 -0.40530231791E+03 -0.12606682141E+04 -0.80627614423E+03  0.15530294570E+04  0.90911816975E+02 0.  0.
         13    1    3    3    0    0 -0.94753453137E+02 -0.20712999812E+03 -0.16395156249E+03  0.28064420152E+03  0.00000000000E+00 0.  1.
        -13    1    3    3    0    0 -0.31054886477E+03 -0.10535382160E+04 -0.64232458173E+03  0.12723852555E+04  0.00000000000E+00 0. -1.
         22    1    1    2    0    0  0.40530231791E+03  0.12606682141E+04  0.14559087999E+04  0.19680510025E+04  0.00000000000E+00 0.  1.
<mgrwt>
<rscale>  0 0.34606336E+04</rscale>
<asrwt>0</asrwt>
<pdfrwt beam="1">  1        2 0.22088060E+00 0.34606336E+04</pdfrwt>
<pdfrwt beam="2">  1       -2 0.32082409E+00 0.34606336E+04</pdfrwt>
<totfact> 0.26927552E-01</totfact>
</mgrwt>
</event>
<event>
 6    1  0.1072514E-005  0.3866382E+04  0.7818608E-02  0.8032058E-01
          2   -1    0    0  501    0  0.00000000000E+00  0.00000000000E+00  0.20795006419E+04  0.20795006419E+04  0.00000000000E+00 0. -1.
         -2   -1    0    0    0  501 -0.00000000000E+00 -0.00000000000E+00 -0.17971753782E+04  0.17971753782E+04  0.00000000000E+00 0.  1.
         23    2    1    2    0    0 -0.82664864310E+03 -0.16965009279E+04 -0.27420187160E+03  0.19091430903E+04  0.90428398588E+02 0.  0.
         11    1    3    3    0    0 -0.63832023879E+03 -0.12576984907E+04 -0.17246390112E+03  0.14209159081E+04  0.00000000000E+00 0.  1.
        -11    1    3    3    0    0 -0.18832840431E+03 -0.43880243723E+03 -0.10173797048E+03  0.48822718219E+03  0.00000000000E+00 0. -1.
         22    1    1    2    0    0  0.82664864310E+03  0.16965009279E+04  0.55652713526E+03  0.19675329298E+04  0.00000000000E+00 0.  1.
<mgrwt>
<rscale>  0 0.38663820E+04</rscale>
<asrwt>0</asrwt>
<pdfrwt beam="1">  1        2 0.31992317E+00 0.38663820E+04</pdfrwt>
<pdfrwt beam="2">  1       -2 0.27648852E+00 0.38663820E+04</pdfrwt>
<totfact> 0.21286517E-01</totfact>
</mgrwt>
</event>
<event>
 6    1  0.1072514E-005  0.1341821E+04  0.7818608E-02  0.8997042E-01
         -2   -1    0    0    0  501 -0.00000000000E+00  0.00000000000E+00  0.23067816226E+03  0.23067816226E+03  0.00000000000E+00 0.  1.
          2   -1    0    0  501    0  0.00000000000E+00 -0.00000000000E+00 -0.19512953528E+04  0.19512953528E+04  0.00000000000E+00 0. -1.
         23    2    1    2    0    0 -0.19116815104E+02 -0.60477473793E+03 -0.40732448867E+03  0.73599438069E+03  0.98267762204E+02 0.  0.
         11    1    3    3    0    0  0.34096034084E+02 -0.29536144233E+03 -0.22573603428E+03  0.37330641345E+03  0.00000000000E+00 0.  1.
        -11    1    3    3    0    0 -0.53212849188E+02 -0.30941329560E+03 -0.18158845439E+03  0.36268796724E+03  0.00000000000E+00 0. -1.
         22    1    1    2    0    0  0.19116815104E+02  0.60477473793E+03 -0.13132927019E+04  0.14459791344E+04  0.00000000000E+00 0. -1.
<mgrwt>
<rscale>  0 0.13418215E+04</rscale>
<asrwt>0</asrwt>
<pdfrwt beam="1">  1        2 0.30019928E+00 0.13418215E+04</pdfrwt>
<pdfrwt beam="2">  1       -2 0.35488949E-01 0.13418215E+04</pdfrwt>
<totfact> 0.51874126E+01</totfact>
</mgrwt>
</event>
<event>
 6    1  0.1072514E-005  0.3748874E+04  0.7818608E-02  0.8057216E-01
         -2   -1    0    0    0  501 -0.00000000000E+00  0.00000000000E+00  0.10689417164E+04  0.10689417164E+04  0.00000000000E+00 0.  1.
          2   -1    0    0  501    0  0.00000000000E+00 -0.00000000000E+00 -0.32869092748E+04  0.32869092748E+04  0.00000000000E+00 0. -1.
         23    2    1    2    0    0  0.16918180677E+04 -0.21133325887E+03 -0.20825512943E+03  0.17203521451E+04  0.96598052070E+02 0.  0.
         13    1    3    3    0    0  0.95628915722E+03 -0.16678939645E+03 -0.12755102314E+03  0.97906941454E+03  0.00000000000E+00 0.  1.
        -13    1    3    3    0    0  0.73552891051E+03 -0.44543862420E+02 -0.80704106292E+02  0.74128273058E+03  0.00000000000E+00 0. -1.
         22    1    1    2    0    0 -0.16918180677E+04  0.21133325887E+03 -0.20097124290E+04  0.26354988461E+04  0.00000000000E+00 0. -1.
<mgrwt>
<rscale>  0 0.37488742E+04</rscale>
<asrwt>0</asrwt>
<pdfrwt beam="1">  1        2 0.50567835E+00 0.37488742E+04</pdfrwt>
<pdfrwt beam="2">  1       -2 0.16445257E+00 0.37488742E+04</pdfrwt>
<totfact> 0.21353536E-01</totfact>
</mgrwt>
</event>
<event>
 6    1  0.1072514E-005  0.6811899E+03  0.7818608E-02  0.9749952E-01
         -2   -1    0    0    0  501 -0.00000000000E+00  0.00000000000E+00  0.23152283741E+03  0.23152283741E+03  0.00000000000E+00 0.  1.
          2   -1    0    0  501    0  0.00000000000E+00 -0.00000000000E+00 -0.50105175747E+03  0.50105175747E+03  0.00000000000E+00 0. -1.
         23    2    1    2    0    0 -0.31951641473E+03  0.74508842488E+02 -0.20713379158E+03  0.39860534637E+03  0.91320904760E+02 0.  0.
         13    1    3    3    0    0 -0.58107307983E+02 -0.21484187512E+02 -0.42033262595E+02  0.74865377301E+02  0.00000000000E+00 0.  1.
        -13    1    3    3    0    0 -0.26140910675E+03  0.95993030000E+02 -0.16510052899E+03  0.32373996907E+03  0.00000000000E+00 0. -1.
         22    1    1    2    0    0  0.31951641473E+03 -0.74508842488E+02 -0.62395128484E+02  0.33396924851E+03  0.00000000000E+00 0.  1.
<mgrwt>
<rscale>  0 0.68118991E+03</rscale>
<asrwt>0</asrwt>
<pdfrwt beam="1">  1        2 0.77084885E-01 0.68118991E+03</pdfrwt>
<pdfrwt beam="2">  1       -2 0.35618899E-01 0.68118991E+03</pdfrwt>
<totfact> 0.45835247E+02</totfact>
</mgrwt>
</event>
<event>
 6    1  0.1072514E-005  0.1807678E+04  0.7818608E-02  0.8702227E-01
         -1   -1    0    0    0  501 -0.00000000000E+00  0.00000000000E+00  0.89524450173E+03  0.89524450173E+03  0.00000000000E+00 0.  1.
          1   -1    0    0  501    0  0.00000000000E+00 -0.00000000000E+00 -0.91251642056E+03  0.91251642056E+03  0.00000000000E+00 0. -1.
         23    2    1    2    0    0 -0.11875737952E+03 -0.86370747523E+03  0.22130123270E+03  0.90387427753E+03  0.88997505802E+02 0.  0.
         13    1    3    3    0    0 -0.57886847134E+02 -0.47226429132E+03  0.16579140740E+03  0.50385636713E+03  0.00000000000E+00 0. -1.
        -13    1    3    3    0    0 -0.60870532387E+02 -0.39144318391E+03  0.55509825293E+02  0.40001791040E+03  0.00000000000E+00 0.  1.
         22    1    1    2    0    0  0.11875737952E+03  0.86370747523E+03 -0.23857315152E+03  0.90388664476E+03  0.00000000000E+00 0.  1.
<mgrwt>
<rscale>  0 0.18076784E+04</rscale>
<asrwt>0</asrwt>
<pdfrwt beam="1">  1        1 0.14038714E+00 0.18076784E+04</pdfrwt>
<pdfrwt beam="2">  1       -1 0.13772992E+00 0.18076784E+04</pdfrwt>
<totfact> 0.73319642E+00</totfact>
</mgrwt>
</event>
<event>
 6    1  0.1072514E-005  0.1508313E+04  0.7818608E-02  0.8878944E-01
          2   -1    0    0  501    0  0.00000000000E+00  0.00000000000E+00  0.66659663100E+03  0.66659663100E+03  0.00000000000E+00 0. -1.
         -2   -1    0    0    0  501 -0.00000000000E+00 -0.00000000000E+00 -0.85321787317E+03  0.85321787317E+03  0.00000000000E+00 0.  1.
         23    2    1    2    0    0  0.22375967151E+03  0.83729568617E+02  0.62412289612E+03  0.67460146059E+03  0.92079910509E+02 0.  0.
         13    1    3    3    0    0  0.11716931052E+03 -0.48170441469E+01  0.29949591744E+03  0.32163590565E+03  0.00000000000E+00 0. -1.
        -13    1    3    3    0    0  0.10659036099E+03  0.88546612763E+02  0.32462697868E+03  0.35296555494E+03  0.00000000000E+00 0.  1.
         22    1    1    2    0    0 -0.22375967151E+03 -0.83729568617E+02 -0.81074413829E+03  0.84521304358E+03  0.00000000000E+00 0.  1.
<mgrwt>
<rscale>  0 0.15083132E+04</rscale>
<asrwt>0</asrwt>
<pdfrwt beam="1">  1        2 0.10255333E+00 0.15083132E+04</pdfrwt>
<pdfrwt beam="2">  1       -2 0.13126429E+00 0.15083132E+04</pdfrwt>
<totfact> 0.17823507E+01</totfact>
</mgrwt>
</event>
<event>
 6    1  0.1072514E-005  0.1871085E+04  0.7818608E-02  0.8669384E-01
         -2   -1    0    0    0  501 -0.00000000000E+00  0.00000000000E+00  0.41824237140E+03  0.41824237140E+03  0.00000000000E+00 0.  1.
          2   -1    0    0  501    0  0.00000000000E+00 -0.00000000000E+00 -0.20926626412E+04  0.20926626412E+04  0.00000000000E+00 0. -1.
         23    2    1    2    0    0 -0.73350568827E+03  0.30984866718E+03 -0.14926476147E+04  0.16941565266E+04  0.90181171519E+02 0.  0.
         11    1    3    3    0    0 -0.16789803105E+03  0.68393341488E+02 -0.42497344090E+03  0.46202794662E+03  0.00000000000E+00 0.  1.
        -11    1    3    3    0    0 -0.56560765722E+03  0.24145532570E+03 -0.10676741738E+04  0.12321285799E+04  0.00000000000E+00 0. -1.
         22    1    1    2    0    0  0.73350568827E+03 -0.30984866718E+03 -0.18177265514E+03  0.81674848603E+03  0.00000000000E+00 0.  1.
<mgrwt>
<rscale>  0 0.18710854E+04</rscale>
<asrwt>0</asrwt>
<pdfrwt beam="1">  1        2 0.32194809E+00 0.18710854E+04</pdfrwt>
<pdfrwt beam="2">  1       -2 0.64344981E-01 0.18710854E+04</pdfrwt>
<totfact> 0.12424183E+01</totfact>
</mgrwt>
</event>
<event>
 6    1  0.1072514E-005  0.1487894E+04  0.7818608E-02  0.8892543E-01
         -2   -1    0    0    0  501 -0.00000000000E+00  0.00000000000E+00  0.35864815106E+03  0.35864815106E+03  0.00000000000E+00 0.  1.
          2   -1    0    0  501    0  0.00000000000E+00 -0.00000000000E+00 -0.15431764024E+04  0.15431764024E+04  0.00000000000E+00 0. -1.
         23    2    1    2    0    0  0.15958827640E+03  0.43215404160E+03 -0.13366612511E+04  0.14166751092E+04  0.89886212795E+02 0.  0.
         11    1    3    3    0    0  0.14108427909E+02  0.15783347902E+03 -0.47947861730E+03  0.50498534561E+03  0.00000000000E+00 0. -1.
        -11    1    3    3    0    0  0.14547984849E+03  0.27432056258E+03 -0.85718263377E+03  0.91168976358E+03  0.00000000000E+00 0.  1.
         22    1    1    2    0    0 -0.15958827640E+03 -0.43215404160E+03  0.15213299976E+03  0.48514944424E+03  0.00000000000E+00 0.  1.
<mgrwt>
<rscale>  0 0.14878943E+04</rscale>
<asrwt>0</asrwt>
<pdfrwt beam="1">  1        2 0.23741175E+00 0.14878943E+04</pdfrwt>
<pdfrwt beam="2">  1       -2 0.55176639E-01 0.14878943E+04</pdfrwt>
<totfact> 0.35838058E+01</totfact>
</mgrwt>
</event>
<event>
 6    1  0.1072514E-005  0.1919245E+04  0.7818608E-02  0.8645336E-01
          1   -1    0    0  501    0  0.00000000000E+00  0.00000000000E+00  0.14544053004E+04  0.14544053004E+04  0.00000000000E+00 0. -1.
         -1   -1    0    0    0  501 -0.00000000000E+00 -0.00000000000E+00 -0.63316306343E+03  0.63316306343E+03  0.00000000000E+00 0.  1.
         23    2    1    2    0    0  0.58875703031E+03 -0.69185403811E+03  0.82970699445E+02  0.91695240889E+03  0.92847899379E+02 0.  0.
         13    1    3    3    0    0  0.38749148685E+03 -0.48287968622E+03  0.16751809081E+02  0.61935697853E+03  0.00000000000E+00 0.  1.
        -13    1    3    3    0    0  0.20126554346E+03 -0.20897435189E+03  0.66218890365E+02  0.29759543036E+03  0.00000000000E+00 0. -1.
         22    1    1    2    0    0 -0.58875703031E+03  0.69185403811E+03  0.73827153748E+03  0.11706159549E+04  0.00000000000E+00 0. -1.
<mgrwt>
<rscale>  0 0.19192454E+04</rscale>
<asrwt>0</asrwt>
<pdfrwt beam="1">  1        1 0.22375466E+00 0.19192454E+04</pdfrwt>
<pdfrwt beam="2">  1       -1 0.97409703E-01 0.19192454E+04</pdfrwt>
<totfact> 0.66513982E+00</totfact>
</mgrwt>
</event>
<event>
 6    1  0.1072514E-005  0.1624893E+04  0.7818608E-02  0.8805399E-01
          3   -1    0    0  501    0  0.00000000000E+00  0.00000000000E+00  0.63848121865E+03  0.63848121865E+03  0.00000000000E+00 0. -1.
         -3   -1    0    0    0  501 -0.00000000000E+00 -0.00000000000E+00 -0.10338118821E+04  0.10338118821E+04  0.00000000000E+00 0.  1.
         23    2    1    2    0    0 -0.40365459879E+03  0.67945939305E+03 -0.38062222698E+03  0.88183852262E+03  0.90353740262E+02 0.  0.
         13    1    3    3    0    0 -0.30214341604E+03  0.42473926743E+03 -0.24638349789E+03  0.57654047315E+03  0.00000000000E+00 0. -1.
        -13    1    3    3    0    0 -0.10151118274E+03  0.25472012563E+03 -0.13423872909E+03  0.30529804947E+03  0.00000000000E+00 0.  1.
         22    1    1    2    0    0  0.40365459879E+03 -0.67945939305E+03 -0.14708436441E+02  0.79045457810E+03  0.00000000000E+00 0. -1.
<mgrwt>
<rscale>  0 0.16248932E+04</rscale>
<asrwt>0</asrwt>
<pdfrwt beam="1">  1        3 0.98227880E-01 0.16248932E+04</pdfrwt>
<pdfrwt beam="2">  1       -3 0.15904798E+00 0.16248932E+04</pdfrwt>
<totfact> 0.63205060E-01</totfact>
</mgrwt>
</event>
<event>
 6    1  0.1072514E-005  0.1706574E+04  0.7818608E-02  0.8757624E-01
          1   -1    0    0  501    0  0.00000000000E+00  0.00000000000E+00  0.77977142876E+03  0.77977142876E+03  0.00000000000E+00 0. -1.
         -1   -1    0    0    0  501 -0.00000000000E+00 -0.00000000000E+00 -0.93373334080E+03  0.93373334080E+03  0.00000000000E+00 0.  1.
         23    2    1    2    0    0  0.65541744724E+03 -0.49493997196E+03 -0.29999599602E+03  0.87932040165E+03  0.93108351680E+02 0.  0.
         11    1    3    3    0    0  0.27115747557E+03 -0.23876720480E+03 -0.17161952413E+03  0.39998676942E+03  0.00000000000E+00 0.  1.
        -11    1    3    3    0    0  0.38425997167E+03 -0.25617276715E+03 -0.12837647189E+03  0.47933363224E+03  0.00000000000E+00 0. -1.
         22    1    1    2    0    0 -0.65541744724E+03  0.49493997196E+03  0.14603408397E+03  0.83418436791E+03  0.00000000000E+00 0. -1.
<mgrwt>
<rscale>  0 0.17065739E+04</rscale>
<asrwt>0</asrwt>
<pdfrwt beam="1">  1        1 0.11996484E+00 0.17065739E+04</pdfrwt>
<pdfrwt beam="2">  1       -1 0.14365128E+00 0.17065739E+04</pdfrwt>
<totfact> 0.85817101E+00</totfact>
</mgrwt>
</event>
<event>
 6    1  0.1072514E-005  0.1213067E+04  0.7818608E-02  0.9101495E-01
          2   -1    0    0  501    0  0.00000000000E+00  0.00000000000E+00  0.20648032761E+04  0.20648032761E+04  0.00000000000E+00 0. -1.
         -2   -1    0    0    0  501 -0.00000000000E+00 -0.00000000000E+00 -0.17816856617E+03  0.17816856617E+03  0.00000000000E+00 0.  1.
         23    2    1    2    0    0  0.10342511827E+03  0.21299347686E+03  0.19742199578E+04  0.19905156046E+04  0.92438920786E+02 0.  0.
         13    1    3    3    0    0  0.71838500301E+02  0.20928556853E+03  0.16578968557E+04  0.16725977411E+04  0.00000000000E+00 0.  1.
        -13    1    3    3    0    0  0.31586617973E+02  0.37079083297E+01  0.31632310215E+03  0.31791786357E+03  0.00000000000E+00 0. -1.
         22    1    1    2    0    0 -0.10342511827E+03 -0.21299347686E+03 -0.87585247907E+02  0.25245623765E+03  0.00000000000E+00 0.  1.
<mgrwt>
<rscale>  0 0.12130673E+04</rscale>
<asrwt>0</asrwt>
<pdfrwt beam="1">  1        2 0.31766202E+00 0.12130673E+04</pdfrwt>
<pdfrwt beam="2">  1       -2 0.27410550E-01 0.12130673E+04</pdfrwt>
<totfact> 0.73614568E+01</totfact>
</mgrwt>
</event>
<event>
 6    1  0.1072514E-005  0.8928274E+03  0.7818608E-02  0.9434592E-01
         -2   -1    0    0    0  501 -0.00000000000E+00  0.00000000000E+00  0.14089565331E+03  0.14089565331E+03  0.00000000000E+00 0.  1.
          2   -1    0    0  501    0  0.00000000000E+00 -0.00000000000E+00 -0.14144169333E+04  0.14144169333E+04  0.00000000000E+00 0. -1.
         23    2    1    2    0    0  0.24810800029E+03  0.27627922835E+03 -0.10603222302E+04  0.11271284829E+04  0.90816261362E+02 0.  0.
         11    1    3    3    0    0  0.17670230885E+03  0.19749465015E+03 -0.62212601839E+03  0.67621640437E+03  0.00000000000E+00 0.  1.
        -11    1    3    3    0    0  0.71405691442E+02  0.78784578208E+02 -0.43819621181E+03  0.45091207855E+03  0.00000000000E+00 0. -1.
         22    1    1    2    0    0 -0.24810800029E+03 -0.27627922835E+03 -0.21319904979E+03  0.42818410370E+03  0.00000000000E+00 0. -1.
<mgrwt>
<rscale>  0 0.89282741E+03</rscale>
<asrwt>0</asrwt>
<pdfrwt beam="1">  1        2 0.21760261E+00 0.89282741E+03</pdfrwt>
<pdfrwt beam="2">  1       -2 0.21676254E-01 0.89282741E+03</pdfrwt>
<totfact> 0.26381777E+02</totfact>
</mgrwt>
</event>
<event>
 6    1  0.1072514E-005  0.4540690E+04  0.7818608E-02  0.7903552E-01
          1   -1    0    0  501    0  0.00000000000E+00  0.00000000000E+00  0.30252067288E+04  0.30252067288E+04  0.00000000000E+00 0. -1.
         -1   -1    0    0    0  501 -0.00000000000E+00 -0.00000000000E+00 -0.17038392125E+04  0.17038392125E+04  0.00000000000E+00 0.  1.
         23    2    1    2    0    0  0.11782551073E+04 -0.17672571376E+04 -0.17138151758E+03  0.21329368206E+04  0.92547110223E+02 0.  0.
         11    1    3    3    0    0  0.52584605308E+03 -0.72810780210E+03 -0.41363173729E+02  0.89909173901E+03  0.00000000000E+00 0.  1.
        -11    1    3    3    0    0  0.65240905426E+03 -0.10391493355E+04 -0.13001834386E+03  0.12338450816E+04  0.00000000000E+00 0. -1.
         22    1    1    2    0    0 -0.11782551073E+04  0.17672571376E+04  0.14927490340E+04  0.25961091207E+04  0.00000000000E+00 0. -1.
<mgrwt>
<rscale>  0 0.45406897E+04</rscale>
<asrwt>0</asrwt>
<pdfrwt beam="1">  1        1 0.46541642E+00 0.45406897E+04</pdfrwt>
<pdfrwt beam="2">  1       -1 0.26212911E+00 0.45406897E+04</pdfrwt>
<totfact> 0.24930740E-02</totfact>
</mgrwt>
</event>
<event>
 6    1  0.1072514E-005  0.2048769E+04  0.7818608E-02  0.8584153E-01
         -1   -1    0    0    0  501 -0.00000000000E+00  0.00000000000E+00  0.10185220276E+04  0.10185220276E+04  0.00000000000E+00 0.  1.
          1   -1    0    0  501    0  0.00000000000E+00 -0.00000000000E+00 -0.10302808101E+04  0.10302808101E+04  0.00000000000E+00 0. -1.
         23    2    1    2    0    0 -0.59954984192E+03 -0.40774870286E+03  0.71514377142E+03  0.10221060273E+04  0.86897063406E+02 0.  0.
         11    1    3    3    0    0 -0.50265885654E+03 -0.30553918714E+03  0.59927109792E+03  0.83972970040E+03  0.00000000000E+00 0.  1.
        -11    1    3    3    0    0 -0.96890985378E+02 -0.10220951572E+03  0.11587267351E+03  0.18237632691E+03  0.00000000000E+00 0. -1.
         22    1    1    2    0    0  0.59954984192E+03  0.40774870286E+03 -0.72690255394E+03  0.10266968104E+04  0.00000000000E+00 0. -1.
<mgrwt>
<rscale>  0 0.20487691E+04</rscale>
<asrwt>0</asrwt>
<pdfrwt beam="1">  1        1 0.15850474E+00 0.20487691E+04</pdfrwt>
<pdfrwt beam="2">  1       -1 0.15669570E+00 0.20487691E+04</pdfrwt>
<totfact> 0.41004005E+00</totfact>
</mgrwt>
</event>
<event>
 6    1  0.1072514E-005  0.1329999E+04  0.7818608E-02  0.9006108E-01
          2   -1    0    0  501    0  0.00000000000E+00  0.00000000000E+00  0.16721158427E+04  0.16721158427E+04  0.00000000000E+00 0. -1.
         -2   -1    0    0    0  501 -0.00000000000E+00 -0.00000000000E+00 -0.26447003240E+03  0.26447003240E+03  0.00000000000E+00 0.  1.
         23    2    1    2    0    0  0.46273862284E+03 -0.23802300671E+03  0.13020903193E+04  0.14056207666E+04  0.97716708143E+02 0.  0.
         11    1    3    3    0    0  0.18700761070E+03 -0.55746471278E+02  0.56689582412E+03  0.59954181749E+03  0.00000000000E+00 0. -1.
        -11    1    3    3    0    0  0.27573101214E+03 -0.18227653543E+03  0.73519449516E+03  0.80607894907E+03  0.00000000000E+00 0.  1.
         22    1    1    2    0    0 -0.46273862284E+03  0.23802300671E+03  0.10555549103E+03  0.53096510853E+03  0.00000000000E+00 0.  1.
<mgrwt>
<rscale>  0 0.13299993E+04</rscale>
<asrwt>0</asrwt>
<pdfrwt beam="1">  1        2 0.25724858E+00 0.13299993E+04</pdfrwt>
<pdfrwt beam="2">  1       -2 0.40687698E-01 0.13299993E+04</pdfrwt>
<totfact> 0.56852540E+01</totfact>
</mgrwt>
</event>
<event>
 6    1  0.1072514E-005  0.2708558E+04  0.7818608E-02  0.8332233E-01
         -2   -1    0    0    0  501 -0.00000000000E+00  0.00000000000E+00  0.57920153271E+03  0.57920153271E+03  0.00000000000E+00 0.  1.
          2   -1    0    0  501    0  0.00000000000E+00 -0.00000000000E+00 -0.31665523764E+04  0.31665523764E+04  0.00000000000E+00 0. -1.
         23    2    1    2    0    0  0.56822810424E+03 -0.12181110841E+04 -0.10845295784E+04  0.17295323074E+04  0.91650445709E+02 0.  0.
         13    1    3    3    0    0  0.13607353449E+03 -0.26994511879E+03 -0.19745867939E+03  0.36107659023E+03  0.00000000000E+00 0.  1.
        -13    1    3    3    0    0  0.43215456975E+03 -0.94816596535E+03 -0.88707089905E+03  0.13684557172E+04  0.00000000000E+00 0. -1.
         22    1    1    2    0    0 -0.56822810424E+03  0.12181110841E+04 -0.15028212653E+04  0.20162216017E+04  0.00000000000E+00 0.  1.
<mgrwt>
<rscale>  0 0.27085583E+04</rscale>
<asrwt>0</asrwt>
<pdfrwt beam="1">  1        2 0.48716190E+00 0.27085583E+04</pdfrwt>
<pdfrwt beam="2">  1       -2 0.89107928E-01 0.27085583E+04</pdfrwt>
<totfact> 0.12922835E+00</totfact>
</mgrwt>
</event>
<event>
 6    1  0.1072514E-005  0.4202741E+04  0.7818608E-02  0.7964851E-01
         -2   -1    0    0    0  501 -0.00000000000E+00  0.00000000000E+00  0.18859774939E+04  0.18859774939E+04  0.00000000000E+00 0.  1.
          2   -1    0    0  501    0  0.00000000000E+00 -0.00000000000E+00 -0.23413624922E+04  0.23413624922E+04  0.00000000000E+00 0. -1.
         23    2    1    2    0    0 -0.15129655886E+04  0.11866185246E+03  0.12328592788E+04  0.19572487442E+04  0.87949631364E+02 0.  0.
         11    1    3    3    0    0 -0.12938414058E+04  0.92437490529E+02  0.10140133960E+04  0.16464487360E+04  0.00000000000E+00 0. -1.
        -11    1    3    3    0    0 -0.21912418277E+03  0.26224361932E+02  0.21884588282E+03  0.31080000814E+03  0.00000000000E+00 0.  1.
         22    1    1    2    0    0  0.15129655886E+04 -0.11866185246E+03 -0.16882442771E+04  0.22700912419E+04  0.00000000000E+00 0. -1.
<mgrwt>
<rscale>  0 0.42027405E+04</rscale>
<asrwt>0</asrwt>
<pdfrwt beam="1">  1        2 0.36020962E+00 0.42027405E+04</pdfrwt>
<pdfrwt beam="2">  1       -2 0.29015038E+00 0.42027405E+04</pdfrwt>
<totfact> 0.12169962E-01</totfact>
</mgrwt>
</event>
<event>
 6    1  0.1072514E-005  0.3280378E+04  0.7818608E-02  0.8167906E-01
          2   -1    0    0  501    0  0.00000000000E+00  0.00000000000E+00  0.12121355121E+04  0.12121355121E+04  0.00000000000E+00 0. -1.
         -2   -1    0    0    0  501 -0.00000000000E+00 -0.00000000000E+00 -0.22194049839E+04  0.22194049839E+04  0.00000000000E+00 0.  1.
         23    2    1    2    0    0  0.66791314397E+03 -0.10604077316E+04 -0.16088363448E+04  0.20414127222E+04  0.91863990434E+02 0.  0.
         11    1    3    3    0    0  0.31363179228E+03 -0.42167394188E+03 -0.64077510232E+03  0.82871379025E+03  0.00000000000E+00 0.  1.
        -11    1    3    3    0    0  0.35428135169E+03 -0.63873378968E+03 -0.96806124252E+03  0.12126989319E+04  0.00000000000E+00 0. -1.
         22    1    1    2    0    0 -0.66791314397E+03  0.10604077316E+04  0.60156687304E+03  0.13901277739E+04  0.00000000000E+00 0. -1.
<mgrwt>
<rscale>  0 0.32803778E+04</rscale>
<asrwt>0</asrwt>
<pdfrwt beam="1">  1        2 0.18648239E+00 0.32803778E+04</pdfrwt>
<pdfrwt beam="2">  1       -2 0.34144692E+00 0.32803778E+04</pdfrwt>
<totfact> 0.27429937E-01</totfact>
</mgrwt>
</event>
<event>
 6    1  0.1072514E-005  0.9386648E+03  0.7818608E-02  0.9378499E-01
          1   -1    0    0  501    0  0.00000000000E+00  0.00000000000E+00  0.13563299935E+04  0.13563299935E+04  0.00000000000E+00 0. -1.
         -1   -1    0    0    0  501 -0.00000000000E+00 -0.00000000000E+00 -0.16240361421E+03  0.16240361421E+03  0.00000000000E+00 0.  1.
         23    2    1    2    0    0 -0.26738972970E+03 -0.24894795617E+03  0.10677710568E+04  0.11322267930E+04  0.91269538059E+02 0.  0.
         11    1    3    3    0    0 -0.10884568139E+03 -0.98908637216E+02  0.57055730723E+03  0.58920789345E+03  0.00000000000E+00 0. -1.
        -11    1    3    3    0    0 -0.15854404831E+03 -0.15003931895E+03  0.49721374960E+03  0.54301889955E+03  0.00000000000E+00 0.  1.
         22    1    1    2    0    0  0.26738972970E+03  0.24894795617E+03  0.12615532247E+03  0.38650681471E+03  0.00000000000E+00 0.  1.
<mgrwt>
<rscale>  0 0.93866478E+03</rscale>
<asrwt>0</asrwt>
<pdfrwt beam="1">  1        1 0.20866615E+00 0.93866478E+03</pdfrwt>
<pdfrwt beam="2">  1       -1 0.24985172E-01 0.93866478E+03</pdfrwt>
<totfact> 0.11626998E+02</totfact>
</mgrwt>
</event>
<event>
 6    1  0.1072514E-005  0.9792939E+03  0.7818608E-02  0.9331551E-01
         -1   -1    0    0    0  501 -0.00000000000E+00  0.00000000000E+00  0.72881735153E+03  0.72881735153E+03  0.00000000000E+00 0. -1.
          1   -1    0    0  501    0  0.00000000000E+00 -0.00000000000E+00 -0.32896324136E+03  0.32896324136E+03  0.00000000000E+00 0.  1.
         23    2    1    2    0    0 -0.10484425111E+03  0.33244576664E+03 -0.16322278671E+03  0.39553585222E+03  0.91073747789E+02 0.  0.
         13    1    3    3    0    0 -0.10827351248E+03  0.25954524574E+03 -0.98456571341E+02  0.29796070971E+03  0.00000000000E+00 0. -1.
        -13    1    3    3    0    0  0.34292613714E+01  0.72900520904E+02 -0.64766215368E+02  0.97575142504E+02  0.00000000000E+00 0.  1.
         22    1    1    2    0    0  0.10484425111E+03 -0.33244576664E+03  0.56307689687E+03  0.66224474067E+03  0.00000000000E+00 0. -1.
<mgrwt>
<rscale>  0 0.97929386E+03</rscale>
<asrwt>0</asrwt>
<pdfrwt beam="1">  1        1 0.50609730E-01 0.97929386E+03</pdfrwt>
<pdfrwt beam="2">  1       -1 0.11212575E+00 0.97929386E+03</pdfrwt>
<totfact> 0.56909831E+01</totfact>
</mgrwt>
</event>
<event>
 6    1  0.1072514E-005  0.7698854E+04  0.7818608E-02  0.7509364E-01
          2   -1    0    0  501    0  0.00000000000E+00  0.00000000000E+00  0.37235269134E+04  0.37235269134E+04  0.00000000000E+00 0. -1.
         -2   -1    0    0    0  501 -0.00000000000E+00 -0.00000000000E+00 -0.39795838539E+04  0.39795838539E+04  0.00000000000E+00 0.  1.
         23    2    1    2    0    0  0.14420245963E+04  0.17812605625E+04 -0.32221164984E+04  0.39548000240E+04  0.78002387617E+02 0.  0.
         13    1    3    3    0    0  0.64137020836E+03  0.73103566399E+03 -0.13638539891E+04  0.16750721148E+04  0.00000000000E+00 0.  1.
        -13    1    3    3    0    0  0.80065438798E+03  0.10502248985E+04 -0.18582625093E+04  0.22797279092E+04  0.00000000000E+00 0. -1.
         22    1    1    2    0    0 -0.14420245963E+04 -0.17812605625E+04  0.29660595578E+04  0.37483107433E+04  0.00000000000E+00 0. -1.
<mgrwt>
<rscale>  0 0.76988538E+04</rscale>
<asrwt>0</asrwt>
<pdfrwt beam="1">  1        2 0.57285030E+00 0.76988538E+04</pdfrwt>
<pdfrwt beam="2">  1       -2 0.61224366E+00 0.76988538E+04</pdfrwt>
<totfact> 0.15604224E-04</totfact>
</mgrwt>
</event>
<event>
 6    1  0.1072514E-005  0.7382576E+03  0.7818608E-02  0.9653955E-01
         -2   -1    0    0    0  501 -0.00000000000E+00  0.00000000000E+00  0.12452004130E+03  0.12452004130E+03  0.00000000000E+00 0.  1.
          2   -1    0    0  501    0  0.00000000000E+00 -0.00000000000E+00 -0.10942501737E+04  0.10942501737E+04  0.00000000000E+00 0. -1.
         23    2    1    2    0    0 -0.10356992796E+03  0.26059628436E+03 -0.10939164534E+03  0.31388377697E+03  0.88990673531E+02 0.  0.
         13    1    3    3    0    0  0.15263108320E+02  0.51303433890E+02 -0.19319196884E+02  0.56905502131E+02  0.00000000000E+00 0. -1.
        -13    1    3    3    0    0 -0.11883303628E+03  0.20929285047E+03 -0.90072448457E+02  0.25697827484E+03  0.00000000000E+00 0.  1.
         22    1    1    2    0    0  0.10356992796E+03 -0.26059628436E+03 -0.86033848706E+03  0.90488643802E+03  0.00000000000E+00 0. -1.
<mgrwt>
<rscale>  0 0.73825762E+03</rscale>
<asrwt>0</asrwt>
<pdfrwt beam="1">  1        2 0.16834619E+00 0.73825762E+03</pdfrwt>
<pdfrwt beam="2">  1       -2 0.19156928E-01 0.73825762E+03</pdfrwt>
<totfact> 0.50900665E+02</totfact>
</mgrwt>
</event>
<event>
 6    1  0.1072514E-005  0.9604910E+03  0.7818608E-02  0.9352972E-01
         -2   -1    0    0    0  501 -0.00000000000E+00  0.00000000000E+00  0.24382395433E+03  0.24382395433E+03  0.00000000000E+00 0.  1.
          2   -1    0    0  501    0  0.00000000000E+00 -0.00000000000E+00 -0.94591094373E+03  0.94591094373E+03  0.00000000000E+00 0. -1.
         23    2    1    2    0    0 -0.38271636826E+03 -0.23384877781E+03 -0.15778837121E+03  0.48445619060E+03  0.92970754030E+02 0.  0.
         13    1    3    3    0    0 -0.16744383171E+03 -0.67113374758E+02 -0.99430332885E+02  0.20598066159E+03  0.00000000000E+00 0.  1.
        -13    1    3    3    0    0 -0.21527253655E+03 -0.16673540306E+03 -0.58358038326E+02  0.27847552902E+03  0.00000000000E+00 0. -1.
         22    1    1    2    0    0  0.38271636826E+03  0.23384877781E+03 -0.54429861819E+03  0.70527870745E+03  0.00000000000E+00 0. -1.
<mgrwt>
<rscale>  0 0.96049101E+03</rscale>
<asrwt>0</asrwt>
<pdfrwt beam="1">  1        2 0.14552476E+00 0.96049101E+03</pdfrwt>
<pdfrwt beam="2">  1       -2 0.37511378E-01 0.96049101E+03</pdfrwt>
<totfact> 0.18298642E+02</totfact>
</mgrwt>
</event>
<event>
 6    1  0.1072514E-005  0.1610070E+04  0.7818608E-02  0.8814385E-01
         -1   -1    0    0    0  501 -0.00000000000E+00  0.00000000000E+00  0.29166181364E+03  0.29166181364E+03  0.00000000000E+00 0.  1.
          1   -1    0    0  501    0  0.00000000000E+00 -0.00000000000E+00 -0.22220309727E+04  0.22220309727E+04  0.00000000000E+00 0. -1.
         23    2    1    2    0    0 -0.73327384056E+03  0.21092946545E+03 -0.57995675832E+03  0.96263011298E+03  0.90139493292E+02 0.  0.
         11    1    3    3    0    0 -0.40814529527E+03  0.15935996596E+03 -0.30713834852E+03  0.53508143860E+03  0.00000000000E+00 0.  1.
        -11    1    3    3    0    0 -0.32512854529E+03  0.51569499495E+02 -0.27281840979E+03  0.42754867437E+03  0.00000000000E+00 0. -1.
         22    1    1    2    0    0  0.73327384056E+03 -0.21092946545E+03 -0.13504124008E+04  0.15510626734E+04  0.00000000000E+00 0. -1.
<mgrwt>
<rscale>  0 0.16100703E+04</rscale>
<asrwt>0</asrwt>
<pdfrwt beam="1">  1        1 0.34185091E+00 0.16100703E+04</pdfrwt>
<pdfrwt beam="2">  1       -1 0.44871049E-01 0.16100703E+04</pdfrwt>
<totfact> 0.99435381E+00</totfact>
</mgrwt>
</event>
<event>
 6    1  0.1072514E-005  0.2526687E+04  0.7818608E-02  0.8393539E-01
         -1   -1    0    0    0  501 -0.00000000000E+00  0.00000000000E+00  0.76047446991E+03  0.76047446991E+03  0.00000000000E+00 0.  1.
          1   -1    0    0  501    0  0.00000000000E+00 -0.00000000000E+00 -0.20987381828E+04  0.20987381828E+04  0.00000000000E+00 0. -1.
         23    2    1    2    0    0 -0.11136068974E+04 -0.29388599520E+03 -0.86837362157E+02  0.11584606980E+04  0.89449209509E+02 0.  0.
         11    1    3    3    0    0 -0.48991387152E+03 -0.10833586924E+03 -0.77396852786E+02  0.50768349874E+03  0.00000000000E+00 0. -1.
        -11    1    3    3    0    0 -0.62369302593E+03 -0.18555012596E+03 -0.94405093715E+01  0.65077719924E+03  0.00000000000E+00 0.  1.
         22    1    1    2    0    0  0.11136068974E+04  0.29388599520E+03 -0.12514263507E+04  0.17007519547E+04  0.00000000000E+00 0. -1.
<mgrwt>
<rscale>  0 0.25266870E+04</rscale>
<asrwt>0</asrwt>
<pdfrwt beam="1">  1        1 0.32288280E+00 0.25266870E+04</pdfrwt>
<pdfrwt beam="2">  1       -1 0.11699607E+00 0.25266870E+04</pdfrwt>
<totfact> 0.14900998E+00</totfact>
</mgrwt>
</event>
<event>
 6    1  0.1072514E-005  0.1423404E+04  0.7818608E-02  0.8937049E-01
         -2   -1    0    0    0  501 -0.00000000000E+00  0.00000000000E+00  0.74748837861E+03  0.74748837861E+03  0.00000000000E+00 0.  1.
          2   -1    0    0  501    0  0.00000000000E+00 -0.00000000000E+00 -0.67762930219E+03  0.67762930219E+03  0.00000000000E+00 0. -1.
         23    2    1    2    0    0 -0.16666390232E+03  0.57091962918E+03 -0.35087789529E+03  0.69659473766E+03  0.91667070463E+02 0.  0.
         13    1    3    3    0    0 -0.73489712057E+02  0.11771428972E+03 -0.71537407990E+02  0.15612492602E+03  0.00000000000E+00 0.  1.
        -13    1    3    3    0    0 -0.93174190266E+02  0.45320533946E+03 -0.27934048730E+03  0.54046981164E+03  0.00000000000E+00 0. -1.
         22    1    1    2    0    0  0.16666390232E+03 -0.57091962918E+03  0.42073697170E+03  0.72852294314E+03  0.00000000000E+00 0. -1.
<mgrwt>
<rscale>  0 0.14234044E+04</rscale>
<asrwt>0</asrwt>
<pdfrwt beam="1">  1        2 0.10425066E+00 0.14234044E+04</pdfrwt>
<pdfrwt beam="2">  1       -2 0.11499821E+00 0.14234044E+04</pdfrwt>
<totfact> 0.24457019E+01</totfact>
</mgrwt>
</event>
<event>
 6    1  0.1072514E-005  0.6912141E+03  0.7818608E-02  0.9732376E-01
         -2   -1    0    0    0  501 -0.00000000000E+00  0.00000000000E+00  0.89653422562E+02  0.89653422562E+02  0.00000000000E+00 0.  1.
          2   -1    0    0  501    0  0.00000000000E+00 -0.00000000000E+00 -0.13322886352E+04  0.13322886352E+04  0.00000000000E+00 0. -1.
         23    2    1    2    0    0 -0.33781873730E+03  0.27767183575E+02 -0.59220707080E+03  0.68849179806E+03  0.91756337855E+02 0.  0.
         11    1    3    3    0    0 -0.23639477739E+03 -0.45103828964E+01 -0.33408815038E+03  0.40928929446E+03  0.00000000000E+00 0.  1.
        -11    1    3    3    0    0 -0.10142395991E+03  0.32277566471E+02 -0.25811892042E+03  0.27920250360E+03  0.00000000000E+00 0. -1.
         22    1    1    2    0    0  0.33781873730E+03 -0.27767183575E+02 -0.65042814182E+03  0.73345025968E+03  0.00000000000E+00 0.  1.
<mgrwt>
<rscale>  0 0.69121411E+03</rscale>
<asrwt>0</asrwt>
<pdfrwt beam="1">  1        2 0.20496746E+00 0.69121411E+03</pdfrwt>
<pdfrwt beam="2">  1       -2 0.13792836E-01 0.69121411E+03</pdfrwt>
<totfact> 0.64657735E+02</totfact>
</mgrwt>
</event>
<event>
 6    1  0.1072514E-005  0.3959510E+04  0.7818608E-02  0.8012765E-01
         -2   -1    0    0    0  501 -0.00000000000E+00  0.00000000000E+00  0.14883732588E+04  0.14883732588E+04  0.00000000000E+00 0.  1.
          2   -1    0    0  501    0  0.00000000000E+00 -0.00000000000E+00 -0.26333649384E+04  0.26333649384E+04  0.00000000000E+00 0. -1.
         23    2    1    2    0    0  0.90745991525E+03 -0.48673274088E+02  0.12568527531E+04  0.15537215960E+04  0.92300431566E+02 0.  0.
         13    1    3    3    0    0  0.81518771456E+03 -0.43464188514E+02  0.11717926582E+04  0.14281170048E+04  0.00000000000E+00 0.  1.
        -13    1    3    3    0    0  0.92272200692E+02 -0.52090855748E+01  0.85060094879E+02  0.12560459121E+03  0.00000000000E+00 0. -1.
         22    1    1    2    0    0 -0.90745991525E+03  0.48673274088E+02 -0.24018444326E+04  0.25680166012E+04  0.00000000000E+00 0. -1.
<mgrwt>
<rscale>  0 0.39595100E+04</rscale>
<asrwt>0</asrwt>
<pdfrwt beam="1">  1        2 0.40513306E+00 0.39595100E+04</pdfrwt>
<pdfrwt beam="2">  1       -2 0.22898050E+00 0.39595100E+04</pdfrwt>
<totfact> 0.19971774E-01</totfact>
</mgrwt>
</event>
<event>
 6    1  0.1072514E-005  0.1557034E+04  0.7818608E-02  0.8847387E-01
         -1   -1    0    0    0  501 -0.00000000000E+00  0.00000000000E+00  0.51524518195E+03  0.51524518195E+03  0.00000000000E+00 0.  1.
          1   -1    0    0  501    0  0.00000000000E+00 -0.00000000000E+00 -0.11763111790E+04  0.11763111790E+04  0.00000000000E+00 0. -1.
         23    2    1    2    0    0  0.77248304185E+03  0.42584486719E+02 -0.39454419087E+03  0.87327929195E+03  0.91695772790E+02 0.  0.
         11    1    3    3    0    0  0.13480304646E+03 -0.27395257607E+02 -0.70742979949E+02  0.15468332388E+03  0.00000000000E+00 0.  1.
        -11    1    3    3    0    0  0.63767999538E+03  0.69979744325E+02 -0.32380121093E+03  0.71859596807E+03  0.00000000000E+00 0. -1.
         22    1    1    2    0    0 -0.77248304185E+03 -0.42584486719E+02 -0.26652180614E+03  0.81827706897E+03  0.00000000000E+00 0. -1.
<mgrwt>
<rscale>  0 0.15570339E+04</rscale>
<asrwt>0</asrwt>
<pdfrwt beam="1">  1        1 0.18097095E+00 0.15570339E+04</pdfrwt>
<pdfrwt beam="2">  1       -1 0.79268490E-01 0.15570339E+04</pdfrwt>
<totfact> 0.17038200E+01</totfact>
</mgrwt>
</event>
<event>
 6    1  0.1072514E-005  0.2378915E+04  0.7818608E-02  0.8447440E-01
          1   -1    0    0  501    0  0.00000000000E+00  0.00000000000E+00  0.35965837626E+04  0.35965837626E+04  0.00000000000E+00 0. -1.
         -1   -1    0    0    0  501 -0.00000000000E+00 -0.00000000000E+00 -0.39337589979E+03  0.39337589979E+03  0.00000000000E+00 0.  1.
         23    2    1    2    0    0 -0.85978511429E+03 -0.81365409727E+03  0.17670726639E+04  0.21288450119E+04  0.90398298938E+02 0.  0.
         11    1    3    3    0    0 -0.58740218426E+03 -0.60761328836E+03  0.12291253034E+04  0.14916381082E+04  0.00000000000E+00 0. -1.
        -11    1    3    3    0    0 -0.27238293003E+03 -0.20604080891E+03  0.53794736050E+03  0.63720690375E+03  0.00000000000E+00 0.  1.
         22    1    1    2    0    0  0.85978511429E+03  0.81365409727E+03  0.14361351989E+04  0.18611146505E+04  0.00000000000E+00 0. -1.
<mgrwt>
<rscale>  0 0.23789152E+04</rscale>
<asrwt>0</asrwt>
<pdfrwt beam="1">  1        1 0.55332056E+00 0.23789152E+04</pdfrwt>
<pdfrwt beam="2">  1       -1 0.60519372E-01 0.23789152E+04</pdfrwt>
<totfact> 0.52135177E-01</totfact>
</mgrwt>
</event>
<event>
 6    1  0.1072514E-005  0.1256931E+04  0.7818608E-02  0.9064434E-01
          1   -1    0    0  501    0  0.00000000000E+00  0.00000000000E+00  0.56901371833E+03  0.56901371833E+03  0.00000000000E+00 0. -1.
         -1   -1    0    0    0  501 -0.00000000000E+00 -0.00000000000E+00 -0.69412929449E+03  0.69412929449E+03  0.00000000000E+00 0.  1.
         23    2    1    2    0    0  0.19620149145E+03  0.33057488248E+03  0.43239332654E+03  0.58594957313E+03  0.92726130330E+02 0.  0.
         11    1    3    3    0    0  0.13214475337E+03  0.25484088994E+03  0.37176418746E+03  0.46969641909E+03  0.00000000000E+00 0.  1.
        -11    1    3    3    0    0  0.64056738081E+02  0.75733992537E+02  0.60629139080E+02  0.11625315404E+03  0.00000000000E+00 0. -1.
         22    1    1    2    0    0 -0.19620149145E+03 -0.33057488248E+03 -0.55750890269E+03  0.67719343969E+03  0.00000000000E+00 0.  1.
<mgrwt>
<rscale>  0 0.12569313E+04</rscale>
<asrwt>0</asrwt>
<pdfrwt beam="1">  1        1 0.87540571E-01 0.12569313E+04</pdfrwt>
<pdfrwt beam="2">  1       -1 0.10678912E+00 0.12569313E+04</pdfrwt>
<totfact> 0.29829636E+01</totfact>
</mgrwt>
</event>
<event>
 6    1  0.1072514E-005  0.1584155E+04  0.7818608E-02  0.8830342E-01
         -1   -1    0    0    0  501 -0.00000000000E+00  0.00000000000E+00  0.11146358954E+04  0.11146358954E+04  0.00000000000E+00 0.  1.
          1   -1    0    0  501    0  0.00000000000E+00 -0.00000000000E+00 -0.56286234757E+03  0.56286234757E+03  0.00000000000E+00 0. -1.
         23    2    1    2    0    0  0.52009930269E+03  0.59054696823E+03  0.34437212896E+03  0.86370198166E+03  0.90221635767E+02 0.  0.
         13    1    3    3    0    0  0.45513768688E+03  0.47646800502E+03  0.26441785261E+03  0.70999216517E+03  0.00000000000E+00 0. -1.
        -13    1    3    3    0    0  0.64961615813E+02  0.11407896322E+03  0.79954276349E+02  0.15370981649E+03  0.00000000000E+00 0.  1.
         22    1    1    2    0    0 -0.52009930269E+03 -0.59054696823E+03  0.20740141886E+03  0.81379626129E+03  0.00000000000E+00 0.  1.
<mgrwt>
<rscale>  0 0.15841548E+04</rscale>
<asrwt>0</asrwt>
<pdfrwt beam="1">  1        1 0.86594207E-01 0.15841548E+04</pdfrwt>
<pdfrwt beam="2">  1       -1 0.17148245E+00 0.15841548E+04</pdfrwt>
<totfact> 0.86540760E+00</totfact>
</mgrwt>
</event>
<event>
 6    1  0.1072514E-005  0.1824594E+04  0.7818608E-02  0.8693329E-01
         -1   -1    0    0    0  501 -0.00000000000E+00  0.00000000000E+00  0.35251638442E+03  0.35251638442E+03  0.00000000000E+00 0.  1.
          1   -1    0    0  501    0  0.00000000000E+00 -0.00000000000E+00 -0.23609847155E+04  0.23609847155E+04  0.00000000000E+00 0. -1.
         23    2    1    2    0    0  0.19015723802E+03  0.80460239313E+03 -0.15722544239E+04  0.17787137664E+04  0.91070867491E+02 0.  0.
         13    1    3    3    0    0  0.87818690924E+02  0.34249243301E+03 -0.76892207653E+03  0.84631811331E+03  0.00000000000E+00 0. -1.
        -13    1    3    3    0    0  0.10233854710E+03  0.46210996011E+03 -0.80333234741E+03  0.93239565306E+03  0.00000000000E+00 0.  1.
         22    1    1    2    0    0 -0.19015723802E+03 -0.80460239313E+03 -0.43621390717E+03  0.93478733357E+03  0.00000000000E+00 0. -1.
<mgrwt>
<rscale>  0 0.18245940E+04</rscale>
<asrwt>0</asrwt>
<pdfrwt beam="1">  1        1 0.36322842E+00 0.18245940E+04</pdfrwt>
<pdfrwt beam="2">  1       -1 0.54233289E-01 0.18245940E+04</pdfrwt>
<totfact> 0.54675286E+00</totfact>
</mgrwt>
</event>
<event>
 6    1  0.1072514E-005  0.2280449E+04  0.7818608E-02  0.8485670E-01
          1   -1    0    0  501    0  0.00000000000E+00  0.00000000000E+00  0.16107946748E+04  0.16107946748E+04  0.00000000000E+00 0. -1.
         -1   -1    0    0    0  501 -0.00000000000E+00 -0.00000000000E+00 -0.80712449887E+03  0.80712449887E+03  0.00000000000E+00 0.  1.
         23    2    1    2    0    0  0.83950502733E+03 -0.65056931340E+03 -0.31696062283E+02  0.10666805292E+04  0.93774135674E+02 0.  0.
         13    1    3    3    0    0  0.50769909712E+03 -0.38775776890E+03 -0.64758680351E+02  0.64211225440E+03  0.00000000000E+00 0.  1.
        -13    1    3    3    0    0  0.33180593020E+03 -0.26281154450E+03  0.33062618068E+02  0.42456827478E+03  0.00000000000E+00 0. -1.
         22    1    1    2    0    0 -0.83950502733E+03  0.65056931340E+03  0.83536623823E+03  0.13512386445E+04  0.00000000000E+00 0. -1.
<mgrwt>
<rscale>  0 0.22804489E+04</rscale>
<asrwt>0</asrwt>
<pdfrwt beam="1">  1        1 0.24781456E+00 0.22804489E+04</pdfrwt>
<pdfrwt beam="2">  1       -1 0.12417300E+00 0.22804489E+04</pdfrwt>
<totfact> 0.28257530E+00</totfact>
</mgrwt>
</event>
<event>
 6    1  0.1072514E-005  0.1042740E+04  0.7818608E-02  0.9262872E-01
          2   -1    0    0  501    0  0.00000000000E+00  0.00000000000E+00  0.12082327944E+04  0.12082327944E+04  0.00000000000E+00 0. -1.
         -2   -1    0    0    0  501 -0.00000000000E+00 -0.00000000000E+00 -0.22497872943E+03  0.22497872943E+03  0.00000000000E+00 0.  1.
         23    2    1    2    0    0  0.50332039124E+03  0.46931107252E+02  0.64972903842E+03  0.82759374963E+03  0.85027324991E+02 0.  0.
         13    1    3    3    0    0  0.38454494849E+03  0.63783855696E+01  0.52347897286E+03  0.64957350334E+03  0.00000000000E+00 0. -1.
        -13    1    3    3    0    0  0.11877544275E+03  0.40552721682E+02  0.12625006556E+03  0.17802024629E+03  0.00000000000E+00 0.  1.
         22    1    1    2    0    0 -0.50332039124E+03 -0.46931107252E+02  0.33352502651E+03  0.60561777416E+03  0.00000000000E+00 0.  1.
<mgrwt>
<rscale>  0 0.10427400E+04</rscale>
<asrwt>0</asrwt>
<pdfrwt beam="1">  1        2 0.18588196E+00 0.10427400E+04</pdfrwt>
<pdfrwt beam="2">  1       -2 0.34612113E-01 0.10427400E+04</pdfrwt>
<totfact> 0.14581832E+02</totfact>
</mgrwt>
</event>
<event>
 6    1  0.1072514E-005  0.2377264E+04  0.7818608E-02  0.8448065E-01
         -2   -1    0    0    0  501 -0.00000000000E+00  0.00000000000E+00  0.13365458835E+04  0.13365458835E+04  0.00000000000E+00 0.  1.
          2   -1    0    0  501    0  0.00000000000E+00 -0.00000000000E+00 -0.10570875929E+04  0.10570875929E+04  0.00000000000E+00 0. -1.
         23    2    1    2    0    0  0.20952410598E+03  0.89428547081E+03  0.89665992838E+03  0.12870239174E+04  0.93726637265E+02 0.  0.
         11    1    3    3    0    0  0.20650771090E+02  0.24286771154E+02  0.43729762556E+02  0.54116483006E+02  0.00000000000E+00 0.  1.
        -11    1    3    3    0    0  0.18887333489E+03  0.86999869966E+03  0.85293016583E+03  0.12329074344E+04  0.00000000000E+00 0. -1.
         22    1    1    2    0    0 -0.20952410598E+03 -0.89428547081E+03 -0.61720163776E+03  0.11066095589E+04  0.00000000000E+00 0. -1.
<mgrwt>
<rscale>  0 0.23772640E+04</rscale>
<asrwt>0</asrwt>
<pdfrwt beam="1">  1        2 0.16262886E+00 0.23772640E+04</pdfrwt>
<pdfrwt beam="2">  1       -2 0.20562244E+00 0.23772640E+04</pdfrwt>
<totfact> 0.25506652E+00</totfact>
</mgrwt>
</event>
<event>
 6    1  0.1072514E-005  0.1780315E+04  0.7818608E-02  0.8716838E-01
          2   -1    0    0  501    0  0.00000000000E+00  0.00000000000E+00  0.12189601777E+04  0.12189601777E+04  0.00000000000E+00 0. -1.
         -2   -1    0    0    0  501 -0.00000000000E+00 -0.00000000000E+00 -0.65004612369E+03  0.65004612369E+03  0.00000000000E+00 0.  1.
         23    2    1    2    0    0 -0.27142367342E+03  0.17772481516E+03  0.11528052555E+04  0.12010348532E+04  0.90927668684E+02 0.  0.
         13    1    3    3    0    0 -0.10788742038E+03  0.47958787529E+02  0.28533743004E+03  0.30879959481E+03  0.00000000000E+00 0.  1.
        -13    1    3    3    0    0 -0.16353625304E+03  0.12976602763E+03  0.86746782551E+03  0.89223525837E+03  0.00000000000E+00 0. -1.
         22    1    1    2    0    0  0.27142367342E+03 -0.17772481516E+03 -0.58389120153E+03  0.66797144822E+03  0.00000000000E+00 0.  1.
<mgrwt>
<rscale>  0 0.17803150E+04</rscale>
<asrwt>0</asrwt>
<pdfrwt beam="1">  1        2 0.18753234E+00 0.17803150E+04</pdfrwt>
<pdfrwt beam="2">  1       -2 0.10000710E+00 0.17803150E+04</pdfrwt>
<totfact> 0.14412997E+01</totfact>
</mgrwt>
</event>
<event>
 6    1  0.1072514E-005  0.3899164E+04  0.7818608E-02  0.8025203E-01
          2   -1    0    0  501    0  0.00000000000E+00  0.00000000000E+00  0.29233040913E+04  0.29233040913E+04  0.00000000000E+00 0. -1.
         -2   -1    0    0    0  501 -0.00000000000E+00 -0.00000000000E+00 -0.13001966680E+04  0.13001966680E+04  0.00000000000E+00 0.  1.
         23    2    1    2    0    0 -0.11350154790E+04  0.66907482209E+03 -0.74301264279E+03  0.15152826324E+04  0.89957843878E+02 0.  0.
         11    1    3    3    0    0 -0.64916340433E+03  0.35520490344E+03 -0.37344931741E+03  0.82888361163E+03  0.00000000000E+00 0. -1.
        -11    1    3    3    0    0 -0.48585207467E+03  0.31386991865E+03 -0.36956332538E+03  0.68639902080E+03  0.00000000000E+00 0.  1.
         22    1    1    2    0    0  0.11350154790E+04 -0.66907482209E+03  0.23661200662E+04  0.27082181268E+04  0.00000000000E+00 0. -1.
<mgrwt>
<rscale>  0 0.38991641E+04</rscale>
<asrwt>0</asrwt>
<pdfrwt beam="1">  1        2 0.44973909E+00 0.38991641E+04</pdfrwt>
<pdfrwt beam="2">  1       -2 0.20003026E+00 0.38991641E+04</pdfrwt>
<totfact> 0.20539759E-01</totfact>
</mgrwt>
</event>
<event>
 6    1  0.1072514E-005  0.5134034E+03  0.7818608E-02  0.1010338E+00
         -1   -1    0    0    0  501 -0.00000000000E+00  0.00000000000E+00  0.10748732310E+04  0.10748732310E+04  0.00000000000E+00 0.  1.
          1   -1    0    0  501    0  0.00000000000E+00 -0.00000000000E+00 -0.61305624315E+02  0.61305624315E+02  0.00000000000E+00 0. -1.
         23    2    1    2    0    0 -0.86268860823E+02 -0.47515363337E+02  0.10280067633E+04  0.10366373296E+04  0.90105614444E+02 0.  0.
         13    1    3    3    0    0 -0.44392863984E+02  0.15371324372E+02  0.61388041089E+03  0.61567537133E+03  0.00000000000E+00 0.  1.
        -13    1    3    3    0    0 -0.41875996839E+02 -0.62886687710E+02  0.41412635238E+03  0.42096195831E+03  0.00000000000E+00 0. -1.
         22    1    1    2    0    0  0.86268860823E+02  0.47515363337E+02 -0.14439156549E+02  0.99541525720E+02  0.00000000000E+00 0. -1.
<mgrwt>
<rscale>  0 0.51340345E+03</rscale>
<asrwt>0</asrwt>
<pdfrwt beam="1">  1        1 0.94316353E-02 0.51340345E+03</pdfrwt>
<pdfrwt beam="2">  1       -1 0.16536510E+00 0.51340345E+03</pdfrwt>
<totfact> 0.19928139E+02</totfact>
</mgrwt>
</event>
<event>
 6    1  0.1072514E-005  0.1103824E+04  0.7818608E-02  0.9201473E-01
         -2   -1    0    0    0  501 -0.00000000000E+00  0.00000000000E+00  0.20036770123E+03  0.20036770123E+03  0.00000000000E+00 0. -1.
          2   -1    0    0  501    0  0.00000000000E+00 -0.00000000000E+00 -0.15202389497E+04  0.15202389497E+04  0.00000000000E+00 0.  1.
         23    2    1    2    0    0 -0.58900307610E+02  0.58189644931E+02 -0.15090599738E+04  0.15140935647E+04  0.91444175847E+02 0.  0.
         11    1    3    3    0    0 -0.68680118831E+02  0.43485934951E+02 -0.67942110888E+03  0.68426678164E+03  0.00000000000E+00 0. -1.
        -11    1    3    3    0    0  0.97798112208E+01  0.14703709980E+02 -0.82963886490E+03  0.82982678310E+03  0.00000000000E+00 0.  1.
         22    1    1    2    0    0  0.58900307610E+02 -0.58189644931E+02  0.18918872527E+03  0.20651308623E+03  0.00000000000E+00 0. -1.
<mgrwt>
<rscale>  0 0.11038239E+04</rscale>
<asrwt>0</asrwt>
<pdfrwt beam="1">  1        2 0.23388291E+00 0.11038239E+04</pdfrwt>
<pdfrwt beam="2">  1       -2 0.30825801E-01 0.11038239E+04</pdfrwt>
<totfact> 0.11953127E+02</totfact>
</mgrwt>
</event>
<event>
 6    1  0.1072514E-005  0.2640883E+04  0.7818608E-02  0.8354445E-01
          1   -1    0    0  501    0  0.00000000000E+00  0.00000000000E+00  0.96719932953E+03  0.96719932953E+03  0.00000000000E+00 0. -1.
         -1   -1    0    0    0  501 -0.00000000000E+00 -0.00000000000E+00 -0.18026954263E+04  0.18026954263E+04  0.00000000000E+00 0.  1.
         23    2    1    2    0    0 -0.93863834410E+03  0.92597339204E+03 -0.38744575978E+03  0.13773367613E+04  0.92052557590E+02 0.  0.
         11    1    3    3    0    0 -0.21905958112E+03  0.16608014493E+03 -0.68999055073E+02  0.28342650586E+03  0.00000000000E+00 0. -1.
        -11    1    3    3    0    0 -0.71957876298E+03  0.75989324711E+03 -0.31844670470E+03  0.10939102554E+04  0.00000000000E+00 0.  1.
         22    1    1    2    0    0  0.93863834410E+03 -0.92597339204E+03 -0.44805033701E+03  0.13925579946E+04  0.00000000000E+00 0.  1.
<mgrwt>
<rscale>  0 0.26408830E+04</rscale>
<asrwt>0</asrwt>
<pdfrwt beam="1">  1        1 0.14879990E+00 0.26408830E+04</pdfrwt>
<pdfrwt beam="2">  1       -1 0.27733776E+00 0.26408830E+04</pdfrwt>
<totfact> 0.65266249E-01</totfact>
</mgrwt>
</event>
<event>
 6    1  0.1072514E-005  0.1725992E+04  0.7818608E-02  0.8746677E-01
         -1   -1    0    0    0  501 -0.00000000000E+00  0.00000000000E+00  0.33097408208E+03  0.33097408208E+03  0.00000000000E+00 0.  1.
          1   -1    0    0  501    0  0.00000000000E+00 -0.00000000000E+00 -0.22502129308E+04  0.22502129308E+04  0.00000000000E+00 0. -1.
         23    2    1    2    0    0 -0.27428776384E+03 -0.34696144906E+03  0.14458795875E+03  0.47050060421E+03  0.69635595892E+02 0.  0.
         11    1    3    3    0    0 -0.23083730791E+03 -0.32560747838E+03  0.12466805709E+03  0.41814855872E+03  0.00000000000E+00 0.  1.
        -11    1    3    3    0    0 -0.43450455931E+02 -0.21353970679E+02  0.19919901660E+02  0.52352045486E+02  0.00000000000E+00 0. -1.
         22    1    1    2    0    0  0.27428776384E+03  0.34696144906E+03 -0.20638268075E+04  0.21106864087E+04  0.00000000000E+00 0. -1.
<mgrwt>
<rscale>  0 0.17259921E+04</rscale>
<asrwt>0</asrwt>
<pdfrwt beam="1">  1        1 0.34618660E+00 0.17259921E+04</pdfrwt>
<pdfrwt beam="2">  1       -1 0.50919090E-01 0.17259921E+04</pdfrwt>
<totfact> 0.74154050E+00</totfact>
</mgrwt>
</event>
<event>
 6    1  0.1072514E-005  0.3760821E+04  0.7818608E-02  0.8054615E-01
         -2   -1    0    0    0  501 -0.00000000000E+00  0.00000000000E+00  0.11508997950E+04  0.11508997950E+04  0.00000000000E+00 0.  1.
          2   -1    0    0  501    0  0.00000000000E+00 -0.00000000000E+00 -0.30723289615E+04  0.30723289615E+04  0.00000000000E+00 0. -1.
         23    2    1    2    0    0 -0.96841908314E+03  0.79110382102E+03 -0.25367281989E+04  0.28295739659E+04  0.88420004342E+02 0.  0.
         13    1    3    3    0    0 -0.62442520734E+03  0.54473660046E+03 -0.16056294652E+04  0.18068455338E+04  0.00000000000E+00 0.  1.
        -13    1    3    3    0    0 -0.34399387580E+03  0.24636722056E+03 -0.93109873364E+03  0.10227284321E+04  0.00000000000E+00 0. -1.
         22    1    1    2    0    0  0.96841908314E+03 -0.79110382102E+03  0.61529903239E+03  0.13936547906E+04  0.00000000000E+00 0.  1.
<mgrwt>
<rscale>  0 0.37608205E+04</rscale>
<asrwt>0</asrwt>
<pdfrwt beam="1">  1        2 0.47266599E+00 0.37608205E+04</pdfrwt>
<pdfrwt beam="2">  1       -2 0.17706151E+00 0.37608205E+04</pdfrwt>
<totfact> 0.23941379E-01</totfact>
</mgrwt>
</event>
<event>
 6    1  0.1072514E-005  0.3092071E+04  0.7818608E-02  0.8217917E-01
         -1   -1    0    0    0  501 -0.00000000000E+00  0.00000000000E+00  0.12451152176E+04  0.12451152176E+04  0.00000000000E+00 0.  1.
          1   -1    0    0  501    0  0.00000000000E+00 -0.00000000000E+00 -0.19196825838E+04  0.19196825838E+04  0.00000000000E+00 0. -1.
         23    2    1    2    0    0  0.82495617876E+03  0.30797508065E+03 -0.16356084432E+04  0.18613403610E+04  0.11820157737E+03 0.  0.
         11    1    3    3    0    0  0.37025507464E+03  0.17323386689E+03 -0.86050601962E+03  0.95266437045E+03  0.00000000000E+00 0.  1.
        -11    1    3    3    0    0  0.45470110412E+03  0.13474121375E+03 -0.77510242355E+03  0.90867599053E+03  0.00000000000E+00 0. -1.
         22    1    1    2    0    0 -0.82495617876E+03 -0.30797508065E+03  0.96104107705E+03  0.13034574404E+04  0.00000000000E+00 0.  1.
<mgrwt>
<rscale>  0 0.30920711E+04</rscale>
<asrwt>0</asrwt>
<pdfrwt beam="1">  1        1 0.29533578E+00 0.30920711E+04</pdfrwt>
<pdfrwt beam="2">  1       -1 0.19155619E+00 0.30920711E+04</pdfrwt>
<totfact> 0.49159934E-01</totfact>
</mgrwt>
</event>
<event>
 6    1  0.1072514E-005  0.4041151E+03  0.7818608E-02  0.1042364E+00
         -1   -1    0    0    0  501 -0.00000000000E+00  0.00000000000E+00  0.23667716150E+03  0.23667716150E+03  0.00000000000E+00 0.  1.
          1   -1    0    0  501    0  0.00000000000E+00 -0.00000000000E+00 -0.17250190584E+03  0.17250190584E+03  0.00000000000E+00 0. -1.
         23    2    1    2    0    0  0.12247713962E+03  0.12465715357E+03  0.11566745221E+03  0.22699371675E+03  0.87218875688E+02 0.  0.
         13    1    3    3    0    0  0.29564792459E+02  0.74995540354E+02  0.85272975670E+02  0.11734516780E+03  0.00000000000E+00 0.  1.
        -13    1    3    3    0    0  0.92912347162E+02  0.49661613212E+02  0.30394476540E+02  0.10964854895E+03  0.00000000000E+00 0. -1.
         22    1    1    2    0    0 -0.12247713962E+03 -0.12465715357E+03 -0.51492196552E+02  0.18218535059E+03  0.00000000000E+00 0. -1.
<mgrwt>
<rscale>  0 0.40411514E+03</rscale>
<asrwt>0</asrwt>
<pdfrwt beam="1">  1        1 0.26538755E-01 0.40411514E+03</pdfrwt>
<pdfrwt beam="2">  1       -1 0.36411871E-01 0.40411514E+03</pdfrwt>
<totfact> 0.12990525E+03</totfact>
</mgrwt>
</event>
<event>
 6    1  0.1072514E-005  0.3193406E+04  0.7818608E-02  0.8190561E-01
          1   -1    0    0  501    0  0.00000000000E+00  0.00000000000E+00  0.17909081820E+04  0.17909081820E+04  0.00000000000E+00 0. -1.
         -1   -1    0    0    0  501 -0.00000000000E+00 -0.00000000000E+00 -0.14235574032E+04  0.14235574032E+04  0.00000000000E+00 0.  1.
         23    2    1    2    0    0  0.14760433334E+04 -0.94095196571E+02 -0.41817050502E+03  0.15397711308E+04  0.92036601443E+02 0.  0.
         13    1    3    3    0    0  0.73691357589E+03 -0.85974584030E+02 -0.18395590156E+03  0.76437753836E+03  0.00000000000E+00 0.  1.
        -13    1    3    3    0    0  0.73912975751E+03 -0.81206125409E+01 -0.23421460346E+03  0.77539359248E+03  0.00000000000E+00 0. -1.
         22    1    1    2    0    0 -0.14760433334E+04  0.94095196571E+02  0.78552128389E+03  0.16746944544E+04  0.00000000000E+00 0. -1.
<mgrwt>
<rscale>  0 0.31934061E+04</rscale>
<asrwt>0</asrwt>
<pdfrwt beam="1">  1        1 0.27552434E+00 0.31934061E+04</pdfrwt>
<pdfrwt beam="2">  1       -1 0.21900883E+00 0.31934061E+04</pdfrwt>
<totfact> 0.38660507E-01</totfact>
</mgrwt>
</event>
<event>
 6    1  0.1278123E-005  0.1640909E+04  0.7818608E-02  0.8795803E-01
          1   -1    0    0  501    0  0.00000000000E+00  0.00000000000E+00  0.13175128495E+04  0.13175128495E+04  0.00000000000E+00 0. -1.
         -1   -1    0    0    0  501 -0.00000000000E+00 -0.00000000000E+00 -0.51092121586E+03  0.51092121586E+03  0.00000000000E+00 0.  1.
         23    2    1    2    0    0 -0.81187304530E+02  0.23308433992E+02  0.13110336597E+04  0.13169690918E+04  0.91998208221E+02 0.  0.
         13    1    3    3    0    0 -0.98173540217E+02  0.20749772759E+02  0.89995236094E+03  0.90552904372E+03  0.00000000000E+00 0. -1.
        -13    1    3    3    0    0  0.16986235687E+02  0.25586612330E+01  0.41108129879E+03  0.41144004808E+03  0.00000000000E+00 0.  1.
         22    1    1    2    0    0  0.81187304530E+02 -0.23308433992E+02 -0.50444202608E+03  0.51146497357E+03  0.00000000000E+00 0.  1.
<mgrwt>
<rscale>  0 0.16409086E+04</rscale>
<asrwt>0</asrwt>
<pdfrwt beam="1">  1        1 0.20269428E+00 0.16409086E+04</pdfrwt>
<pdfrwt beam="2">  1       -1 0.78603265E-01 0.16409086E+04</pdfrwt>
<totfact> 0.13611496E+01</totfact>
</mgrwt>
</event>
<event>
 6    1  0.1072514E-005  0.5601864E+04  0.7818608E-02  0.7741826E-01
         -2   -1    0    0    0  501 -0.00000000000E+00  0.00000000000E+00  0.19029690829E+04  0.19029690829E+04  0.00000000000E+00 0.  1.
          2   -1    0    0  501    0  0.00000000000E+00 -0.00000000000E+00 -0.41226206571E+04  0.41226206571E+04  0.00000000000E+00 0. -1.
         23    2    1    2    0    0 -0.12788395593E+04  0.20608586472E+03  0.15599058352E+04  0.20302228967E+04  0.10294072897E+03 0.  0.
         11    1    3    3    0    0 -0.38621596806E+03  0.86028072937E+02  0.54192750136E+03  0.67100597617E+03  0.00000000000E+00 0. -1.
        -11    1    3    3    0    0 -0.89262359121E+03  0.12005779179E+03  0.10179783338E+04  0.13592169205E+04  0.00000000000E+00 0.  1.
         22    1    1    2    0    0  0.12788395593E+04 -0.20608586472E+03 -0.37795574093E+04  0.39953668433E+04  0.00000000000E+00 0. -1.
<mgrwt>
<rscale>  0 0.56018639E+04</rscale>
<asrwt>0</asrwt>
<pdfrwt beam="1">  1        2 0.63424932E+00 0.56018639E+04</pdfrwt>
<pdfrwt beam="2">  1       -2 0.29276448E+00 0.56018639E+04</pdfrwt>
<totfact> 0.65760545E-03</totfact>
</mgrwt>
</event>
<event>
 6    1  0.1072514E-005  0.1571236E+04  0.7818608E-02  0.8838416E-01
          1   -1    0    0  501    0  0.00000000000E+00  0.00000000000E+00  0.87377442624E+03  0.87377442624E+03  0.00000000000E+00 0. -1.
         -1   -1    0    0    0  501 -0.00000000000E+00 -0.00000000000E+00 -0.70635578808E+03  0.70635578808E+03  0.00000000000E+00 0.  1.
         23    2    1    2    0    0  0.20155796320E+03  0.13933257897E+03  0.83181182427E+03  0.87199358497E+03  0.91775384113E+02 0.  0.
         13    1    3    3    0    0  0.18678297274E+03  0.97177805595E+02  0.74740503879E+03  0.77649578029E+03  0.00000000000E+00 0. -1.
        -13    1    3    3    0    0  0.14774990461E+02  0.42154773378E+02  0.84406785484E+02  0.95497804674E+02  0.00000000000E+00 0.  1.
         22    1    1    2    0    0 -0.20155796320E+03 -0.13933257897E+03 -0.66439318611E+03  0.70813662936E+03  0.00000000000E+00 0.  1.
<mgrwt>
<rscale>  0 0.15712360E+04</rscale>
<asrwt>0</asrwt>
<pdfrwt beam="1">  1        1 0.13442684E+00 0.15712360E+04</pdfrwt>
<pdfrwt beam="2">  1       -1 0.10867012E+00 0.15712360E+04</pdfrwt>
<totfact> 0.14454561E+01</totfact>
</mgrwt>
</event>
<event>
 6    1  0.1072514E-005  0.3852654E+04  0.7818608E-02  0.8034949E-01
         -1   -1    0    0    0  501 -0.00000000000E+00  0.00000000000E+00  0.41714318378E+04  0.41714318378E+04  0.00000000000E+00 0.  1.
          1   -1    0    0  501    0  0.00000000000E+00 -0.00000000000E+00 -0.88955902286E+03  0.88955902286E+03  0.00000000000E+00 0. -1.
         23    2    1    2    0    0 -0.18815856080E+03  0.67306347530E+03 -0.71479647669E+03  0.10036785098E+04  0.89545866389E+02 0.  0.
         13    1    3    3    0    0 -0.56070974614E+02  0.30581482510E+03 -0.26847957259E+03  0.41078941362E+03  0.00000000000E+00 0.  1.
        -13    1    3    3    0    0 -0.13208758619E+03  0.36724865020E+03 -0.44631690410E+03  0.59288909619E+03  0.00000000000E+00 0. -1.
         22    1    1    2    0    0  0.18815856080E+03 -0.67306347530E+03  0.39966692916E+04  0.40573123508E+04  0.00000000000E+00 0.  1.
<mgrwt>
<rscale>  0 0.38526535E+04</rscale>
<asrwt>0</asrwt>
<pdfrwt beam="1">  1        1 0.13685524E+00 0.38526535E+04</pdfrwt>
<pdfrwt beam="2">  1       -1 0.64175873E+00 0.38526535E+04</pdfrwt>
<totfact> 0.45741361E-03</totfact>
</mgrwt>
</event>
<event>
 6    1  0.1072514E-005  0.1408933E+04  0.7818608E-02  0.8947378E-01
         -1   -1    0    0    0  501 -0.00000000000E+00  0.00000000000E+00  0.12844735638E+04  0.12844735638E+04  0.00000000000E+00 0.  1.
          1   -1    0    0  501    0  0.00000000000E+00 -0.00000000000E+00 -0.38636299459E+03  0.38636299459E+03  0.00000000000E+00 0. -1.
         23    2    1    2    0    0  0.14544710160E+03  0.34553425410E+03 -0.25245708789E+03  0.46073130938E+03  0.89386677364E+02 0.  0.
         11    1    3    3    0    0  0.19744282740E+02  0.12583798543E+03 -0.12023409973E+03  0.17516070911E+03  0.00000000000E+00 0.  1.
        -11    1    3    3    0    0  0.12570281886E+03  0.21969626867E+03 -0.13222298816E+03  0.28557060027E+03  0.00000000000E+00 0. -1.
         22    1    1    2    0    0 -0.14544710160E+03 -0.34553425410E+03  0.11505676571E+04  0.12101052490E+04  0.00000000000E+00 0.  1.
<mgrwt>
<rscale>  0 0.14089330E+04</rscale>
<asrwt>0</asrwt>
<pdfrwt beam="1">  1        1 0.59440461E-01 0.14089330E+04</pdfrwt>
<pdfrwt beam="2">  1       -1 0.19761132E+00 0.14089330E+04</pdfrwt>
<totfact> 0.95711006E+00</totfact>
</mgrwt>
</event>
<event>
 6    1  0.1072514E-005  0.2050031E+04  0.7818608E-02  0.8583580E-01
          1   -1    0    0  501    0  0.00000000000E+00  0.00000000000E+00  0.19652382448E+04  0.19652382448E+04  0.00000000000E+00 0. -1.
         -1   -1    0    0    0  501 -0.00000000000E+00 -0.00000000000E+00 -0.53462050068E+03  0.53462050068E+03  0.00000000000E+00 0.  1.
         23    2    1    2    0    0  0.62902466339E+03 -0.11779316103E+03 -0.25707909655E+03  0.69490226902E+03  0.85160117869E+02 0.  0.
         13    1    3    3    0    0  0.17555303939E+03 -0.70470967475E+02 -0.87876320032E+02  0.20858397474E+03  0.00000000000E+00 0. -1.
        -13    1    3    3    0    0  0.45347162399E+03 -0.47322193559E+02 -0.16920277651E+03  0.48631829428E+03  0.00000000000E+00 0.  1.
         22    1    1    2    0    0 -0.62902466339E+03  0.11779316103E+03  0.16876968407E+04  0.18049564765E+04  0.00000000000E+00 0. -1.
<mgrwt>
<rscale>  0 0.20500309E+04</rscale>
<asrwt>0</asrwt>
<pdfrwt beam="1">  1        1 0.30234434E+00 0.20500309E+04</pdfrwt>
<pdfrwt beam="2">  1       -1 0.82249309E-01 0.20500309E+04</pdfrwt>
<totfact> 0.42715242E+00</totfact>
</mgrwt>
</event>
<event>
 6    1  0.1072514E-005  0.4039421E+04  0.7818608E-02  0.7996641E-01
         -1   -1    0    0    0  501 -0.00000000000E+00  0.00000000000E+00  0.21175778077E+04  0.21175778077E+04  0.00000000000E+00 0.  1.
          1   -1    0    0  501    0  0.00000000000E+00 -0.00000000000E+00 -0.19263662918E+04  0.19263662918E+04  0.00000000000E+00 0. -1.
         23    2    1    2    0    0 -0.14668389998E+04  0.10888339567E+04 -0.76426241442E+03  0.19823654646E+04  0.92194145986E+02 0.  0.
         11    1    3    3    0    0 -0.74319353635E+03  0.49946500481E+03 -0.35347109687E+03  0.96267530342E+03  0.00000000000E+00 0.  1.
        -11    1    3    3    0    0 -0.72364546341E+03  0.58936895189E+03 -0.41079131755E+03  0.10196901612E+04  0.00000000000E+00 0. -1.
         22    1    1    2    0    0  0.14668389998E+04 -0.10888339567E+04  0.95547393027E+03  0.20615786349E+04  0.00000000000E+00 0.  1.
<mgrwt>
<rscale>  0 0.40394210E+04</rscale>
<asrwt>0</asrwt>
<pdfrwt beam="1">  1        1 0.29636405E+00 0.40394210E+04</pdfrwt>
<pdfrwt beam="2">  1       -1 0.32578120E+00 0.40394210E+04</pdfrwt>
<totfact> 0.58508886E-02</totfact>
</mgrwt>
</event>
<event>
 6    1  0.1072514E-005  0.2295182E+04  0.7818608E-02  0.8479823E-01
         -1   -1    0    0    0  501 -0.00000000000E+00  0.00000000000E+00  0.53725567385E+03  0.53725567385E+03  0.00000000000E+00 0.  1.
          1   -1    0    0  501    0  0.00000000000E+00 -0.00000000000E+00 -0.24512824117E+04  0.24512824117E+04  0.00000000000E+00 0. -1.
         23    2    1    2    0    0 -0.30214145607E+03 -0.98311132813E+03 -0.30080454680E+03  0.10753514296E+04  0.89999881765E+02 0.  0.
         11    1    3    3    0    0 -0.85804844861E+00  0.19592454249E+01  0.23137432257E+00  0.21513771990E+01  0.00000000000E+00 0.  1.
        -11    1    3    3    0    0 -0.30128340762E+03 -0.98507057355E+03 -0.30103592112E+03  0.10732000524E+04  0.00000000000E+00 0. -1.
         22    1    1    2    0    0  0.30214145607E+03  0.98311132813E+03 -0.16132221911E+04  0.19131866560E+04  0.00000000000E+00 0. -1.
<mgrwt>
<rscale>  0 0.22951822E+04</rscale>
<asrwt>0</asrwt>
<pdfrwt beam="1">  1        1 0.37712037E+00 0.22951822E+04</pdfrwt>
<pdfrwt beam="2">  1       -1 0.82654720E-01 0.22951822E+04</pdfrwt>
<totfact> 0.19256105E+00</totfact>
</mgrwt>
</event>
<event>
 6    1  0.1072514E-005  0.5558359E+04  0.7818608E-02  0.7747710E-01
         -2   -1    0    0    0  501 -0.00000000000E+00  0.00000000000E+00  0.45792844348E+04  0.45792844348E+04  0.00000000000E+00 0.  1.
          2   -1    0    0  501    0  0.00000000000E+00 -0.00000000000E+00 -0.16866910355E+04  0.16866910355E+04  0.00000000000E+00 0. -1.
         23    2    1    2    0    0 -0.10333822491E+04  0.21049301721E+04  0.31267159600E+04  0.39094052347E+04  0.92123243217E+02 0.  0.
         11    1    3    3    0    0 -0.30762188873E+03  0.60714193621E+03  0.84030432945E+03  0.10813713161E+04  0.00000000000E+00 0. -1.
        -11    1    3    3    0    0 -0.72576036038E+03  0.14977882359E+04  0.22864116306E+04  0.28280339186E+04  0.00000000000E+00 0.  1.
         22    1    1    2    0    0  0.10333822491E+04 -0.21049301721E+04 -0.23412256073E+03  0.23565702356E+04  0.00000000000E+00 0. -1.
<mgrwt>
<rscale>  0 0.55583588E+04</rscale>
<asrwt>0</asrwt>
<pdfrwt beam="1">  1        2 0.25949093E+00 0.55583588E+04</pdfrwt>
<pdfrwt beam="2">  1       -2 0.70450529E+00 0.55583588E+04</pdfrwt>
<totfact> 0.15441609E-03</totfact>
</mgrwt>
</event>
<event>
 6    1  0.1072514E-005  0.1384825E+04  0.7818608E-02  0.8964877E-01
         -1   -1    0    0    0  501 -0.00000000000E+00  0.00000000000E+00  0.62611004259E+03  0.62611004259E+03  0.00000000000E+00 0. -1.
          1   -1    0    0  501    0  0.00000000000E+00 -0.00000000000E+00 -0.76573651222E+03  0.76573651222E+03  0.00000000000E+00 0.  1.
         23    2    1    2    0    0 -0.59469237311E+03  0.31810902856E+03  0.74646239487E+02  0.68419892601E+03  0.87770932511E+02 0.  0.
         13    1    3    3    0    0 -0.19408699576E+03  0.14424374537E+03  0.49042206256E+02  0.24674107480E+03  0.00000000000E+00 0. -1.
        -13    1    3    3    0    0 -0.40060537735E+03  0.17386528319E+03  0.25604033231E+02  0.43745785120E+03  0.00000000000E+00 0.  1.
         22    1    1    2    0    0  0.59469237311E+03 -0.31810902856E+03 -0.21427270912E+03  0.70764762881E+03  0.00000000000E+00 0. -1.
<mgrwt>
<rscale>  0 0.13848254E+04</rscale>
<asrwt>0</asrwt>
<pdfrwt beam="1">  1        1 0.11780562E+00 0.13848254E+04</pdfrwt>
<pdfrwt beam="2">  1       -1 0.96324621E-01 0.13848254E+04</pdfrwt>
<totfact> 0.24029167E+01</totfact>
</mgrwt>
</event>
<event>
 6    1  0.1072514E-005  0.5127580E+04  0.7818608E-02  0.7809123E-01
         -2   -1    0    0    0  501 -0.00000000000E+00  0.00000000000E+00  0.31196430382E+04  0.31196430382E+04  0.00000000000E+00 0.  1.
          2   -1    0    0  501    0  0.00000000000E+00 -0.00000000000E+00 -0.21069777028E+04  0.21069777028E+04  0.00000000000E+00 0. -1.
         23    2    1    2    0    0 -0.53072685896E+03 -0.12607753501E+04 -0.17026263557E+04  0.21862203643E+04  0.96940662036E+02 0.  0.
         11    1    3    3    0    0 -0.29097711070E+03 -0.79552688337E+03 -0.10905355718E+04  0.13808687608E+04  0.00000000000E+00 0. -1.
        -11    1    3    3    0    0 -0.23974974825E+03 -0.46524846670E+03 -0.61209078392E+03  0.80535160353E+03  0.00000000000E+00 0.  1.
         22    1    1    2    0    0  0.53072685896E+03  0.12607753501E+04  0.27152916912E+04  0.30404003767E+04  0.00000000000E+00 0.  1.
<mgrwt>
<rscale>  0 0.51275797E+04</rscale>
<asrwt>0</asrwt>
<pdfrwt beam="1">  1        2 0.32415042E+00 0.51275797E+04</pdfrwt>
<pdfrwt beam="2">  1       -2 0.47994508E+00 0.51275797E+04</pdfrwt>
<totfact> 0.93264989E-03</totfact>
</mgrwt>
</event>
<event>
 6    1  0.1072514E-005  0.3010666E+04  0.7818608E-02  0.8240692E-01
          2   -1    0    0  501    0  0.00000000000E+00  0.00000000000E+00  0.17028128808E+04  0.17028128808E+04  0.00000000000E+00 0. -1.
         -2   -1    0    0    0  501 -0.00000000000E+00 -0.00000000000E+00 -0.13307557977E+04  0.13307557977E+04  0.00000000000E+00 0.  1.
         23    2    1    2    0    0 -0.13550804662E+04 -0.26978947503E+03  0.78511568521E+03  0.15914706099E+04  0.85689160452E+02 0.  0.
         11    1    3    3    0    0 -0.31419603805E+03 -0.26431429070E+02  0.18559887931E+03  0.36587527215E+03  0.00000000000E+00 0. -1.
        -11    1    3    3    0    0 -0.10408844281E+04 -0.24335804596E+03  0.59951680590E+03  0.12255953377E+04  0.00000000000E+00 0.  1.
         22    1    1    2    0    0  0.13550804662E+04  0.26978947503E+03 -0.41305860213E+03  0.14420980686E+04  0.00000000000E+00 0.  1.
<mgrwt>
<rscale>  0 0.30106664E+04</rscale>
<asrwt>0</asrwt>
<pdfrwt beam="1">  1        2 0.26197121E+00 0.30106664E+04</pdfrwt>
<pdfrwt beam="2">  1       -2 0.20473166E+00 0.30106664E+04</pdfrwt>
<totfact> 0.10352239E+00</totfact>
</mgrwt>
</event>
<event>
 6    1  0.1072514E-005  0.3026414E+04  0.7818608E-02  0.8236228E-01
         -2   -1    0    0    0  501 -0.00000000000E+00  0.00000000000E+00  0.15599898281E+04  0.15599898281E+04  0.00000000000E+00 0.  1.
          2   -1    0    0  501    0  0.00000000000E+00 -0.00000000000E+00 -0.14678267118E+04  0.14678267118E+04  0.00000000000E+00 0. -1.
         23    2    1    2    0    0 -0.11899638470E+04  0.93157465243E+03  0.90062009299E+02  0.15165754258E+04  0.89691506640E+02 0.  0.
         11    1    3    3    0    0 -0.84837008089E+03  0.71289033128E+03  0.55709550455E+02  0.11095260126E+04  0.00000000000E+00 0. -1.
        -11    1    3    3    0    0 -0.34159376613E+03  0.21868432116E+03  0.34352458844E+02  0.40704941323E+03  0.00000000000E+00 0.  1.
         22    1    1    2    0    0  0.11899638470E+04 -0.93157465243E+03  0.21011070184E+01  0.15112411141E+04  0.00000000000E+00 0. -1.
<mgrwt>
<rscale>  0 0.30264135E+04</rscale>
<asrwt>0</asrwt>
<pdfrwt beam="1">  1        2 0.22581949E+00 0.30264135E+04</pdfrwt>
<pdfrwt beam="2">  1       -2 0.23999843E+00 0.30264135E+04</pdfrwt>
<totfact> 0.83763636E-01</totfact>
</mgrwt>
</event>
<event>
 6    1  0.1072514E-005  0.2101294E+04  0.7818608E-02  0.8560674E-01
          2   -1    0    0  501    0  0.00000000000E+00  0.00000000000E+00  0.17713016261E+04  0.17713016261E+04  0.00000000000E+00 0. -1.
         -2   -1    0    0    0  501 -0.00000000000E+00 -0.00000000000E+00 -0.62319078622E+03  0.62319078622E+03  0.00000000000E+00 0.  1.
         23    2    1    2    0    0 -0.22025283575E+03  0.23944664204E+03  0.17111524516E+04  0.17442141161E+04  0.91619670674E+02 0.  0.
         11    1    3    3    0    0 -0.92534839542E+02  0.16755031208E+03  0.95842688309E+03  0.97735249211E+03  0.00000000000E+00 0.  1.
        -11    1    3    3    0    0 -0.12771799620E+03  0.71896329958E+02  0.75272556855E+03  0.76686162400E+03  0.00000000000E+00 0. -1.
         22    1    1    2    0    0  0.22025283575E+03 -0.23944664204E+03 -0.56304161172E+03  0.65027829625E+03  0.00000000000E+00 0.  1.
<mgrwt>
<rscale>  0 0.21012937E+04</rscale>
<asrwt>0</asrwt>
<pdfrwt beam="1">  1        2 0.27250794E+00 0.21012937E+04</pdfrwt>
<pdfrwt beam="2">  1       -2 0.95875507E-01 0.21012937E+04</pdfrwt>
<totfact> 0.75240223E+00</totfact>
</mgrwt>
</event>
<event>
 6    1  0.1072514E-005  0.1601082E+04  0.7818608E-02  0.8819884E-01
         -1   -1    0    0    0  501 -0.00000000000E+00  0.00000000000E+00  0.27722744595E+03  0.27722744595E+03  0.00000000000E+00 0.  1.
          1   -1    0    0  501    0  0.00000000000E+00 -0.00000000000E+00 -0.23116963504E+04  0.23116963504E+04  0.00000000000E+00 0. -1.
         23    2    1    2    0    0  0.48120420020E+03  0.61254474115E+03 -0.74146557835E+03  0.10794119072E+04  0.92683975503E+02 0.  0.
         13    1    3    3    0    0  0.37798308342E+03  0.49264314594E+03 -0.63849341858E+03  0.89064152506E+03  0.00000000000E+00 0.  1.
        -13    1    3    3    0    0  0.10322111678E+03  0.11990159521E+03 -0.10297215978E+03  0.18877038214E+03  0.00000000000E+00 0. -1.
         22    1    1    2    0    0 -0.48120420020E+03 -0.61254474115E+03 -0.12930033261E+04  0.15095118892E+04  0.00000000000E+00 0. -1.
<mgrwt>
<rscale>  0 0.16010817E+04</rscale>
<asrwt>0</asrwt>
<pdfrwt beam="1">  1        1 0.35564559E+00 0.16010817E+04</pdfrwt>
<pdfrwt beam="2">  1       -1 0.42650377E-01 0.16010817E+04</pdfrwt>
<totfact> 0.94986719E+00</totfact>
</mgrwt>
</event>
<event>
 6    1  0.1072514E-005  0.1065882E+04  0.7818608E-02  0.9239099E-01
          1   -1    0    0  501    0  0.00000000000E+00  0.00000000000E+00  0.12828788173E+04  0.12828788173E+04  0.00000000000E+00 0. -1.
         -1   -1    0    0    0  501 -0.00000000000E+00 -0.00000000000E+00 -0.22139750513E+03  0.22139750513E+03  0.00000000000E+00 0.  1.
         23    2    1    2    0    0 -0.32858747836E+03 -0.24489606366E+01  0.11200671970E+04  0.11704979015E+04  0.86827894399E+02 0.  0.
         13    1    3    3    0    0 -0.30513060682E+03 -0.25365737104E+02  0.98406308136E+03  0.10305960683E+04  0.00000000000E+00 0.  1.
        -13    1    3    3    0    0 -0.23456871533E+02  0.22916776467E+02  0.13600411566E+03  0.13990183324E+03  0.00000000000E+00 0. -1.
         22    1    1    2    0    0  0.32858747836E+03  0.24489606366E+01 -0.58585884890E+02  0.33377842089E+03  0.00000000000E+00 0.  1.
<mgrwt>
<rscale>  0 0.10658821E+04</rscale>
<asrwt>0</asrwt>
<pdfrwt beam="1">  1        1 0.19736597E+00 0.10658821E+04</pdfrwt>
<pdfrwt beam="2">  1       -1 0.34061155E-01 0.10658821E+04</pdfrwt>
<totfact> 0.75647385E+01</totfact>
</mgrwt>
</event>
<event>
 6    1  0.1072514E-005  0.3957612E+04  0.7818608E-02  0.8013153E-01
          2   -1    0    0  501    0  0.00000000000E+00  0.00000000000E+00  0.30945958408E+04  0.30945958408E+04  0.00000000000E+00 0. -1.
         -2   -1    0    0    0  501 -0.00000000000E+00 -0.00000000000E+00 -0.12653262460E+04  0.12653262460E+04  0.00000000000E+00 0.  1.
         23    2    1    2    0    0 -0.13399694186E+02  0.18768023730E+04  0.16021706971E+04  0.24693823204E+04  0.91276516287E+02 0.  0.
         11    1    3    3    0    0 -0.48949315149E+02  0.70593762427E+03  0.59644921539E+03  0.92547049189E+03  0.00000000000E+00 0. -1.
        -11    1    3    3    0    0  0.35549620963E+02  0.11708647487E+04  0.10057214817E+04  0.15439118285E+04  0.00000000000E+00 0.  1.
         22    1    1    2    0    0  0.13399694186E+02 -0.18768023730E+04  0.22709889777E+03  0.18905397664E+04  0.00000000000E+00 0.  1.
<mgrwt>
<rscale>  0 0.39576121E+04</rscale>
<asrwt>0</asrwt>
<pdfrwt beam="1">  1        2 0.47609167E+00 0.39576121E+04</pdfrwt>
<pdfrwt beam="2">  1       -2 0.19466558E+00 0.39576121E+04</pdfrwt>
<totfact> 0.17307474E-01</totfact>
</mgrwt>
</event>
<event>
 6    1  0.1072514E-005  0.2065522E+04  0.7818608E-02  0.8576585E-01
         -2   -1    0    0    0  501 -0.00000000000E+00  0.00000000000E+00  0.16369660268E+04  0.16369660268E+04  0.00000000000E+00 0.  1.
          2   -1    0    0  501    0  0.00000000000E+00 -0.00000000000E+00 -0.65156822027E+03  0.65156822027E+03  0.00000000000E+00 0. -1.
         23    2    1    2    0    0  0.11869953188E+03  0.67057654550E+03 -0.36360873318E+03  0.77738199583E+03  0.91372722179E+02 0.  0.
         13    1    3    3    0    0  0.30198829099E+02  0.22927840697E+03 -0.76780368589E+02  0.24367146362E+03  0.00000000000E+00 0. -1.
        -13    1    3    3    0    0  0.88500702784E+02  0.44129813853E+03 -0.28682836459E+03  0.53371053222E+03  0.00000000000E+00 0.  1.
         22    1    1    2    0    0 -0.11869953188E+03 -0.67057654550E+03  0.13490065397E+04  0.15111522512E+04  0.00000000000E+00 0.  1.
<mgrwt>
<rscale>  0 0.20655218E+04</rscale>
<asrwt>0</asrwt>
<pdfrwt beam="1">  1        2 0.10024126E+00 0.20655218E+04</pdfrwt>
<pdfrwt beam="2">  1       -2 0.25184093E+00 0.20655218E+04</pdfrwt>
<totfact> 0.25932394E+00</totfact>
</mgrwt>
</event>
<event>
 6    1  0.1072514E-005  0.1854462E+04  0.7818608E-02  0.8677862E-01
         -1   -1    0    0    0  501 -0.00000000000E+00  0.00000000000E+00  0.12171294919E+04  0.12171294919E+04  0.00000000000E+00 0.  1.
          1   -1    0    0  501    0  0.00000000000E+00 -0.00000000000E+00 -0.70638098253E+03  0.70638098253E+03  0.00000000000E+00 0. -1.
         23    2    1    2    0    0  0.75574537183E+03  0.38119296033E+03 -0.13070984665E+03  0.86147094476E+03  0.92671379684E+02 0.  0.
         11    1    3    3    0    0  0.19106763717E+03  0.57288213354E+02 -0.48834649730E+02  0.20536212985E+03  0.00000000000E+00 0. -1.
        -11    1    3    3    0    0  0.56467773467E+03  0.32390474697E+03 -0.81875196917E+02  0.65610881491E+03  0.00000000000E+00 0.  1.
         22    1    1    2    0    0 -0.75574537183E+03 -0.38119296033E+03  0.64145835601E+03  0.10620395297E+04  0.00000000000E+00 0.  1.
<mgrwt>
<rscale>  0 0.18544618E+04</rscale>
<asrwt>0</asrwt>
<pdfrwt beam="1">  1        1 0.10867400E+00 0.18544618E+04</pdfrwt>
<pdfrwt beam="2">  1       -1 0.18725069E+00 0.18544618E+04</pdfrwt>
<totfact> 0.46622109E+00</totfact>
</mgrwt>
</event>
<event>
 6    1  0.1072514E-005  0.1605216E+04  0.7818608E-02  0.8817350E-01
          2   -1    0    0  501    0  0.00000000000E+00  0.00000000000E+00  0.71566201088E+03  0.71566201088E+03  0.00000000000E+00 0. -1.
         -2   -1    0    0    0  501 -0.00000000000E+00 -0.00000000000E+00 -0.90011717203E+03  0.90011717203E+03  0.00000000000E+00 0.  1.
         23    2    1    2    0    0 -0.79129148080E+03  0.14146906862E+02 -0.20858401796E+03  0.82399351476E+03  0.95476055894E+02 0.  0.
         13    1    3    3    0    0 -0.65910496400E+02  0.22507632857E+02 -0.18118009834E+01  0.69671153968E+02  0.00000000000E+00 0. -1.
        -13    1    3    3    0    0 -0.72538098440E+03 -0.83607259953E+01 -0.20677221698E+03  0.75432236079E+03  0.00000000000E+00 0.  1.
         22    1    1    2    0    0  0.79129148080E+03 -0.14146906862E+02  0.24128856816E+02  0.79178566816E+03  0.00000000000E+00 0. -1.
<mgrwt>
<rscale>  0 0.16052161E+04</rscale>
<asrwt>0</asrwt>
<pdfrwt beam="1">  1        2 0.11010185E+00 0.16052161E+04</pdfrwt>
<pdfrwt beam="2">  1       -2 0.13847957E+00 0.16052161E+04</pdfrwt>
<totfact> 0.14102802E+01</totfact>
</mgrwt>
</event>
<event>
 6    1  0.1072514E-005  0.7325411E+03  0.7818608E-02  0.9663146E-01
          1   -1    0    0  501    0  0.00000000000E+00  0.00000000000E+00  0.27475920123E+03  0.27475920123E+03  0.00000000000E+00 0. -1.
         -1   -1    0    0    0  501 -0.00000000000E+00 -0.00000000000E+00 -0.48826068596E+03  0.48826068596E+03  0.00000000000E+00 0.  1.
         23    2    1    2    0    0  0.28644873673E+03 -0.21353866747E+03 -0.57479890353E+02  0.37315532200E+03  0.91045676814E+02 0.  0.
         13    1    3    3    0    0  0.11816947604E+03 -0.35711255108E+02 -0.27761911492E+02  0.12653079680E+03  0.00000000000E+00 0.  1.
        -13    1    3    3    0    0  0.16827926069E+03 -0.17782741236E+03 -0.29717978861E+02  0.24662452521E+03  0.00000000000E+00 0. -1.
         22    1    1    2    0    0 -0.28644873673E+03  0.21353866747E+03 -0.15602159438E+03  0.38986456519E+03  0.00000000000E+00 0. -1.
<mgrwt>
<rscale>  0 0.73254110E+03</rscale>
<asrwt>0</asrwt>
<pdfrwt beam="1">  1        1 0.42270647E-01 0.73254110E+03</pdfrwt>
<pdfrwt beam="2">  1       -1 0.75117027E-01 0.73254110E+03</pdfrwt>
<totfact> 0.17773241E+02</totfact>
</mgrwt>
</event>
<event>
 6    1  0.1072514E-005  0.2535411E+04  0.7818608E-02  0.8390478E-01
         -1   -1    0    0    0  501 -0.00000000000E+00  0.00000000000E+00  0.95460258734E+03  0.95460258734E+03  0.00000000000E+00 0.  1.
          1   -1    0    0  501    0  0.00000000000E+00 -0.00000000000E+00 -0.16835043383E+04  0.16835043383E+04  0.00000000000E+00 0. -1.
         23    2    1    2    0    0  0.14179876407E+03 -0.70399331996E+03  0.71860194592E+03  0.10222540745E+04  0.11358323883E+03 0.  0.
         13    1    3    3    0    0  0.13223271140E+03 -0.49644346982E+03  0.45225175199E+03  0.68445106171E+03  0.00000000000E+00 0. -1.
        -13    1    3    3    0    0  0.95660526682E+01 -0.20754985013E+03  0.26635019393E+03  0.33780301280E+03  0.00000000000E+00 0.  1.
         22    1    1    2    0    0 -0.14179876407E+03  0.70399331996E+03 -0.14475036969E+04  0.16158528512E+04  0.00000000000E+00 0. -1.
<mgrwt>
<rscale>  0 0.25354113E+04</rscale>
<asrwt>0</asrwt>
<pdfrwt beam="1">  1        1 0.25900066E+00 0.25354113E+04</pdfrwt>
<pdfrwt beam="2">  1       -1 0.14686194E+00 0.25354113E+04</pdfrwt>
<totfact> 0.15998255E+00</totfact>
</mgrwt>
</event>
<event>
 6    1  0.1072514E-005  0.3625358E+04  0.7818608E-02  0.8084708E-01
          1   -1    0    0  501    0  0.00000000000E+00  0.00000000000E+00  0.14123601157E+04  0.14123601157E+04  0.00000000000E+00 0. -1.
         -1   -1    0    0    0  501 -0.00000000000E+00 -0.00000000000E+00 -0.23264643288E+04  0.23264643288E+04  0.00000000000E+00 0.  1.
         23    2    1    2    0    0 -0.77638557377E+03 -0.53997303386E+02  0.12297087734E+04  0.14581174512E+04  0.90733490384E+02 0.  0.
         13    1    3    3    0    0 -0.49404123994E+03 -0.56720808792E+02  0.85243522209E+03  0.98688388616E+03  0.00000000000E+00 0. -1.
        -13    1    3    3    0    0 -0.28234433383E+03  0.27235054061E+01  0.37727355130E+03  0.47123356505E+03  0.00000000000E+00 0.  1.
         22    1    1    2    0    0  0.77638557377E+03  0.53997303386E+02 -0.21438129865E+04  0.22807069932E+04  0.00000000000E+00 0.  1.
<mgrwt>
<rscale>  0 0.36253581E+04</rscale>
<asrwt>0</asrwt>
<pdfrwt beam="1">  1        1 0.21728618E+00 0.36253581E+04</pdfrwt>
<pdfrwt beam="2">  1       -1 0.35791758E+00 0.36253581E+04</pdfrwt>
<totfact> 0.83642119E-02</totfact>
</mgrwt>
</event>
<event>
 6    1  0.1072514E-005  0.1950965E+04  0.7818608E-02  0.8629895E-01
          1   -1    0    0  501    0  0.00000000000E+00  0.00000000000E+00  0.25154371251E+04  0.25154371251E+04  0.00000000000E+00 0. -1.
         -1   -1    0    0    0  501 -0.00000000000E+00 -0.00000000000E+00 -0.37829073770E+03  0.37829073770E+03  0.00000000000E+00 0.  1.
         23    2    1    2    0    0 -0.81674027021E+03 -0.51345816597E+03  0.87871199842E+03  0.13080541673E+04  0.90371296951E+02 0.  0.
         13    1    3    3    0    0 -0.72212805831E+02 -0.49829050147E+02  0.47960708164E+02  0.99989264884E+02  0.00000000000E+00 0. -1.
        -13    1    3    3    0    0 -0.74452746437E+03 -0.46362911583E+03  0.83075129025E+03  0.12080649024E+04  0.00000000000E+00 0.  1.
         22    1    1    2    0    0  0.81674027021E+03  0.51345816597E+03  0.12584343890E+04  0.15856736955E+04  0.00000000000E+00 0.  1.
<mgrwt>
<rscale>  0 0.19509655E+04</rscale>
<asrwt>0</asrwt>
<pdfrwt beam="1">  1        1 0.38699032E+00 0.19509655E+04</pdfrwt>
<pdfrwt beam="2">  1       -1 0.58198577E-01 0.19509655E+04</pdfrwt>
<totfact> 0.36854746E+00</totfact>
</mgrwt>
</event>
<event>
 6    1  0.1072514E-005  0.1002093E+04  0.7818608E-02  0.9306252E-01
         -2   -1    0    0    0  501 -0.00000000000E+00  0.00000000000E+00  0.17743099582E+03  0.17743099582E+03  0.00000000000E+00 0.  1.
          2   -1    0    0  501    0  0.00000000000E+00 -0.00000000000E+00 -0.14149023312E+04  0.14149023312E+04  0.00000000000E+00 0. -1.
         23    2    1    2    0    0 -0.14573855195E+03 -0.88692993162E+01 -0.13785350905E+04  0.13893127049E+04  0.92262702147E+02 0.  0.
         13    1    3    3    0    0 -0.14958788374E+02 -0.31243062919E+02 -0.16839452933E+03  0.17192036482E+03  0.00000000000E+00 0.  1.
        -13    1    3    3    0    0 -0.13077976358E+03  0.22373763603E+02 -0.12101405612E+04  0.12173923401E+04  0.00000000000E+00 0. -1.
         22    1    1    2    0    0  0.14573855195E+03  0.88692993162E+01  0.14106375514E+03  0.20302062213E+03  0.00000000000E+00 0.  1.
<mgrwt>
<rscale>  0 0.10020929E+04</rscale>
<asrwt>0</asrwt>
<pdfrwt beam="1">  1        2 0.21767728E+00 0.10020929E+04</pdfrwt>
<pdfrwt beam="2">  1       -2 0.27297076E-01 0.10020929E+04</pdfrwt>
<totfact> 0.17284634E+02</totfact>
</mgrwt>
</event>
<event>
 6    1  0.1072514E-005  0.2155415E+04  0.7818608E-02  0.8537218E-01
         -1   -1    0    0    0  501 -0.00000000000E+00  0.00000000000E+00  0.94764311731E+03  0.94764311731E+03  0.00000000000E+00 0.  1.
          1   -1    0    0  501    0  0.00000000000E+00 -0.00000000000E+00 -0.12256228777E+04  0.12256228777E+04  0.00000000000E+00 0. -1.
         23    2    1    2    0    0  0.62277150798E+03  0.17714096233E+03  0.72692014575E+03  0.97783841751E+03  0.92367747418E+02 0.  0.
         13    1    3    3    0    0  0.29747392200E+03  0.86993725752E+02  0.27935934240E+03  0.41725326215E+03  0.00000000000E+00 0. -1.
        -13    1    3    3    0    0  0.32529758598E+03  0.90147236577E+02  0.44756080335E+03  0.56058515536E+03  0.00000000000E+00 0.  1.
         22    1    1    2    0    0 -0.62277150798E+03 -0.17714096233E+03 -0.10048999062E+04  0.11954275775E+04  0.00000000000E+00 0. -1.
<mgrwt>
<rscale>  0 0.21554147E+04</rscale>
<asrwt>0</asrwt>
<pdfrwt beam="1">  1        1 0.18855736E+00 0.21554147E+04</pdfrwt>
<pdfrwt beam="2">  1       -1 0.14579125E+00 0.21554147E+04</pdfrwt>
<totfact> 0.35281243E+00</totfact>
</mgrwt>
</event>
<event>
 6    1  0.1083509E-005  0.3340124E+04  0.7818608E-02  0.8152760E-01
          2   -1    0    0  501    0  0.00000000000E+00  0.00000000000E+00  0.20588852180E+04  0.20588852180E+04  0.00000000000E+00 0. -1.
         -2   -1    0    0    0  501 -0.00000000000E+00 -0.00000000000E+00 -0.13546688998E+04  0.13546688998E+04  0.00000000000E+00 0.  1.
         23    2    1    2    0    0 -0.23124206719E+03 -0.11598259882E+04 -0.85087044944E+03  0.14598489016E+04  0.92244659189E+02 0.  0.
         11    1    3    3    0    0 -0.15658873613E+03 -0.60339958268E+03 -0.48362299345E+03  0.78898814215E+03  0.00000000000E+00 0. -1.
        -11    1    3    3    0    0 -0.74653331059E+02 -0.55642640557E+03 -0.36724745600E+03  0.67086075946E+03  0.00000000000E+00 0.  1.
         22    1    1    2    0    0  0.23124206719E+03  0.11598259882E+04  0.15550867677E+04  0.19537052161E+04  0.00000000000E+00 0. -1.
<mgrwt>
<rscale>  0 0.33401244E+04</rscale>
<asrwt>0</asrwt>
<pdfrwt beam="1">  1        2 0.31675157E+00 0.33401244E+04</pdfrwt>
<pdfrwt beam="2">  1       -2 0.20841060E+00 0.33401244E+04</pdfrwt>
<totfact> 0.60468205E-01</totfact>
</mgrwt>
</event>
<event>
 6    1  0.1072514E-005  0.3158881E+04  0.7818608E-02  0.8199762E-01
         -2   -1    0    0    0  501 -0.00000000000E+00  0.00000000000E+00  0.11636073626E+04  0.11636073626E+04  0.00000000000E+00 0.  1.
          2   -1    0    0  501    0  0.00000000000E+00 -0.00000000000E+00 -0.21438782040E+04  0.21438782040E+04  0.00000000000E+00 0. -1.
         23    2    1    2    0    0 -0.74260486260E+03 -0.35943864717E+03  0.91788960757E+03  0.12377823964E+04  0.94476484356E+02 0.  0.
         13    1    3    3    0    0 -0.69320888463E+03 -0.30637547150E+03  0.84023079122E+03  0.11315441970E+04  0.00000000000E+00 0.  1.
        -13    1    3    3    0    0 -0.49395977974E+02 -0.53063175668E+02  0.77658816352E+02  0.10623819939E+03  0.00000000000E+00 0. -1.
         22    1    1    2    0    0  0.74260486260E+03  0.35943864717E+03 -0.18981604489E+04  0.20697031703E+04  0.00000000000E+00 0. -1.
<mgrwt>
<rscale>  0 0.31588811E+04</rscale>
<asrwt>0</asrwt>
<pdfrwt beam="1">  1        2 0.32982742E+00 0.31588811E+04</pdfrwt>
<pdfrwt beam="2">  1       -2 0.17901652E+00 0.31588811E+04</pdfrwt>
<totfact> 0.86417742E-01</totfact>
</mgrwt>
</event>
<event>
 6    1  0.1072514E-005  0.1909616E+04  0.7818608E-02  0.8650084E-01
         -3   -1    0    0    0  501 -0.00000000000E+00  0.00000000000E+00  0.73453643287E+03  0.73453643287E+03  0.00000000000E+00 0.  1.
          3   -1    0    0  501    0  0.00000000000E+00 -0.00000000000E+00 -0.12411348293E+04  0.12411348293E+04  0.00000000000E+00 0. -1.
         23    2    1    2    0    0 -0.26283520536E+02 -0.49835480812E+03  0.58548614281E+03  0.77496439575E+03  0.93420838363E+02 0.  0.
         11    1    3    3    0    0 -0.95925513539E+01 -0.11203984269E+03  0.77567164732E+02  0.13660749773E+03  0.00000000000E+00 0. -1.
        -11    1    3    3    0    0 -0.16690969182E+02 -0.38631496543E+03  0.50791897808E+03  0.63835689802E+03  0.00000000000E+00 0.  1.
         22    1    1    2    0    0  0.26283520536E+02  0.49835480812E+03 -0.10920845392E+04  0.12007068664E+04  0.00000000000E+00 0. -1.
<mgrwt>
<rscale>  0 0.19096165E+04</rscale>
<asrwt>0</asrwt>
<pdfrwt beam="1">  1        3 0.19094382E+00 0.19096165E+04</pdfrwt>
<pdfrwt beam="2">  1       -3 0.11300561E+00 0.19096165E+04</pdfrwt>
<totfact> 0.26915558E-01</totfact>
</mgrwt>
</event>
<event>
 6    1  0.1072514E-005  0.2605611E+04  0.7818608E-02  0.8366298E-01
         -2   -1    0    0    0  501 -0.00000000000E+00  0.00000000000E+00  0.95085474194E+03  0.95085474194E+03  0.00000000000E+00 0. -1.
          2   -1    0    0  501    0  0.00000000000E+00 -0.00000000000E+00 -0.17850278364E+04  0.17850278364E+04  0.00000000000E+00 0.  1.
         23    2    1    2    0    0 -0.53874676587E+03  0.94367391978E+03  0.33388489892E+03  0.11405368414E+04  0.92610022020E+02 0.  0.
         13    1    3    3    0    0 -0.27008413060E+03  0.55872811510E+03  0.20817104090E+03  0.65456682354E+03  0.00000000000E+00 0.  1.
        -13    1    3    3    0    0 -0.26866263527E+03  0.38494580468E+03  0.12571385802E+03  0.48597001782E+03  0.00000000000E+00 0. -1.
         22    1    1    2    0    0  0.53874676587E+03 -0.94367391978E+03 -0.11680579934E+04  0.15953457370E+04  0.00000000000E+00 0.  1.
<mgrwt>
<rscale>  0 0.26056110E+04</rscale>
<asrwt>0</asrwt>
<pdfrwt beam="1">  1        2 0.27461966E+00 0.26056110E+04</pdfrwt>
<pdfrwt beam="2">  1       -2 0.14628535E+00 0.26056110E+04</pdfrwt>
<totfact> 0.24900787E+00</totfact>
</mgrwt>
</event>
<event>
 6    1  0.1072514E-005  0.3653354E+04  0.7818608E-02  0.8078379E-01
         -2   -1    0    0    0  501 -0.00000000000E+00  0.00000000000E+00  0.13285133885E+04  0.13285133885E+04  0.00000000000E+00 0.  1.
          2   -1    0    0  501    0  0.00000000000E+00 -0.00000000000E+00 -0.25116409239E+04  0.25116409239E+04  0.00000000000E+00 0. -1.
         23    2    1    2    0    0 -0.96422292736E+03  0.73855102489E+03 -0.20245016131E+04  0.23626246820E+04  0.90582206879E+02 0.  0.
         11    1    3    3    0    0 -0.83541418848E+03  0.60159419911E+03 -0.17345587458E+04  0.20170588711E+04  0.00000000000E+00 0. -1.
        -11    1    3    3    0    0 -0.12880873888E+03  0.13695682577E+03 -0.28994286732E+03  0.34556581087E+03  0.00000000000E+00 0.  1.
         22    1    1    2    0    0  0.96422292736E+03 -0.73855102489E+03  0.84137407779E+03  0.14775296304E+04  0.00000000000E+00 0.  1.
<mgrwt>
<rscale>  0 0.36533539E+04</rscale>
<asrwt>0</asrwt>
<pdfrwt beam="1">  1        2 0.38640629E+00 0.36533539E+04</pdfrwt>
<pdfrwt beam="2">  1       -2 0.20438668E+00 0.36533539E+04</pdfrwt>
<totfact> 0.34623406E-01</totfact>
</mgrwt>
</event>
<event>
 6    1  0.1072514E-005  0.2410311E+04  0.7818608E-02  0.8435653E-01
         -1   -1    0    0    0  501 -0.00000000000E+00  0.00000000000E+00  0.99806692860E+03  0.99806692860E+03  0.00000000000E+00 0.  1.
          1   -1    0    0  501    0  0.00000000000E+00 -0.00000000000E+00 -0.14552130866E+04  0.14552130866E+04  0.00000000000E+00 0. -1.
         23    2    1    2    0    0 -0.24221937695E+03 -0.64848694957E+03 -0.12311976535E+04  0.14148382652E+04  0.81939637216E+02 0.  0.
         11    1    3    3    0    0 -0.39548949177E+02 -0.21078429032E+03 -0.36095467816E+03  0.41985999585E+03  0.00000000000E+00 0.  1.
        -11    1    3    3    0    0 -0.20267042777E+03 -0.43770265925E+03 -0.87024297539E+03  0.99497826932E+03  0.00000000000E+00 0. -1.
         22    1    1    2    0    0  0.24221937695E+03  0.64848694957E+03  0.77405149558E+03  0.10384417500E+04  0.00000000000E+00 0.  1.
<mgrwt>
<rscale>  0 0.24103112E+04</rscale>
<asrwt>0</asrwt>
<pdfrwt beam="1">  1        1 0.22387894E+00 0.24103112E+04</pdfrwt>
<pdfrwt beam="2">  1       -1 0.15354876E+00 0.24103112E+04</pdfrwt>
<totfact> 0.20605830E+00</totfact>
</mgrwt>
</event>
<event>
 6    1  0.1072514E-005  0.5404627E+03  0.7818608E-02  0.1003726E+00
         -2   -1    0    0    0  501 -0.00000000000E+00  0.00000000000E+00  0.39328273654E+02  0.39328273654E+02  0.00000000000E+00 0.  1.
          2   -1    0    0  501    0  0.00000000000E+00 -0.00000000000E+00 -0.18568059728E+04  0.18568059728E+04  0.00000000000E+00 0. -1.
         23    2    1    2    0    0  0.62925734388E+02  0.25452908339E+03 -0.88803103323E+03  0.93041388987E+03  0.91247948712E+02 0.  0.
         13    1    3    3    0    0 -0.17539282281E+02  0.10005501612E+02 -0.65347953688E+02  0.68396575475E+02  0.00000000000E+00 0. -1.
        -13    1    3    3    0    0  0.80465016668E+02  0.24452358178E+03 -0.82268307955E+03  0.86201731440E+03  0.00000000000E+00 0.  1.
         22    1    1    2    0    0 -0.62925734388E+02 -0.25452908339E+03 -0.92944666593E+03  0.96572035659E+03  0.00000000000E+00 0. -1.
<mgrwt>
<rscale>  0 0.54046267E+03</rscale>
<asrwt>0</asrwt>
<pdfrwt beam="1">  1        2 0.28566244E+00 0.54046267E+03</pdfrwt>
<pdfrwt beam="2">  1       -2 0.60505041E-02 0.54046267E+03</pdfrwt>
<totfact> 0.12673975E+03</totfact>
</mgrwt>
</event>
<event>
 6    1  0.1072514E-005  0.3482610E+04  0.7818608E-02  0.8117923E-01
         -2   -1    0    0    0  501 -0.00000000000E+00  0.00000000000E+00  0.20983746973E+04  0.20983746973E+04  0.00000000000E+00 0.  1.
          2   -1    0    0  501    0  0.00000000000E+00 -0.00000000000E+00 -0.14449962610E+04  0.14449962610E+04  0.00000000000E+00 0. -1.
         23    2    1    2    0    0  0.10068963249E+04 -0.94971009806E+03 -0.74595167274E+03  0.15751447941E+04  0.94062451724E+02 0.  0.
         11    1    3    3    0    0  0.29449964096E+03 -0.33820143809E+03 -0.23957759485E+03  0.50843650066E+03  0.00000000000E+00 0. -1.
        -11    1    3    3    0    0  0.71239668390E+03 -0.61150865998E+03 -0.50637407789E+03  0.10667082934E+04  0.00000000000E+00 0.  1.
         22    1    1    2    0    0 -0.10068963249E+04  0.94971009806E+03  0.13993301091E+04  0.19682261642E+04  0.00000000000E+00 0.  1.
<mgrwt>
<rscale>  0 0.34826103E+04</rscale>
<asrwt>0</asrwt>
<pdfrwt beam="1">  1        2 0.22230712E+00 0.34826103E+04</pdfrwt>
<pdfrwt beam="2">  1       -2 0.32282687E+00 0.34826103E+04</pdfrwt>
<totfact> 0.25806967E-01</totfact>
</mgrwt>
</event>
<event>
 6    1  0.1072514E-005  0.5889230E+03  0.7818608E-02  0.9928657E-01
         -3   -1    0    0    0  501 -0.00000000000E+00  0.00000000000E+00  0.41787591179E+03  0.41787591179E+03  0.00000000000E+00 0.  1.
          3   -1    0    0  501    0  0.00000000000E+00 -0.00000000000E+00 -0.20749601332E+03  0.20749601332E+03  0.00000000000E+00 0. -1.
         23    2    1    2    0    0  0.26120195215E+03 -0.50377870964E+02  0.22350354908E+03  0.35903263041E+03  0.90477641189E+02 0.  0.
         13    1    3    3    0    0  0.95513557495E+02 -0.63053457805E+02  0.10013472405E+03  0.15207084259E+03  0.00000000000E+00 0.  1.
        -13    1    3    3    0    0  0.16568839466E+03  0.12675586842E+02  0.12336882503E+03  0.20696178782E+03  0.00000000000E+00 0. -1.
         22    1    1    2    0    0 -0.26120195215E+03  0.50377870964E+02 -0.13123650609E+02  0.26633929469E+03  0.00000000000E+00 0. -1.
<mgrwt>
<rscale>  0 0.58892304E+03</rscale>
<asrwt>0</asrwt>
<pdfrwt beam="1">  1        3 0.31922464E-01 0.58892304E+03</pdfrwt>
<pdfrwt beam="2">  1       -3 0.64288601E-01 0.58892304E+03</pdfrwt>
<totfact> 0.59297427E+01</totfact>
</mgrwt>
</event>
<event>
 6    1  0.1072514E-005  0.3421042E+04  0.7818608E-02  0.8132761E-01
         -1   -1    0    0    0  501 -0.00000000000E+00  0.00000000000E+00  0.83220684537E+03  0.83220684537E+03  0.00000000000E+00 0.  1.
          1   -1    0    0  501    0  0.00000000000E+00 -0.00000000000E+00 -0.35158112961E+04  0.35158112961E+04  0.00000000000E+00 0. -1.
         23    2    1    2    0    0  0.14018390400E+04  0.18720433359E+03 -0.25628138434E+04  0.29285856749E+04  0.91657530372E+02 0.  0.
         13    1    3    3    0    0  0.92158409251E+03  0.97211582705E+02 -0.16041235194E+04  0.18525602816E+04  0.00000000000E+00 0. -1.
        -13    1    3    3    0    0  0.48025494745E+03  0.89992750881E+02 -0.95869032397E+03  0.10760253933E+04  0.00000000000E+00 0.  1.
         22    1    1    2    0    0 -0.14018390400E+04 -0.18720433359E+03 -0.12079060740E+03  0.14194324666E+04  0.00000000000E+00 0.  1.
<mgrwt>
<rscale>  0 0.34210421E+04</rscale>
<asrwt>0</asrwt>
<pdfrwt beam="1">  1        1 0.54089405E+00 0.34210421E+04</pdfrwt>
<pdfrwt beam="2">  1       -1 0.12803182E+00 0.34210421E+04</pdfrwt>
<totfact> 0.10493663E-01</totfact>
</mgrwt>
</event>
<event>
 6    1  0.1072514E-005  0.9324704E+03  0.7818608E-02  0.9385878E-01
          1   -1    0    0  501    0  0.00000000000E+00  0.00000000000E+00  0.21392710025E+04  0.21392710025E+04  0.00000000000E+00 0. -1.
         -1   -1    0    0    0  501 -0.00000000000E+00 -0.00000000000E+00 -0.10161184974E+03  0.10161184974E+03  0.00000000000E+00 0.  1.
         23    2    1    2    0    0 -0.40855161205E+03  0.80495828532E+02  0.15078236310E+04  0.15669988279E+04  0.92516087167E+02 0.  0.
         11    1    3    3    0    0 -0.23884161020E+03  0.70315505675E+02  0.74660532410E+03  0.78702547296E+03  0.00000000000E+00 0. -1.
        -11    1    3    3    0    0 -0.16971000185E+03  0.10180322857E+02  0.76121830690E+03  0.77997335496E+03  0.00000000000E+00 0.  1.
         22    1    1    2    0    0  0.40855161205E+03 -0.80495828532E+02  0.52983552181E+03  0.67388402436E+03  0.00000000000E+00 0.  1.
<mgrwt>
<rscale>  0 0.93247045E+03</rscale>
<asrwt>0</asrwt>
<pdfrwt beam="1">  1        1 0.32911858E+00 0.93247045E+03</pdfrwt>
<pdfrwt beam="2">  1       -1 0.15632594E-01 0.93247045E+03</pdfrwt>
<totfact> 0.74847903E+01</totfact>
</mgrwt>
</event>
<event>
 6    1  0.1072514E-005  0.1171733E+04  0.7818608E-02  0.9137965E-01
         -1   -1    0    0    0  501 -0.00000000000E+00  0.00000000000E+00  0.81364896091E+03  0.81364896091E+03  0.00000000000E+00 0.  1.
          1   -1    0    0  501    0  0.00000000000E+00 -0.00000000000E+00 -0.42185208534E+03  0.42185208534E+03  0.00000000000E+00 0. -1.
         23    2    1    2    0    0 -0.15227837526E+03 -0.55307279641E+03  0.91407897030E+02  0.58795818270E+03  0.90891139604E+02 0.  0.
         13    1    3    3    0    0 -0.45571180688E+02 -0.15422948713E+03 -0.15222367626E+02  0.16154004979E+03  0.00000000000E+00 0. -1.
        -13    1    3    3    0    0 -0.10670719458E+03 -0.39884330928E+03  0.10663026466E+03  0.42641813291E+03  0.00000000000E+00 0.  1.
         22    1    1    2    0    0  0.15227837526E+03  0.55307279641E+03  0.30038897854E+03  0.64754286355E+03  0.00000000000E+00 0.  1.
<mgrwt>
<rscale>  0 0.11717329E+04</rscale>
<asrwt>0</asrwt>
<pdfrwt beam="1">  1        1 0.64900321E-01 0.11717329E+04</pdfrwt>
<pdfrwt beam="2">  1       -1 0.12517676E+00 0.11717329E+04</pdfrwt>
<totfact> 0.30908231E+01</totfact>
</mgrwt>
</event>
<event>
 6    1  0.1072514E-005  0.1517291E+04  0.7818608E-02  0.8873036E-01
          2   -1    0    0  501    0  0.00000000000E+00  0.00000000000E+00  0.19409037812E+04  0.19409037812E+04  0.00000000000E+00 0. -1.
         -2   -1    0    0    0  501 -0.00000000000E+00 -0.00000000000E+00 -0.29653340303E+03  0.29653340303E+03  0.00000000000E+00 0.  1.
         23    2    1    2    0    0 -0.48626711044E+03 -0.57102829518E+03  0.96566264427E+03  0.12259169399E+04  0.88538039423E+02 0.  0.
         13    1    3    3    0    0 -0.23984519194E+03 -0.21566398513E+03  0.39742665510E+03  0.51184432864E+03  0.00000000000E+00 0.  1.
        -13    1    3    3    0    0 -0.24642191850E+03 -0.35536431005E+03  0.56823598916E+03  0.71407261126E+03  0.00000000000E+00 0. -1.
         22    1    1    2    0    0  0.48626711044E+03  0.57102829518E+03  0.67870773386E+03  0.10115202443E+04  0.00000000000E+00 0.  1.
<mgrwt>
<rscale>  0 0.15172907E+04</rscale>
<asrwt>0</asrwt>
<pdfrwt beam="1">  1        2 0.29860057E+00 0.15172907E+04</pdfrwt>
<pdfrwt beam="2">  1       -2 0.45620525E-01 0.15172907E+04</pdfrwt>
<totfact> 0.31689881E+01</totfact>
</mgrwt>
</event>
<event>
 6    1  0.1072514E-005  0.2174393E+04  0.7818608E-02  0.8529163E-01
          2   -1    0    0  501    0  0.00000000000E+00  0.00000000000E+00  0.88530598765E+03  0.88530598765E+03  0.00000000000E+00 0. -1.
         -2   -1    0    0    0  501 -0.00000000000E+00 -0.00000000000E+00 -0.13351269799E+04  0.13351269799E+04  0.00000000000E+00 0.  1.
         23    2    1    2    0    0 -0.38561814634E+03  0.86865758806E+03 -0.76040509175E+03  0.12205680552E+04  0.91121422585E+02 0.  0.
         11    1    3    3    0    0 -0.13366636872E+03  0.36033338636E+03 -0.25935710982E+03  0.46365176357E+03  0.00000000000E+00 0. -1.
        -11    1    3    3    0    0 -0.25195177762E+03  0.50832420170E+03 -0.50104798193E+03  0.75691629159E+03  0.00000000000E+00 0.  1.
         22    1    1    2    0    0  0.38561814634E+03 -0.86865758806E+03  0.31058409953E+03  0.99986491235E+03  0.00000000000E+00 0. -1.
<mgrwt>
<rscale>  0 0.21743927E+04</rscale>
<asrwt>0</asrwt>
<pdfrwt beam="1">  1        2 0.13620092E+00 0.21743927E+04</pdfrwt>
<pdfrwt beam="2">  1       -2 0.20540415E+00 0.21743927E+04</pdfrwt>
<totfact> 0.33686523E+00</totfact>
</mgrwt>
</event>
<event>
 6    1  0.1072514E-005  0.2589822E+04  0.7818608E-02  0.8371667E-01
         -2   -1    0    0    0  501 -0.00000000000E+00  0.00000000000E+00  0.10458854458E+04  0.10458854458E+04  0.00000000000E+00 0.  1.
          2   -1    0    0  501    0  0.00000000000E+00 -0.00000000000E+00 -0.16032290141E+04  0.16032290141E+04  0.00000000000E+00 0. -1.
         23    2    1    2    0    0 -0.12914041342E+04  0.52746893920E+02 -0.23256919878E+03  0.13164534889E+04  0.91948265366E+02 0.  0.
         13    1    3    3    0    0 -0.65586154703E+03 -0.18944556356E+02 -0.12287643407E+03  0.66754167146E+03  0.00000000000E+00 0. -1.
        -13    1    3    3    0    0 -0.63554258717E+03  0.71691450276E+02 -0.10969276471E+03  0.64891181742E+03  0.00000000000E+00 0.  1.
         22    1    1    2    0    0  0.12914041342E+04 -0.52746893920E+02 -0.32477436952E+03  0.13326609710E+04  0.00000000000E+00 0. -1.
<mgrwt>
<rscale>  0 0.25898215E+04</rscale>
<asrwt>0</asrwt>
<pdfrwt beam="1">  1        2 0.24665062E+00 0.25898215E+04</pdfrwt>
<pdfrwt beam="2">  1       -2 0.16090545E+00 0.25898215E+04</pdfrwt>
<totfact> 0.24391216E+00</totfact>
</mgrwt>
</event>
<event>
 6    1  0.1072514E-005  0.1834470E+04  0.7818608E-02  0.8688181E-01
          1   -1    0    0  501    0  0.00000000000E+00  0.00000000000E+00  0.26211956008E+04  0.26211956008E+04  0.00000000000E+00 0. -1.
         -1   -1    0    0    0  501 -0.00000000000E+00 -0.00000000000E+00 -0.32096794794E+03  0.32096794794E+03  0.00000000000E+00 0.  1.
         23    2    1    2    0    0  0.38782853817E+03 -0.41066586569E+03 -0.12306759041E+01  0.57240240734E+03  0.92658367649E+02 0.  0.
         11    1    3    3    0    0  0.31748042286E+02 -0.53237088480E+02 -0.26113606572E+02  0.67261030523E+02  0.00000000000E+00 0.  1.
        -11    1    3    3    0    0  0.35608049589E+03 -0.35742877721E+03  0.24882930668E+02  0.50514137682E+03  0.00000000000E+00 0. -1.
         22    1    1    2    0    0 -0.38782853817E+03  0.41066586569E+03  0.23014583288E+04  0.23697611414E+04  0.00000000000E+00 0. -1.
<mgrwt>
<rscale>  0 0.18344697E+04</rscale>
<asrwt>0</asrwt>
<pdfrwt beam="1">  1        1 0.40326085E+00 0.18344697E+04</pdfrwt>
<pdfrwt beam="2">  1       -1 0.49379686E-01 0.18344697E+04</pdfrwt>
<totfact> 0.43179310E+00</totfact>
</mgrwt>
</event>
<event>
 6    1  0.1072514E-005  0.1848993E+04  0.7818608E-02  0.8680671E-01
         -2   -1    0    0    0  501 -0.00000000000E+00  0.00000000000E+00  0.56218989468E+03  0.56218989468E+03  0.00000000000E+00 0. -1.
          2   -1    0    0  501    0  0.00000000000E+00 -0.00000000000E+00 -0.15202936773E+04  0.15202936773E+04  0.00000000000E+00 0.  1.
         23    2    1    2    0    0 -0.16879541954E+03  0.14445205047E+03 -0.14883440348E+04  0.15075809597E+04  0.90962055724E+02 0.  0.
         11    1    3    3    0    0 -0.17443209565E+03  0.15096738999E+03 -0.14075775368E+04  0.14263562777E+04  0.00000000000E+00 0. -1.
        -11    1    3    3    0    0  0.56366761115E+01 -0.65153395165E+01 -0.80766498015E+02  0.81224682013E+02  0.00000000000E+00 0.  1.
         22    1    1    2    0    0  0.16879541954E+03 -0.14445205047E+03  0.53024025219E+03  0.57490261226E+03  0.00000000000E+00 0. -1.
<mgrwt>
<rscale>  0 0.18489930E+04</rscale>
<asrwt>0</asrwt>
<pdfrwt beam="1">  1        2 0.23389133E+00 0.18489930E+04</pdfrwt>
<pdfrwt beam="2">  1       -2 0.86490756E-01 0.18489930E+04</pdfrwt>
<totfact> 0.13463413E+01</totfact>
</mgrwt>
</event>
<event>
 6    1  0.1072514E-005  0.2030367E+04  0.7818608E-02  0.8592553E-01
          1   -1    0    0  501    0  0.00000000000E+00  0.00000000000E+00  0.30177378631E+04  0.30177378631E+04  0.00000000000E+00 0. -1.
         -1   -1    0    0    0  501 -0.00000000000E+00 -0.00000000000E+00 -0.34151337255E+03  0.34151337255E+03  0.00000000000E+00 0.  1.
         23    2    1    2    0    0  0.41973342219E+03  0.68726956503E+03  0.32329921844E+03  0.87233086362E+03  0.89012079378E+02 0.  0.
         11    1    3    3    0    0  0.10840895206E+03  0.14412176354E+03  0.37811345183E+02  0.18426416211E+03  0.00000000000E+00 0. -1.
        -11    1    3    3    0    0  0.31132447013E+03  0.54314780149E+03  0.28548787326E+03  0.68806670152E+03  0.00000000000E+00 0.  1.
         22    1    1    2    0    0 -0.41973342219E+03 -0.68726956503E+03  0.23529252721E+04  0.24869203721E+04  0.00000000000E+00 0.  1.
<mgrwt>
<rscale>  0 0.20303673E+04</rscale>
<asrwt>0</asrwt>
<pdfrwt beam="1">  1        1 0.46426735E+00 0.20303673E+04</pdfrwt>
<pdfrwt beam="2">  1       -1 0.52540521E-01 0.20303673E+04</pdfrwt>
<totfact> 0.19629006E+00</totfact>
</mgrwt>
</event>
<event>
 6    1  0.1072514E-005  0.5404709E+03  0.7818608E-02  0.1003724E+00
          2   -1    0    0  501    0  0.00000000000E+00  0.00000000000E+00  0.15045331200E+04  0.15045331200E+04  0.00000000000E+00 0. -1.
         -2   -1    0    0    0  501 -0.00000000000E+00 -0.00000000000E+00 -0.48538104297E+02  0.48538104297E+02  0.00000000000E+00 0.  1.
         23    2    1    2    0    0 -0.20818450929E+03 -0.15812621206E+03  0.67785323072E+03  0.73218796439E+03  0.90936922996E+02 0.  0.
         11    1    3    3    0    0 -0.10288877870E+03 -0.12688616807E+03  0.34586418099E+03  0.38250259100E+03  0.00000000000E+00 0. -1.
        -11    1    3    3    0    0 -0.10529573059E+03 -0.31240043991E+02  0.33198904972E+03  0.34968537339E+03  0.00000000000E+00 0.  1.
         22    1    1    2    0    0  0.20818450929E+03  0.15812621206E+03  0.77814178501E+03  0.82088325992E+03  0.00000000000E+00 0. -1.
<mgrwt>
<rscale>  0 0.54047085E+03</rscale>
<asrwt>0</asrwt>
<pdfrwt beam="1">  1        2 0.23146660E+00 0.54047085E+03</pdfrwt>
<pdfrwt beam="2">  1       -2 0.74674018E-02 0.54047085E+03</pdfrwt>
<totfact> 0.14134327E+03</totfact>
</mgrwt>
</event>
<event>
 6    1  0.1072514E-005  0.5757881E+04  0.7818608E-02  0.7721168E-01
         -2   -1    0    0    0  501 -0.00000000000E+00  0.00000000000E+00  0.41241002765E+04  0.41241002765E+04  0.00000000000E+00 0.  1.
          2   -1    0    0  501    0  0.00000000000E+00 -0.00000000000E+00 -0.20097230883E+04  0.20097230883E+04  0.00000000000E+00 0. -1.
         23    2    1    2    0    0 -0.59984643582E+03 -0.42976922681E+03 -0.19064187231E+04  0.20458755796E+04  0.81591693015E+02 0.  0.
         11    1    3    3    0    0 -0.44819724746E+03 -0.32351489196E+03 -0.15198479654E+04  0.16172447236E+04  0.00000000000E+00 0. -1.
        -11    1    3    3    0    0 -0.15164918836E+03 -0.10625433485E+03 -0.38657075768E+03  0.42863085598E+03  0.00000000000E+00 0.  1.
         22    1    1    2    0    0  0.59984643582E+03  0.42976922681E+03  0.40207959112E+04  0.40879477852E+04  0.00000000000E+00 0.  1.
<mgrwt>
<rscale>  0 0.57578814E+04</rscale>
<asrwt>0</asrwt>
<pdfrwt beam="1">  1        2 0.30918817E+00 0.57578814E+04</pdfrwt>
<pdfrwt beam="2">  1       -2 0.63447697E+00 0.57578814E+04</pdfrwt>
<totfact> 0.17492937E-03</totfact>
</mgrwt>
</event>
<event>
 6    1  0.1072514E-005  0.1153244E+04  0.7818608E-02  0.9154796E-01
          1   -1    0    0  501    0  0.00000000000E+00  0.00000000000E+00  0.86161864145E+03  0.86161864145E+03  0.00000000000E+00 0. -1.
         -1   -1    0    0    0  501 -0.00000000000E+00 -0.00000000000E+00 -0.38589323253E+03  0.38589323253E+03  0.00000000000E+00 0.  1.
         23    2    1    2    0    0 -0.52393938276E+03  0.20999245311E+03  0.13293576740E+03  0.58712256039E+03  0.91824155291E+02 0.  0.
         11    1    3    3    0    0 -0.26136352447E+03  0.14948883131E+03  0.90071851460E+02  0.31427812688E+03  0.00000000000E+00 0. -1.
        -11    1    3    3    0    0 -0.26257585829E+03  0.60503621796E+02  0.42863915940E+02  0.27284443351E+03  0.00000000000E+00 0.  1.
         22    1    1    2    0    0  0.52393938276E+03 -0.20999245311E+03  0.34278964152E+03  0.66038931359E+03  0.00000000000E+00 0. -1.
<mgrwt>
<rscale>  0 0.11532438E+04</rscale>
<asrwt>0</asrwt>
<pdfrwt beam="1">  1        1 0.13255671E+00 0.11532438E+04</pdfrwt>
<pdfrwt beam="2">  1       -1 0.59368190E-01 0.11532438E+04</pdfrwt>
<totfact> 0.55925279E+01</totfact>
</mgrwt>
</event>
<event>
 6    1  0.1072514E-005  0.4293244E+04  0.7818608E-02  0.7947869E-01
          1   -1    0    0  501    0  0.00000000000E+00  0.00000000000E+00  0.41292301652E+04  0.41292301652E+04  0.00000000000E+00 0. -1.
         -1   -1    0    0    0  501 -0.00000000000E+00 -0.00000000000E+00 -0.11159430570E+04  0.11159430570E+04  0.00000000000E+00 0.  1.
         23    2    1    2    0    0 -0.15999096138E+04 -0.12545240111E+04  0.66880139971E+03  0.21419241984E+04  0.83682093984E+02 0.  0.
         13    1    3    3    0    0 -0.10931982678E+04 -0.86228145008E+03  0.49851783327E+03  0.14788954601E+04  0.00000000000E+00 0. -1.
        -13    1    3    3    0    0 -0.50671134599E+03 -0.39224256099E+03  0.17028356644E+03  0.66302873830E+03  0.00000000000E+00 0.  1.
         22    1    1    2    0    0  0.15999096138E+04  0.12545240111E+04  0.23444857085E+04  0.31032490238E+04  0.00000000000E+00 0. -1.
<mgrwt>
<rscale>  0 0.42932439E+04</rscale>
<asrwt>0</asrwt>
<pdfrwt beam="1">  1        1 0.63526617E+00 0.42932439E+04</pdfrwt>
<pdfrwt beam="2">  1       -1 0.17168355E+00 0.42932439E+04</pdfrwt>
<totfact> 0.13376312E-02</totfact>
</mgrwt>
</event>
<event>
 6    1  0.1072514E-005  0.4454455E+03  0.7818608E-02  0.1029089E+00
          4   -1    0    0  501    0  0.00000000000E+00  0.00000000000E+00  0.44924015668E+02  0.44924015668E+02  0.00000000000E+00 0. -1.
         -4   -1    0    0    0  501 -0.00000000000E+00 -0.00000000000E+00 -0.11042072242E+04  0.11042072242E+04  0.00000000000E+00 0.  1.
         23    2    1    2    0    0  0.19930010159E+03  0.34079923863E+02 -0.72965071213E+03  0.76242779485E+03  0.89576832648E+02 0.  0.
         13    1    3    3    0    0  0.70620638090E+01 -0.55113395794E+01 -0.15353946621E+03  0.15380056987E+03  0.00000000000E+00 0. -1.
        -13    1    3    3    0    0  0.19223803778E+03  0.39591263442E+02 -0.57611124592E+03  0.60862722498E+03  0.00000000000E+00 0.  1.
         22    1    1    2    0    0 -0.19930010159E+03 -0.34079923863E+02 -0.32963249641E+03  0.38670344503E+03  0.00000000000E+00 0. -1.
<mgrwt>
<rscale>  0 0.44544550E+03</rscale>
<asrwt>0</asrwt>
<pdfrwt beam="1">  1        4 0.69113879E-02 0.44544550E+03</pdfrwt>
<pdfrwt beam="2">  1       -4 0.16987801E+00 0.44544550E+03</pdfrwt>
<totfact> 0.61679842E+01</totfact>
</mgrwt>
</event>
<event>
 6    1  0.1072514E-005  0.2660908E+04  0.7818608E-02  0.8347801E-01
          2   -1    0    0  501    0  0.00000000000E+00  0.00000000000E+00  0.11809116043E+04  0.11809116043E+04  0.00000000000E+00 0. -1.
         -2   -1    0    0    0  501 -0.00000000000E+00 -0.00000000000E+00 -0.14989338920E+04  0.14989338920E+04  0.00000000000E+00 0.  1.
         23    2    1    2    0    0  0.26416973834E+03  0.11566287149E+04 -0.76126120541E+03  0.14133399206E+04  0.10215416555E+03 0.  0.
         11    1    3    3    0    0  0.16842950422E+03  0.60740562498E+03 -0.35404633648E+03  0.72295151948E+03  0.00000000000E+00 0. -1.
        -11    1    3    3    0    0  0.95740234120E+02  0.54922308995E+03 -0.40721486894E+03  0.69038840115E+03  0.00000000000E+00 0.  1.
         22    1    1    2    0    0 -0.26416973834E+03 -0.11566287149E+04  0.44323891769E+03  0.12665055756E+04  0.00000000000E+00 0. -1.
<mgrwt>
<rscale>  0 0.26609084E+04</rscale>
<asrwt>0</asrwt>
<pdfrwt beam="1">  1        2 0.18167871E+00 0.26609084E+04</pdfrwt>
<pdfrwt beam="2">  1       -2 0.23060522E+00 0.26609084E+04</pdfrwt>
<totfact> 0.14506192E+00</totfact>
</mgrwt>
</event>
<event>
 6    1  0.1072514E-005  0.9946680E+03  0.7818608E-02  0.9314412E-01
         -1   -1    0    0    0  501 -0.00000000000E+00  0.00000000000E+00  0.66684888072E+03  0.66684888072E+03  0.00000000000E+00 0.  1.
          1   -1    0    0  501    0  0.00000000000E+00 -0.00000000000E+00 -0.37091024771E+03  0.37091024771E+03  0.00000000000E+00 0. -1.
         23    2    1    2    0    0  0.17683282359E+03  0.68458311906E+02  0.62417702148E+03  0.65868548436E+03  0.91176889579E+02 0.  0.
         13    1    3    3    0    0  0.11058357988E+03  0.42337358416E+02  0.51425719426E+03  0.52771359837E+03  0.00000000000E+00 0. -1.
        -13    1    3    3    0    0  0.66249243710E+02  0.26120953490E+02  0.10991982722E+03  0.13097188599E+03  0.00000000000E+00 0.  1.
         22    1    1    2    0    0 -0.17683282359E+03 -0.68458311906E+02 -0.32823838847E+03  0.37907364408E+03  0.00000000000E+00 0. -1.
<mgrwt>
<rscale>  0 0.99466795E+03</rscale>
<asrwt>0</asrwt>
<pdfrwt beam="1">  1        1 0.57063115E-01 0.99466795E+03</pdfrwt>
<pdfrwt beam="2">  1       -1 0.10259213E+00 0.99466795E+03</pdfrwt>
<totfact> 0.59808871E+01</totfact>
</mgrwt>
</event>
<event>
 6    1  0.1072514E-005  0.1242967E+04  0.7818608E-02  0.9076057E-01
         -2   -1    0    0    0  501 -0.00000000000E+00  0.00000000000E+00  0.17296795453E+03  0.17296795453E+03  0.00000000000E+00 0.  1.
          2   -1    0    0  501    0  0.00000000000E+00 -0.00000000000E+00 -0.22330262045E+04  0.22330262045E+04  0.00000000000E+00 0. -1.
         23    2    1    2    0    0 -0.19630939790E+03 -0.14688499091E+03 -0.21339243580E+04  0.21499301394E+04  0.91944864494E+02 0.  0.
         11    1    3    3    0    0 -0.12620782226E+03 -0.82941247021E+02 -0.92097331785E+03  0.93327354888E+03  0.00000000000E+00 0. -1.
        -11    1    3    3    0    0 -0.70101575642E+02 -0.63943743885E+02 -0.12129510402E+04  0.12166565905E+04  0.00000000000E+00 0.  1.
         22    1    1    2    0    0  0.19630939790E+03  0.14688499091E+03  0.73866108050E+02  0.25606401968E+03  0.00000000000E+00 0.  1.
<mgrwt>
<rscale>  0 0.12429674E+04</rscale>
<asrwt>0</asrwt>
<pdfrwt beam="1">  1        2 0.34354247E+00 0.12429674E+04</pdfrwt>
<pdfrwt beam="2">  1       -2 0.26610456E-01 0.12429674E+04</pdfrwt>
<totfact> 0.62494201E+01</totfact>
</mgrwt>
</event>
<event>
 6    1  0.1072514E-005  0.1730496E+04  0.7818608E-02  0.8744160E-01
          1   -1    0    0  501    0  0.00000000000E+00  0.00000000000E+00  0.16635758593E+04  0.16635758593E+04  0.00000000000E+00 0. -1.
         -1   -1    0    0    0  501 -0.00000000000E+00 -0.00000000000E+00 -0.45002695023E+03  0.45002695023E+03  0.00000000000E+00 0.  1.
         23    2    1    2    0    0 -0.23490288323E+03 -0.51342246843E+03 -0.18872627381E+03  0.60192900736E+03  0.88988357870E+02 0.  0.
         13    1    3    3    0    0 -0.89303146429E+02 -0.21074224953E+03 -0.12243036891E+03  0.25956991915E+03  0.00000000000E+00 0.  1.
        -13    1    3    3    0    0 -0.14559973680E+03 -0.30268021891E+03 -0.66295904904E+02  0.34235908821E+03  0.00000000000E+00 0. -1.
         22    1    1    2    0    0  0.23490288323E+03  0.51342246843E+03  0.14022751829E+04  0.15116738022E+04  0.00000000000E+00 0. -1.
<mgrwt>
<rscale>  0 0.17304958E+04</rscale>
<asrwt>0</asrwt>
<pdfrwt beam="1">  1        1 0.25593474E+00 0.17304958E+04</pdfrwt>
<pdfrwt beam="2">  1       -1 0.69234916E-01 0.17304958E+04</pdfrwt>
<totfact> 0.10109536E+01</totfact>
</mgrwt>
</event>
<event>
 6    1  0.1072514E-005  0.2840674E+04  0.7818608E-02  0.8290751E-01
          2   -1    0    0  501    0  0.00000000000E+00  0.00000000000E+00  0.24120642883E+04  0.24120642883E+04  0.00000000000E+00 0. -1.
         -2   -1    0    0    0  501 -0.00000000000E+00 -0.00000000000E+00 -0.83636136098E+03  0.83636136098E+03  0.00000000000E+00 0.  1.
         23    2    1    2    0    0  0.46911551863E+03 -0.25133671370E+03  0.22927732245E+04  0.23554366659E+04  0.89628759837E+02 0.  0.
         11    1    3    3    0    0  0.23034958305E+03 -0.17086117556E+03  0.12893449989E+04  0.13208576751E+04  0.00000000000E+00 0.  1.
        -11    1    3    3    0    0  0.23876593558E+03 -0.80475538136E+02  0.10034282256E+04  0.10345789908E+04  0.00000000000E+00 0. -1.
         22    1    1    2    0    0 -0.46911551863E+03  0.25133671370E+03 -0.71707029715E+03  0.89298898343E+03  0.00000000000E+00 0.  1.
<mgrwt>
<rscale>  0 0.28406741E+04</rscale>
<asrwt>0</asrwt>
<pdfrwt beam="1">  1        2 0.37108681E+00 0.28406741E+04</pdfrwt>
<pdfrwt beam="2">  1       -2 0.12867098E+00 0.28406741E+04</pdfrwt>
<totfact> 0.15122844E+00</totfact>
</mgrwt>
</event>
<event>
 6    1  0.1072514E-005  0.3571752E+04  0.7818608E-02  0.8096993E-01
          1   -1    0    0  501    0  0.00000000000E+00  0.00000000000E+00  0.37007702738E+04  0.37007702738E+04  0.00000000000E+00 0. -1.
         -1   -1    0    0    0  501 -0.00000000000E+00 -0.00000000000E+00 -0.86180768610E+03  0.86180768610E+03  0.00000000000E+00 0.  1.
         23    2    1    2    0    0 -0.14779849778E+04  0.92638106362E+03  0.93783210041E+03  0.19824774581E+04  0.89812881847E+02 0.  0.
         13    1    3    3    0    0 -0.12407211001E+04  0.73984432389E+03  0.76301495458E+03  0.16336922271E+04  0.00000000000E+00 0.  1.
        -13    1    3    3    0    0 -0.23726387769E+03  0.18653673973E+03  0.17481714583E+03  0.34878523106E+03  0.00000000000E+00 0. -1.
         22    1    1    2    0    0  0.14779849778E+04 -0.92638106362E+03  0.19011304873E+04  0.25801005018E+04  0.00000000000E+00 0. -1.
<mgrwt>
<rscale>  0 0.35717515E+04</rscale>
<asrwt>0</asrwt>
<pdfrwt beam="1">  1        1 0.56934927E+00 0.35717515E+04</pdfrwt>
<pdfrwt beam="2">  1       -1 0.13258580E+00 0.35717515E+04</pdfrwt>
<totfact> 0.67265825E-02</totfact>
</mgrwt>
</event>
<event>
 6    1  0.1072514E-005  0.3723079E+04  0.7818608E-02  0.8062866E-01
          2   -1    0    0  501    0  0.00000000000E+00  0.00000000000E+00  0.20068117311E+04  0.20068117311E+04  0.00000000000E+00 0. -1.
         -2   -1    0    0    0  501 -0.00000000000E+00 -0.00000000000E+00 -0.17267831795E+04  0.17267831795E+04  0.00000000000E+00 0.  1.
         23    2    1    2    0    0  0.96209824813E+03  0.15714786211E+04 -0.11803173966E+03  0.18484874625E+04  0.88296724755E+02 0.  0.
         13    1    3    3    0    0  0.22670442633E+03  0.43372338678E+03 -0.10739864033E+02  0.48951631008E+03  0.00000000000E+00 0. -1.
        -13    1    3    3    0    0  0.73539382180E+03  0.11377552343E+04 -0.10729187563E+03  0.13589711524E+04  0.00000000000E+00 0.  1.
         22    1    1    2    0    0 -0.96209824813E+03 -0.15714786211E+04  0.39806029122E+03  0.18851074482E+04  0.00000000000E+00 0. -1.
<mgrwt>
<rscale>  0 0.37230787E+04</rscale>
<asrwt>0</asrwt>
<pdfrwt beam="1">  1        2 0.30874027E+00 0.37230787E+04</pdfrwt>
<pdfrwt beam="2">  1       -2 0.26565895E+00 0.37230787E+04</pdfrwt>
<totfact> 0.27534372E-01</totfact>
</mgrwt>
</event>
<event>
 6    1  0.1072514E-005  0.2820972E+04  0.7818608E-02  0.8296787E-01
         -2   -1    0    0    0  501 -0.00000000000E+00  0.00000000000E+00  0.68209517775E+03  0.68209517775E+03  0.00000000000E+00 0.  1.
          2   -1    0    0  501    0  0.00000000000E+00 -0.00000000000E+00 -0.29167052421E+04  0.29167052421E+04  0.00000000000E+00 0. -1.
         23    2    1    2    0    0  0.19566182945E+03  0.11350850651E+04 -0.83282858013E+02  0.11585319089E+04  0.92512123688E+02 0.  0.
         13    1    3    3    0    0  0.10983611849E+03  0.41608011338E+03 -0.67126662620E+01  0.43038551737E+03  0.00000000000E+00 0.  1.
        -13    1    3    3    0    0  0.85825710968E+02  0.71900495175E+03 -0.76570191751E+02  0.72814639158E+03  0.00000000000E+00 0. -1.
         22    1    1    2    0    0 -0.19566182945E+03 -0.11350850651E+04 -0.21513272063E+04  0.24402685109E+04  0.00000000000E+00 0. -1.
<mgrwt>
<rscale>  0 0.28209719E+04</rscale>
<asrwt>0</asrwt>
<pdfrwt beam="1">  1        2 0.44872388E+00 0.28209719E+04</pdfrwt>
<pdfrwt beam="2">  1       -2 0.10493772E+00 0.28209719E+04</pdfrwt>
<totfact> 0.12540393E+00</totfact>
</mgrwt>
</event>
<event>
 6    1  0.1072514E-005  0.3749463E+04  0.7818608E-02  0.8057088E-01
         -2   -1    0    0    0  501 -0.00000000000E+00  0.00000000000E+00  0.14272636983E+04  0.14272636983E+04  0.00000000000E+00 0.  1.
          2   -1    0    0  501    0  0.00000000000E+00 -0.00000000000E+00 -0.24624864186E+04  0.24624864186E+04  0.00000000000E+00 0. -1.
         23    2    1    2    0    0 -0.32241346705E+03  0.18372067365E+04 -0.33452772674E+03  0.18972008677E+04  0.90461573382E+02 0.  0.
         11    1    3    3    0    0 -0.20683733125E+03  0.12294606342E+04 -0.26580008841E+03  0.12747567688E+04  0.00000000000E+00 0. -1.
        -11    1    3    3    0    0 -0.11557613580E+03  0.60774610227E+03 -0.68727638335E+02  0.62244409890E+03  0.00000000000E+00 0.  1.
         22    1    1    2    0    0  0.32241346705E+03 -0.18372067365E+04 -0.70069499361E+03  0.19925492492E+04  0.00000000000E+00 0.  1.
<mgrwt>
<rscale>  0 0.37494626E+04</rscale>
<asrwt>0</asrwt>
<pdfrwt beam="1">  1        2 0.37884406E+00 0.37494626E+04</pdfrwt>
<pdfrwt beam="2">  1       -2 0.21957903E+00 0.37494626E+04</pdfrwt>
<totfact> 0.29300261E-01</totfact>
</mgrwt>
</event>
<event>
 6    1  0.1072514E-005  0.2666063E+04  0.7818608E-02  0.8346101E-01
         -1   -1    0    0    0  501 -0.00000000000E+00  0.00000000000E+00  0.15370886861E+04  0.15370886861E+04  0.00000000000E+00 0.  1.
          1   -1    0    0  501    0  0.00000000000E+00 -0.00000000000E+00 -0.11560637608E+04  0.11560637608E+04  0.00000000000E+00 0. -1.
         23    2    1    2    0    0  0.11657106594E+04  0.59606409235E+03  0.43536144206E+03  0.13827608258E+04  0.91182084751E+02 0.  0.
         11    1    3    3    0    0  0.36959238877E+03  0.23682717686E+03  0.15187197126E+03  0.46448976436E+03  0.00000000000E+00 0.  1.
        -11    1    3    3    0    0  0.79611827061E+03  0.35923691549E+03  0.28348947080E+03  0.91827106146E+03  0.00000000000E+00 0. -1.
         22    1    1    2    0    0 -0.11657106594E+04 -0.59606409235E+03 -0.54336516724E+02  0.13103916211E+04  0.00000000000E+00 0.  1.
<mgrwt>
<rscale>  0 0.26660627E+04</rscale>
<asrwt>0</asrwt>
<pdfrwt beam="1">  1        1 0.17785596E+00 0.26660627E+04</pdfrwt>
<pdfrwt beam="2">  1       -1 0.23647518E+00 0.26660627E+04</pdfrwt>
<totfact> 0.86220571E-01</totfact>
</mgrwt>
</event>
<event>
 6    1  0.1072514E-005  0.2550087E+04  0.7818608E-02  0.8385356E-01
          2   -1    0    0  501    0  0.00000000000E+00  0.00000000000E+00  0.22907944115E+04  0.22907944115E+04  0.00000000000E+00 0. -1.
         -2   -1    0    0    0  501 -0.00000000000E+00 -0.00000000000E+00 -0.70968230922E+03  0.70968230922E+03  0.00000000000E+00 0.  1.
         23    2    1    2    0    0 -0.17980711811E+03 -0.11909807815E+04  0.12787322699E+04  0.17586235149E+04  0.82671806014E+02 0.  0.
         13    1    3    3    0    0 -0.14234740962E+02 -0.25201663011E+03  0.23357431105E+03  0.34390691835E+03  0.00000000000E+00 0.  1.
        -13    1    3    3    0    0 -0.16557237715E+03 -0.93896415139E+03  0.10451579589E+04  0.14147165966E+04  0.00000000000E+00 0. -1.
         22    1    1    2    0    0  0.17980711811E+03  0.11909807815E+04  0.30237983232E+03  0.12418532057E+04  0.00000000000E+00 0.  1.
<mgrwt>
<rscale>  0 0.25500873E+04</rscale>
<asrwt>0</asrwt>
<pdfrwt beam="1">  1        2 0.35242991E+00 0.25500873E+04</pdfrwt>
<pdfrwt beam="2">  1       -2 0.10918189E+00 0.25500873E+04</pdfrwt>
<totfact> 0.27261326E+00</totfact>
</mgrwt>
</event>
<event>
 6    1  0.1072514E-005  0.3044159E+04  0.7818608E-02  0.8231232E-01
          1   -1    0    0  501    0  0.00000000000E+00  0.00000000000E+00  0.30380173043E+04  0.30380173043E+04  0.00000000000E+00 0. -1.
         -1   -1    0    0    0  501 -0.00000000000E+00 -0.00000000000E+00 -0.76257823844E+03  0.76257823844E+03  0.00000000000E+00 0.  1.
         23    2    1    2    0    0 -0.58705333866E+03  0.11541349439E+04  0.14317821767E+03  0.13059622198E+04  0.91532652076E+02 0.  0.
         13    1    3    3    0    0 -0.37958866150E+03  0.65046144171E+03  0.70602443763E+02  0.75642074546E+03  0.00000000000E+00 0.  1.
        -13    1    3    3    0    0 -0.20746467715E+03  0.50367350220E+03  0.72575773910E+02  0.54954147436E+03  0.00000000000E+00 0. -1.
         22    1    1    2    0    0  0.58705333866E+03 -0.11541349439E+04  0.21322608482E+04  0.24946333230E+04  0.00000000000E+00 0.  1.
<mgrwt>
<rscale>  0 0.30441589E+04</rscale>
<asrwt>0</asrwt>
<pdfrwt beam="1">  1        1 0.46738727E+00 0.30441589E+04</pdfrwt>
<pdfrwt beam="2">  1       -1 0.11731973E+00 0.30441589E+04</pdfrwt>
<totfact> 0.31068759E-01</totfact>
</mgrwt>
</event>
<event>
 6    1  0.1072514E-005  0.1681686E+04  0.7818608E-02  0.8771879E-01
         -2   -1    0    0    0  501 -0.00000000000E+00  0.00000000000E+00  0.60796528037E+03  0.60796528037E+03  0.00000000000E+00 0. -1.
          2   -1    0    0  501    0  0.00000000000E+00 -0.00000000000E+00 -0.11629228541E+04  0.11629228541E+04  0.00000000000E+00 0.  1.
         23    2    1    2    0    0 -0.17875903640E+03  0.78743548247E+03 -0.41373273992E+02  0.81392509176E+03  0.93556801211E+02 0.  0.
         13    1    3    3    0    0 -0.15028342372E+03  0.45883318894E+03 -0.15252759754E+02  0.48305863971E+03  0.00000000000E+00 0.  1.
        -13    1    3    3    0    0 -0.28475612683E+02  0.32860229352E+03 -0.26120514238E+02  0.33086645205E+03  0.00000000000E+00 0. -1.
         22    1    1    2    0    0  0.17875903640E+03 -0.78743548247E+03 -0.51358429968E+03  0.95696304266E+03  0.00000000000E+00 0.  1.
<mgrwt>
<rscale>  0 0.16816857E+04</rscale>
<asrwt>0</asrwt>
<pdfrwt beam="1">  1        2 0.17891121E+00 0.16816857E+04</pdfrwt>
<pdfrwt beam="2">  1       -2 0.93533120E-01 0.16816857E+04</pdfrwt>
<totfact> 0.18367041E+01</totfact>
</mgrwt>
</event>
<event>
 6    1  0.1072514E-005  0.8824790E+03  0.7818608E-02  0.9447752E-01
          1   -1    0    0  501    0  0.00000000000E+00  0.00000000000E+00  0.12525531410E+04  0.12525531410E+04  0.00000000000E+00 0. -1.
         -1   -1    0    0    0  501 -0.00000000000E+00 -0.00000000000E+00 -0.15543636222E+03  0.15543636222E+03  0.00000000000E+00 0.  1.
         23    2    1    2    0    0 -0.25082169142E+03  0.34909049948E+03  0.67346152158E+03  0.80445037883E+03  0.93884467474E+02 0.  0.
         11    1    3    3    0    0 -0.15552633965E+03  0.16117869495E+03  0.28447686636E+03  0.36206919439E+03  0.00000000000E+00 0. -1.
        -11    1    3    3    0    0 -0.95295351776E+02  0.18791180453E+03  0.38898465522E+03  0.44238118444E+03  0.00000000000E+00 0.  1.
         22    1    1    2    0    0  0.25082169142E+03 -0.34909049948E+03  0.42365525718E+03  0.60353912437E+03  0.00000000000E+00 0. -1.
<mgrwt>
<rscale>  0 0.88247902E+03</rscale>
<asrwt>0</asrwt>
<pdfrwt beam="1">  1        1 0.19270048E+00 0.88247902E+03</pdfrwt>
<pdfrwt beam="2">  1       -1 0.23913287E-01 0.88247902E+03</pdfrwt>
<totfact> 0.14904759E+02</totfact>
</mgrwt>
</event>
<event>
 6    1  0.1072514E-005  0.1659328E+04  0.7818608E-02  0.8784907E-01
         -1   -1    0    0    0  501 -0.00000000000E+00  0.00000000000E+00  0.88166319906E+03  0.88166319906E+03  0.00000000000E+00 0.  1.
          1   -1    0    0  501    0  0.00000000000E+00 -0.00000000000E+00 -0.78073176292E+03  0.78073176292E+03  0.00000000000E+00 0. -1.
         23    2    1    2    0    0 -0.37459480171E+03  0.29937213899E+02  0.78889860195E+03  0.87848404645E+03  0.90308988818E+02 0.  0.
         11    1    3    3    0    0 -0.24574557014E+03  0.60290645757E+02  0.48609089489E+03  0.54800566174E+03  0.00000000000E+00 0.  1.
        -11    1    3    3    0    0 -0.12884923158E+03 -0.30353431857E+02  0.30280770706E+03  0.33047838471E+03  0.00000000000E+00 0. -1.
         22    1    1    2    0    0  0.37459480171E+03 -0.29937213899E+02 -0.68796716581E+03  0.78391091553E+03  0.00000000000E+00 0. -1.
<mgrwt>
<rscale>  0 0.16593281E+04</rscale>
<asrwt>0</asrwt>
<pdfrwt beam="1">  1        1 0.12011258E+00 0.16593281E+04</pdfrwt>
<pdfrwt beam="2">  1       -1 0.13564049E+00 0.16593281E+04</pdfrwt>
<totfact> 0.99910286E+00</totfact>
</mgrwt>
</event>
<event>
 6    1  0.1072514E-005  0.2380903E+04  0.7818608E-02  0.8446688E-01
         -1   -1    0    0    0  501 -0.00000000000E+00  0.00000000000E+00  0.16671595014E+04  0.16671595014E+04  0.00000000000E+00 0.  1.
          1   -1    0    0  501    0  0.00000000000E+00 -0.00000000000E+00 -0.85005342853E+03  0.85005342853E+03  0.00000000000E+00 0. -1.
         23    2    1    2    0    0  0.26508675986E+03  0.11290337182E+04  0.13325886240E+03  0.11708715414E+04  0.90521351887E+02 0.  0.
         13    1    3    3    0    0  0.43549022438E+02  0.18181940695E+03  0.55335940531E+02  0.19497917943E+03  0.00000000000E+00 0.  1.
        -13    1    3    3    0    0  0.22153773742E+03  0.94721431122E+03  0.77922921874E+02  0.97589236202E+03  0.00000000000E+00 0. -1.
         22    1    1    2    0    0 -0.26508675986E+03 -0.11290337182E+04  0.68384721042E+03  0.13463413884E+04  0.00000000000E+00 0.  1.
<mgrwt>
<rscale>  0 0.23809029E+04</rscale>
<asrwt>0</asrwt>
<pdfrwt beam="1">  1        1 0.13077745E+00 0.23809029E+04</pdfrwt>
<pdfrwt beam="2">  1       -1 0.25648608E+00 0.23809029E+04</pdfrwt>
<totfact> 0.11368037E+00</totfact>
</mgrwt>
</event>
<event>
 6    1  0.1072514E-005  0.1015207E+04  0.7818608E-02  0.9292021E-01
         -2   -1    0    0    0  501 -0.00000000000E+00  0.00000000000E+00  0.11678196209E+03  0.11678196209E+03  0.00000000000E+00 0.  1.
          2   -1    0    0  501    0  0.00000000000E+00 -0.00000000000E+00 -0.22063462555E+04  0.22063462555E+04  0.00000000000E+00 0. -1.
         23    2    1    2    0    0 -0.14554629272E+03 -0.48160031787E+03 -0.10828941368E+04  0.11977361110E+04  0.93752282319E+02 0.  0.
         11    1    3    3    0    0 -0.39797932859E+02 -0.26451492610E+03 -0.50624343398E+03  0.57256828067E+03  0.00000000000E+00 0.  1.
        -11    1    3    3    0    0 -0.10574835986E+03 -0.21708539176E+03 -0.57665070285E+03  0.62516783029E+03  0.00000000000E+00 0. -1.
         22    1    1    2    0    0  0.14554629272E+03  0.48160031787E+03 -0.10066701565E+04  0.11253921066E+04  0.00000000000E+00 0.  1.
<mgrwt>
<rscale>  0 0.10152073E+04</rscale>
<asrwt>0</asrwt>
<pdfrwt beam="1">  1        2 0.33943789E+00 0.10152073E+04</pdfrwt>
<pdfrwt beam="2">  1       -2 0.17966455E-01 0.10152073E+04</pdfrwt>
<totfact> 0.13253458E+02</totfact>
</mgrwt>
</event>
<event>
 6    1  0.1072514E-005  0.1355888E+04  0.7818608E-02  0.8986383E-01
         -1   -1    0    0    0  501 -0.00000000000E+00  0.00000000000E+00  0.14231140795E+03  0.14231140795E+03  0.00000000000E+00 0.  1.
          1   -1    0    0  501    0  0.00000000000E+00 -0.00000000000E+00 -0.32295949048E+04  0.32295949048E+04  0.00000000000E+00 0. -1.
         23    2    1    2    0    0 -0.30255839199E+03  0.43734663326E+03 -0.25841263774E+04  0.26397992543E+04  0.89539434688E+02 0.  0.
         13    1    3    3    0    0 -0.17981764789E+03  0.25042275053E+03 -0.17069643643E+04  0.17345815869E+04  0.00000000000E+00 0. -1.
        -13    1    3    3    0    0 -0.12274074410E+03  0.18692388273E+03 -0.87716201309E+03  0.90521766742E+03  0.00000000000E+00 0.  1.
         22    1    1    2    0    0  0.30255839199E+03 -0.43734663326E+03 -0.50315711945E+03  0.73210705846E+03  0.00000000000E+00 0.  1.
<mgrwt>
<rscale>  0 0.13558882E+04</rscale>
<asrwt>0</asrwt>
<pdfrwt beam="1">  1        1 0.49686075E+00 0.13558882E+04</pdfrwt>
<pdfrwt beam="2">  1       -1 0.21894063E-01 0.13558882E+04</pdfrwt>
<totfact> 0.70213067E+00</totfact>
</mgrwt>
</event>
<event>
 6    1  0.1072514E-005  0.1277173E+04  0.7818608E-02  0.9047865E-01
          2   -1    0    0  501    0  0.00000000000E+00  0.00000000000E+00  0.14054330569E+04  0.14054330569E+04  0.00000000000E+00 0. -1.
         -2   -1    0    0    0  501 -0.00000000000E+00 -0.00000000000E+00 -0.29015471614E+03  0.29015471614E+03  0.00000000000E+00 0.  1.
         23    2    1    2    0    0 -0.31381844007E+03  0.27307763940E+03 -0.73978277470E+02  0.43567320670E+03  0.10623063134E+03 0.  0.
         11    1    3    3    0    0 -0.11753742131E+03  0.78656196658E+02 -0.73531965462E+02  0.15940135704E+03  0.00000000000E+00 0. -1.
        -11    1    3    3    0    0 -0.19628101876E+03  0.19442144274E+03 -0.44631200782E+00  0.27627184967E+03  0.00000000000E+00 0.  1.
         22    1    1    2    0    0  0.31381844007E+03 -0.27307763940E+03  0.11892566183E+04  0.12599145664E+04  0.00000000000E+00 0. -1.
<mgrwt>
<rscale>  0 0.12771735E+04</rscale>
<asrwt>0</asrwt>
<pdfrwt beam="1">  1        2 0.21622047E+00 0.12771735E+04</pdfrwt>
<pdfrwt beam="2">  1       -2 0.44639188E-01 0.12771735E+04</pdfrwt>
<totfact> 0.67098684E+01</totfact>
</mgrwt>
</event>
<event>
 6    1  0.1072514E-005  0.2195183E+04  0.7818608E-02  0.8520436E-01
         -2   -1    0    0    0  501 -0.00000000000E+00  0.00000000000E+00  0.14828023620E+04  0.14828023620E+04  0.00000000000E+00 0.  1.
          2   -1    0    0  501    0  0.00000000000E+00 -0.00000000000E+00 -0.81245294497E+03  0.81245294497E+03  0.00000000000E+00 0. -1.
         23    2    1    2    0    0  0.51561806216E+03 -0.32132628101E+03  0.12891479087E+04  0.14280620539E+04  0.91358274872E+02 0.  0.
         11    1    3    3    0    0  0.31814032771E+03 -0.16610509416E+03  0.83985814867E+03  0.91332682010E+03  0.00000000000E+00 0. -1.
        -11    1    3    3    0    0  0.19747773445E+03 -0.15522118685E+03  0.44928976007E+03  0.51473523384E+03  0.00000000000E+00 0.  1.
         22    1    1    2    0    0 -0.51561806216E+03  0.32132628101E+03 -0.61879849166E+03  0.86719325307E+03  0.00000000000E+00 0. -1.
<mgrwt>
<rscale>  0 0.21951830E+04</rscale>
<asrwt>0</asrwt>
<pdfrwt beam="1">  1        2 0.12499276E+00 0.21951830E+04</pdfrwt>
<pdfrwt beam="2">  1       -2 0.22812344E+00 0.21951830E+04</pdfrwt>
<totfact> 0.27094266E+00</totfact>
</mgrwt>
</event>
<event>
 6    1  0.1072514E-005  0.5267232E+04  0.7818608E-02  0.7788556E-01
         -2   -1    0    0    0  501 -0.00000000000E+00  0.00000000000E+00  0.24671155580E+04  0.24671155580E+04  0.00000000000E+00 0.  1.
          2   -1    0    0  501    0  0.00000000000E+00 -0.00000000000E+00 -0.28113530752E+04  0.28113530752E+04  0.00000000000E+00 0. -1.
         23    2    1    2    0    0  0.11951499454E+04  0.14124243180E+04 -0.20492102138E+04  0.27624682869E+04  0.92966065469E+02 0.  0.
         11    1    3    3    0    0  0.75953496921E+03  0.87893831053E+03 -0.12212942974E+04  0.16855223772E+04  0.00000000000E+00 0.  1.
        -11    1    3    3    0    0  0.43561497622E+03  0.53348600750E+03 -0.82791591641E+03  0.10769459097E+04  0.00000000000E+00 0. -1.
         22    1    1    2    0    0 -0.11951499454E+04 -0.14124243180E+04  0.17049726966E+04  0.25160003463E+04  0.00000000000E+00 0.  1.
<mgrwt>
<rscale>  0 0.52672319E+04</rscale>
<asrwt>0</asrwt>
<pdfrwt beam="1">  1        2 0.43251586E+00 0.52672319E+04</pdfrwt>
<pdfrwt beam="2">  1       -2 0.37955624E+00 0.52672319E+04</pdfrwt>
<totfact> 0.16355049E-02</totfact>
</mgrwt>
</event>
<event>
 6    1  0.1072514E-005  0.2694876E+04  0.7818608E-02  0.8336669E-01
          2   -1    0    0  501    0  0.00000000000E+00  0.00000000000E+00  0.17689407557E+04  0.17689407557E+04  0.00000000000E+00 0. -1.
         -2   -1    0    0    0  501 -0.00000000000E+00 -0.00000000000E+00 -0.10263709154E+04  0.10263709154E+04  0.00000000000E+00 0.  1.
         23    2    1    2    0    0  0.63878885930E+02 -0.13313397956E+04  0.56401982971E+03  0.14505342658E+04  0.96876852313E+02 0.  0.
         11    1    3    3    0    0  0.46717493635E+01 -0.79868024871E+03  0.30096827566E+03  0.85351852229E+03  0.00000000000E+00 0. -1.
        -11    1    3    3    0    0  0.59207136566E+02 -0.53265954691E+03  0.26305155405E+03  0.59701574353E+03  0.00000000000E+00 0.  1.
         22    1    1    2    0    0 -0.63878885930E+02  0.13313397956E+04  0.17855001067E+03  0.13447774053E+04  0.00000000000E+00 0.  1.
<mgrwt>
<rscale>  0 0.26948761E+04</rscale>
<asrwt>0</asrwt>
<pdfrwt beam="1">  1        2 0.27214473E+00 0.26948761E+04</pdfrwt>
<pdfrwt beam="2">  1       -2 0.15790322E+00 0.26948761E+04</pdfrwt>
<totfact> 0.20577231E+00</totfact>
</mgrwt>
</event>
<event>
 6    1  0.1072514E-005  0.1596075E+04  0.7818608E-02  0.8822963E-01
          1   -1    0    0  501    0  0.00000000000E+00  0.00000000000E+00  0.54380739229E+03  0.54380739229E+03  0.00000000000E+00 0. -1.
         -1   -1    0    0    0  501 -0.00000000000E+00 -0.00000000000E+00 -0.11711199305E+04  0.11711199305E+04  0.00000000000E+00 0.  1.
         23    2    1    2    0    0  0.50947728533E+03  0.28166666876E+03  0.26773994045E+03  0.64720912208E+03  0.91059076614E+02 0.  0.
         11    1    3    3    0    0  0.26036289774E+03  0.19244787536E+03  0.16464452399E+03  0.36322560831E+03  0.00000000000E+00 0.  1.
        -11    1    3    3    0    0  0.24911438759E+03  0.89218793401E+02  0.10309541646E+03  0.28398351377E+03  0.00000000000E+00 0. -1.
         22    1    1    2    0    0 -0.50947728533E+03 -0.28166666876E+03 -0.89505247864E+03  0.10677182007E+04  0.00000000000E+00 0.  1.
<mgrwt>
<rscale>  0 0.15960748E+04</rscale>
<asrwt>0</asrwt>
<pdfrwt beam="1">  1        1 0.83662676E-01 0.15960748E+04</pdfrwt>
<pdfrwt beam="2">  1       -1 0.18017230E+00 0.15960748E+04</pdfrwt>
<totfact> 0.78500515E+00</totfact>
</mgrwt>
</event>
<event>
 6    1  0.1072514E-005  0.2089270E+04  0.7818608E-02  0.8565985E-01
         -1   -1    0    0    0  501 -0.00000000000E+00  0.00000000000E+00  0.15758048237E+04  0.15758048237E+04  0.00000000000E+00 0.  1.
          1   -1    0    0  501    0  0.00000000000E+00 -0.00000000000E+00 -0.69251124417E+03  0.69251124417E+03  0.00000000000E+00 0. -1.
         23    2    1    2    0    0  0.40507909819E+03  0.11151160691E+03  0.14785259392E+04  0.15397383601E+04  0.90726790256E+02 0.  0.
         11    1    3    3    0    0  0.15129396757E+03  0.14232114079E+01  0.45554386878E+03  0.48001261081E+03  0.00000000000E+00 0. -1.
        -11    1    3    3    0    0  0.25378513062E+03  0.11008839550E+03  0.10229820704E+04  0.10597257493E+04  0.00000000000E+00 0.  1.
         22    1    1    2    0    0 -0.40507909819E+03 -0.11151160691E+03 -0.59523235965E+03  0.72857770776E+03  0.00000000000E+00 0. -1.
<mgrwt>
<rscale>  0 0.20892703E+04</rscale>
<asrwt>0</asrwt>
<pdfrwt beam="1">  1        1 0.10654019E+00 0.20892703E+04</pdfrwt>
<pdfrwt beam="2">  1       -1 0.24243151E+00 0.20892703E+04</pdfrwt>
<totfact> 0.19920236E+00</totfact>
</mgrwt>
</event>
<event>
 6    1  0.1072514E-005  0.2371673E+04  0.7818608E-02  0.8450185E-01
          1   -1    0    0  501    0  0.00000000000E+00  0.00000000000E+00  0.19489800218E+04  0.19489800218E+04  0.00000000000E+00 0. -1.
         -1   -1    0    0    0  501 -0.00000000000E+00 -0.00000000000E+00 -0.72151008982E+03  0.72151008982E+03  0.00000000000E+00 0.  1.
         23    2    1    2    0    0  0.96021580163E+03 -0.24642678550E+03  0.13436421282E+04  0.16723736227E+04  0.93374616239E+02 0.  0.
         13    1    3    3    0    0  0.42779499948E+03 -0.15470163145E+03  0.64191001018E+03  0.78675893228E+03  0.00000000000E+00 0. -1.
        -13    1    3    3    0    0  0.53242080216E+03 -0.91725154049E+02  0.70173211801E+03  0.88561469043E+03  0.00000000000E+00 0.  1.
         22    1    1    2    0    0 -0.96021580163E+03  0.24642678550E+03 -0.11617219620E+03  0.99811648894E+03  0.00000000000E+00 0.  1.
<mgrwt>
<rscale>  0 0.23716735E+04</rscale>
<asrwt>0</asrwt>
<pdfrwt beam="1">  1        1 0.29984308E+00 0.23716735E+04</pdfrwt>
<pdfrwt beam="2">  1       -1 0.11100155E+00 0.23716735E+04</pdfrwt>
<totfact> 0.21651713E+00</totfact>
</mgrwt>
</event>
<event>
 6    1  0.1072514E-005  0.1769104E+04  0.7818608E-02  0.8722904E-01
          2   -1    0    0  501    0  0.00000000000E+00  0.00000000000E+00  0.31490413652E+04  0.31490413652E+04  0.00000000000E+00 0.  1.
         -2   -1    0    0    0  501 -0.00000000000E+00 -0.00000000000E+00 -0.24846689083E+03  0.24846689083E+03  0.00000000000E+00 0. -1.
         23    2    1    2    0    0  0.43630400529E+03 -0.93739894219E+02  0.29156105389E+04  0.29509946100E+04  0.91847813745E+02 0.  0.
         13    1    3    3    0    0  0.33350558994E+03 -0.10315427562E+03  0.23878521783E+04  0.24132353405E+04  0.00000000000E+00 0. -1.
        -13    1    3    3    0    0  0.10279841535E+03  0.94143813995E+01  0.52775836060E+03  0.53775926953E+03  0.00000000000E+00 0.  1.
         22    1    1    2    0    0 -0.43630400529E+03  0.93739894219E+02 -0.15036064599E+02  0.44651364597E+03  0.00000000000E+00 0. -1.
<mgrwt>
<rscale>  0 0.17691043E+04</rscale>
<asrwt>0</asrwt>
<pdfrwt beam="1">  1        2 0.48446787E+00 0.17691043E+04</pdfrwt>
<pdfrwt beam="2">  1       -2 0.38225678E-01 0.17691043E+04</pdfrwt>
<totfact> 0.86044888E+00</totfact>
</mgrwt>
</event>
<event>
 6    1  0.1072514E-005  0.1597173E+04  0.7818608E-02  0.8822287E-01
          1   -1    0    0  501    0  0.00000000000E+00  0.00000000000E+00  0.67048524276E+03  0.67048524276E+03  0.00000000000E+00 0. -1.
         -1   -1    0    0    0  501 -0.00000000000E+00 -0.00000000000E+00 -0.95116229621E+03  0.95116229621E+03  0.00000000000E+00 0.  1.
         23    2    1    2    0    0 -0.80667270720E+02 -0.76021848029E+03 -0.36565521043E+03  0.85245274342E+03  0.92372076523E+02 0.  0.
         13    1    3    3    0    0 -0.41391227814E+02 -0.37003722197E+03 -0.12710051751E+03  0.39344036515E+03  0.00000000000E+00 0.  1.
        -13    1    3    3    0    0 -0.39276042907E+02 -0.39018125832E+03 -0.23855469292E+03  0.45901237827E+03  0.00000000000E+00 0. -1.
         22    1    1    2    0    0  0.80667270720E+02  0.76021848029E+03  0.84978156968E+02  0.76919479555E+03  0.00000000000E+00 0. -1.
<mgrwt>
<rscale>  0 0.15971729E+04</rscale>
<asrwt>0</asrwt>
<pdfrwt beam="1">  1        1 0.10315158E+00 0.15971729E+04</pdfrwt>
<pdfrwt beam="2">  1       -1 0.14633266E+00 0.15971729E+04</pdfrwt>
<totfact> 0.10407146E+01</totfact>
</mgrwt>
</event>
<event>
 6    1  0.1072514E-005  0.2648493E+03  0.7818608E-02  0.1104264E+00
          2   -1    0    0  501    0  0.00000000000E+00  0.00000000000E+00  0.17982021235E+03  0.17982021235E+03  0.00000000000E+00 0. -1.
         -2   -1    0    0    0  501 -0.00000000000E+00 -0.00000000000E+00 -0.97521245459E+02  0.97521245459E+02  0.00000000000E+00 0.  1.
         23    2    1    2    0    0 -0.11767441054E+02 -0.72992588057E+02  0.13953637039E+03  0.18384006242E+03  0.94129587838E+02 0.  0.
         13    1    3    3    0    0  0.34968432587E+02 -0.51453306983E+02  0.47044874567E+02  0.77996501846E+02  0.00000000000E+00 0. -1.
        -13    1    3    3    0    0 -0.46735873641E+02 -0.21539281073E+02  0.92491495824E+02  0.10584356057E+03  0.00000000000E+00 0.  1.
         22    1    1    2    0    0  0.11767441054E+02  0.72992588057E+02 -0.57237403504E+02  0.93501395391E+02  0.00000000000E+00 0.  1.
<mgrwt>
<rscale>  0 0.26484932E+03</rscale>
<asrwt>0</asrwt>
<pdfrwt beam="1">  1        2 0.27664648E-01 0.26484932E+03</pdfrwt>
<pdfrwt beam="2">  1       -2 0.15003269E-01 0.26484932E+03</pdfrwt>
<totfact> 0.65033549E+03</totfact>
</mgrwt>
</event>
<event>
 6    1  0.1072514E-005  0.7917244E+03  0.7818608E-02  0.9572073E-01
         -4   -1    0    0    0  501 -0.00000000000E+00  0.00000000000E+00  0.17575520399E+04  0.17575520399E+04  0.00000000000E+00 0.  1.
          4   -1    0    0  501    0  0.00000000000E+00 -0.00000000000E+00 -0.89162025440E+02  0.89162025440E+02  0.00000000000E+00 0. -1.
         23    2    1    2    0    0 -0.24968326724E+03 -0.83320100154E+01  0.15456255252E+04  0.15683576820E+04  0.91522664842E+02 0.  0.
         11    1    3    3    0    0 -0.85013143346E+02 -0.27984425770E+01  0.81279213734E+03  0.81723076566E+03  0.00000000000E+00 0. -1.
        -11    1    3    3    0    0 -0.16467012389E+03 -0.55335674384E+01  0.73283338786E+03  0.75112691633E+03  0.00000000000E+00 0.  1.
         22    1    1    2    0    0  0.24968326724E+03  0.83320100154E+01  0.12276448927E+03  0.27835638336E+03  0.00000000000E+00 0. -1.
<mgrwt>
<rscale>  0 0.79172445E+03</rscale>
<asrwt>0</asrwt>
<pdfrwt beam="1">  1        4 0.13717236E-01 0.79172445E+03</pdfrwt>
<pdfrwt beam="2">  1       -4 0.27039260E+00 0.79172445E+03</pdfrwt>
<totfact> 0.43922976E+00</totfact>
</mgrwt>
</event>
<event>
 6    1  0.1072514E-005  0.1970302E+04  0.7818608E-02  0.8620633E-01
         -2   -1    0    0    0  501 -0.00000000000E+00  0.00000000000E+00  0.27493826578E+03  0.27493826578E+03  0.00000000000E+00 0.  1.
          2   -1    0    0  501    0  0.00000000000E+00 -0.00000000000E+00 -0.35299645028E+04  0.35299645028E+04  0.00000000000E+00 0. -1.
         23    2    1    2    0    0 -0.59779283545E+03 -0.28756840448E+02 -0.12516566519E+03  0.61833558285E+03  0.92136959415E+02 0.  0.
         13    1    3    3    0    0 -0.37602359506E+03 -0.51428406625E+02 -0.48574422724E+02  0.38262004599E+03  0.00000000000E+00 0.  1.
        -13    1    3    3    0    0 -0.22176924039E+03  0.22671566177E+02 -0.76591242464E+02  0.23571553686E+03  0.00000000000E+00 0. -1.
         22    1    1    2    0    0  0.59779283545E+03  0.28756840448E+02 -0.31298605718E+04  0.31865671857E+04  0.00000000000E+00 0. -1.
<mgrwt>
<rscale>  0 0.19703018E+04</rscale>
<asrwt>0</asrwt>
<pdfrwt beam="1">  1        2 0.54307146E+00 0.19703018E+04</pdfrwt>
<pdfrwt beam="2">  1       -2 0.42298195E-01 0.19703018E+04</pdfrwt>
<totfact> 0.38449924E+00</totfact>
</mgrwt>
</event>
<event>
 6    1  0.1072514E-005  0.3214515E+04  0.7818608E-02  0.8184994E-01
          1   -1    0    0  501    0  0.00000000000E+00  0.00000000000E+00  0.21628537343E+04  0.21628537343E+04  0.00000000000E+00 0. -1.
         -1   -1    0    0    0  501 -0.00000000000E+00 -0.00000000000E+00 -0.11943831373E+04  0.11943831373E+04  0.00000000000E+00 0.  1.
         23    2    1    2    0    0  0.76415222860E+03 -0.75572517688E+03  0.17309707008E+04  0.20394904697E+04  0.90623603991E+02 0.  0.
         11    1    3    3    0    0  0.10743711731E+03 -0.14818788160E+03  0.26410966087E+03  0.32133517609E+03  0.00000000000E+00 0. -1.
        -11    1    3    3    0    0  0.65671511129E+03 -0.60753729528E+03  0.14668610399E+04  0.17181552936E+04  0.00000000000E+00 0.  1.
         22    1    1    2    0    0 -0.76415222860E+03  0.75572517688E+03 -0.76250010374E+03  0.13177464019E+04  0.00000000000E+00 0.  1.
<mgrwt>
<rscale>  0 0.32145146E+04</rscale>
<asrwt>0</asrwt>
<pdfrwt beam="1">  1        1 0.33274673E+00 0.32145146E+04</pdfrwt>
<pdfrwt beam="2">  1       -1 0.18375125E+00 0.32145146E+04</pdfrwt>
<totfact> 0.37750869E-01</totfact>
</mgrwt>
</event>
<event>
 6    1  0.1072514E-005  0.2613303E+04  0.7818608E-02  0.8363697E-01
          1   -1    0    0  501    0  0.00000000000E+00  0.00000000000E+00  0.33519222861E+04  0.33519222861E+04  0.00000000000E+00 0. -1.
         -1   -1    0    0    0  501 -0.00000000000E+00 -0.00000000000E+00 -0.50936070261E+03  0.50936070261E+03  0.00000000000E+00 0.  1.
         23    2    1    2    0    0  0.96498256470E+03  0.11495881998E+03  0.13656165612E+03  0.98607125957E+03  0.96335676430E+02 0.  0.
         13    1    3    3    0    0  0.13401053984E+03  0.41171093144E+01  0.50756245133E+02  0.14335958914E+03  0.00000000000E+00 0.  1.
        -13    1    3    3    0    0  0.83097202486E+03  0.11084171066E+03  0.85805410985E+02  0.84271167043E+03  0.00000000000E+00 0. -1.
         22    1    1    2    0    0 -0.96498256470E+03 -0.11495881998E+03  0.27059999273E+04  0.28752117291E+04  0.00000000000E+00 0. -1.
<mgrwt>
<rscale>  0 0.26133025E+04</rscale>
<asrwt>0</asrwt>
<pdfrwt beam="1">  1        1 0.51568034E+00 0.26133025E+04</pdfrwt>
<pdfrwt beam="2">  1       -1 0.78363187E-01 0.26133025E+04</pdfrwt>
<totfact> 0.46736262E-01</totfact>
</mgrwt>
</event>
<event>
 6    1  0.1072514E-005  0.2352900E+04  0.7818608E-02  0.8457351E-01
          1   -1    0    0  501    0  0.00000000000E+00  0.00000000000E+00  0.14975573225E+04  0.14975573225E+04  0.00000000000E+00 0. -1.
         -1   -1    0    0    0  501 -0.00000000000E+00 -0.00000000000E+00 -0.92419478949E+03  0.92419478949E+03  0.00000000000E+00 0.  1.
         23    2    1    2    0    0 -0.76832585429E+03 -0.33113847512E+03  0.11358111186E+04  0.14136222992E+04  0.91015382126E+02 0.  0.
         13    1    3    3    0    0 -0.30999016381E+03 -0.11576809926E+03  0.51957968961E+03  0.61600260415E+03  0.00000000000E+00 0.  1.
        -13    1    3    3    0    0 -0.45833569048E+03 -0.21537037586E+03  0.61623142896E+03  0.79761969510E+03  0.00000000000E+00 0. -1.
         22    1    1    2    0    0  0.76832585429E+03  0.33113847512E+03 -0.56244858551E+03  0.10081298128E+04  0.00000000000E+00 0.  1.
<mgrwt>
<rscale>  0 0.23529001E+04</rscale>
<asrwt>0</asrwt>
<pdfrwt beam="1">  1        1 0.23039343E+00 0.23529001E+04</pdfrwt>
<pdfrwt beam="2">  1       -1 0.14218381E+00 0.23529001E+04</pdfrwt>
<totfact> 0.23781688E+00</totfact>
</mgrwt>
</event>
<event>
 6    1  0.1072514E-005  0.2218058E+04  0.7818608E-02  0.8510949E-01
          2   -1    0    0  501    0  0.00000000000E+00  0.00000000000E+00  0.13691177594E+04  0.13691177594E+04  0.00000000000E+00 0. -1.
         -2   -1    0    0    0  501 -0.00000000000E+00 -0.00000000000E+00 -0.89834915806E+03  0.89834915806E+03  0.00000000000E+00 0.  1.
         23    2    1    2    0    0  0.10351978720E+04 -0.31604086495E+03 -0.21470444414E+01  0.10862956045E+04  0.92287962034E+02 0.  0.
         11    1    3    3    0    0  0.30696569226E+03 -0.13728335930E+03 -0.97269565123E+01  0.33640640696E+03  0.00000000000E+00 0. -1.
        -11    1    3    3    0    0  0.72823217978E+03 -0.17875750565E+03  0.75799120710E+01  0.74988919752E+03  0.00000000000E+00 0.  1.
         22    1    1    2    0    0 -0.10351978720E+04  0.31604086495E+03  0.47291564578E+03  0.11811713130E+04  0.00000000000E+00 0.  1.
<mgrwt>
<rscale>  0 0.22180584E+04</rscale>
<asrwt>0</asrwt>
<pdfrwt beam="1">  1        2 0.21063350E+00 0.22180584E+04</pdfrwt>
<pdfrwt beam="2">  1       -2 0.13820756E+00 0.22180584E+04</pdfrwt>
<totfact> 0.51102898E+00</totfact>
</mgrwt>
</event>
<event>
 6    1  0.1072514E-005  0.2054415E+04  0.7818608E-02  0.8581594E-01
         -2   -1    0    0    0  501 -0.00000000000E+00  0.00000000000E+00  0.51373991824E+03  0.51373991824E+03  0.00000000000E+00 0.  1.
          2   -1    0    0  501    0  0.00000000000E+00 -0.00000000000E+00 -0.20538711121E+04  0.20538711121E+04  0.00000000000E+00 0. -1.
         23    2    1    2    0    0  0.52146413376E+03 -0.44037246496E+03  0.18438459403E+03  0.71293923905E+03  0.91825537671E+02 0.  0.
         11    1    3    3    0    0  0.64919521161E+02 -0.74522052369E+02  0.57322134952E+02  0.11425369873E+03  0.00000000000E+00 0. -1.
        -11    1    3    3    0    0  0.45654461260E+03 -0.36585041259E+03  0.12706245908E+03  0.59868554033E+03  0.00000000000E+00 0.  1.
         22    1    1    2    0    0 -0.52146413376E+03  0.44037246496E+03 -0.17245157879E+04  0.18546717913E+04  0.00000000000E+00 0. -1.
<mgrwt>
<rscale>  0 0.20544153E+04</rscale>
<asrwt>0</asrwt>
<pdfrwt beam="1">  1        2 0.31598017E+00 0.20544153E+04</pdfrwt>
<pdfrwt beam="2">  1       -2 0.79036911E-01 0.20544153E+04</pdfrwt>
<totfact> 0.81913611E+00</totfact>
</mgrwt>
</event>
<event>
 6    1  0.1072514E-005  0.4024992E+04  0.7818608E-02  0.7999524E-01
          1   -1    0    0  501    0  0.00000000000E+00  0.00000000000E+00  0.22794016647E+04  0.22794016647E+04  0.00000000000E+00 0. -1.
         -1   -1    0    0    0  501 -0.00000000000E+00 -0.00000000000E+00 -0.17768433158E+04  0.17768433158E+04  0.00000000000E+00 0.  1.
         23    2    1    2    0    0  0.88762145060E+03  0.17272647725E+04 -0.27614735412E+03  0.19639500668E+04  0.97606709425E+02 0.  0.
         11    1    3    3    0    0  0.32729762386E+03  0.69083302340E+03 -0.14994971745E+03  0.77901150092E+03  0.00000000000E+00 0.  1.
        -11    1    3    3    0    0  0.56032382673E+03  0.10364317491E+04 -0.12619763668E+03  0.11849385659E+04  0.00000000000E+00 0. -1.
         22    1    1    2    0    0 -0.88762145060E+03 -0.17272647725E+04  0.77870570307E+03  0.20922949137E+04  0.00000000000E+00 0.  1.
<mgrwt>
<rscale>  0 0.40249917E+04</rscale>
<asrwt>0</asrwt>
<pdfrwt beam="1">  1        1 0.35067718E+00 0.40249917E+04</pdfrwt>
<pdfrwt beam="2">  1       -1 0.27336051E+00 0.40249917E+04</pdfrwt>
<totfact> 0.73796938E-02</totfact>
</mgrwt>
</event>
<event>
 6    1  0.1072514E-005  0.1804157E+04  0.7818608E-02  0.8704092E-01
          2   -1    0    0  501    0  0.00000000000E+00  0.00000000000E+00  0.86928637085E+03  0.86928637085E+03  0.00000000000E+00 0. -1.
         -2   -1    0    0    0  501 -0.00000000000E+00 -0.00000000000E+00 -0.93610773227E+03  0.93610773227E+03  0.00000000000E+00 0.  1.
         23    2    1    2    0    0 -0.18678691067E+03  0.34534924988E+03  0.77695930103E+03  0.87473774295E+03  0.85702445088E+02 0.  0.
         13    1    3    3    0    0 -0.13862169910E+02  0.43838480958E+02  0.16144767475E+03  0.16786698261E+03  0.00000000000E+00 0.  1.
        -13    1    3    3    0    0 -0.17292474076E+03  0.30151076892E+03  0.61551162628E+03  0.70687076034E+03  0.00000000000E+00 0. -1.
         22    1    1    2    0    0  0.18678691067E+03 -0.34534924988E+03 -0.84378066245E+03  0.93065636017E+03  0.00000000000E+00 0.  1.
<mgrwt>
<rscale>  0 0.18041571E+04</rscale>
<asrwt>0</asrwt>
<pdfrwt beam="1">  1        2 0.13373636E+00 0.18041571E+04</pdfrwt>
<pdfrwt beam="2">  1       -2 0.14401658E+00 0.18041571E+04</pdfrwt>
<totfact> 0.96862188E+00</totfact>
</mgrwt>
</event>
<event>
 6    1  0.1072514E-005  0.1747503E+04  0.7818608E-02  0.8734726E-01
         -2   -1    0    0    0  501 -0.00000000000E+00  0.00000000000E+00  0.44374797421E+03  0.44374797421E+03  0.00000000000E+00 0.  1.
          2   -1    0    0  501    0  0.00000000000E+00 -0.00000000000E+00 -0.17204397889E+04  0.17204397889E+04  0.00000000000E+00 0. -1.
         23    2    1    2    0    0 -0.77682047864E+03  0.38787440827E+03 -0.54895984466E+03  0.10312753954E+04  0.90969321779E+02 0.  0.
         11    1    3    3    0    0 -0.24558048464E+03  0.76349297720E+02 -0.16340340292E+03  0.30469601537E+03  0.00000000000E+00 0. -1.
        -11    1    3    3    0    0 -0.53123999400E+03  0.31152511055E+03 -0.38555644174E+03  0.72657938004E+03  0.00000000000E+00 0.  1.
         22    1    1    2    0    0  0.77682047864E+03 -0.38787440827E+03 -0.72773196999E+03  0.11329123677E+04  0.00000000000E+00 0. -1.
<mgrwt>
<rscale>  0 0.17475030E+04</rscale>
<asrwt>0</asrwt>
<pdfrwt beam="1">  1        2 0.26468304E+00 0.17475030E+04</pdfrwt>
<pdfrwt beam="2">  1       -2 0.68268919E-01 0.17475030E+04</pdfrwt>
<totfact> 0.17778650E+01</totfact>
</mgrwt>
</event>
<event>
 6    1  0.1072514E-005  0.3046115E+04  0.7818608E-02  0.8230684E-01
         -1   -1    0    0    0  501 -0.00000000000E+00  0.00000000000E+00  0.73565825012E+03  0.73565825012E+03  0.00000000000E+00 0.  1.
          1   -1    0    0  501    0  0.00000000000E+00 -0.00000000000E+00 -0.31532363042E+04  0.31532363042E+04  0.00000000000E+00 0. -1.
         23    2    1    2    0    0 -0.62063228366E+03  0.10118398181E+04  0.55544322240E+01  0.11906404345E+04  0.92679789755E+02 0.  0.
         13    1    3    3    0    0 -0.33543382189E+03  0.62049714830E+03  0.27604517757E+02  0.70589982953E+03  0.00000000000E+00 0. -1.
        -13    1    3    3    0    0 -0.28519846176E+03  0.39134266982E+03 -0.22050085533E+02  0.48474060495E+03  0.00000000000E+00 0.  1.
         22    1    1    2    0    0  0.62063228366E+03 -0.10118398181E+04 -0.24231324863E+04  0.26982541198E+04  0.00000000000E+00 0.  1.
<mgrwt>
<rscale>  0 0.30461151E+04</rscale>
<asrwt>0</asrwt>
<pdfrwt beam="1">  1        1 0.48511327E+00 0.30461151E+04</pdfrwt>
<pdfrwt beam="2">  1       -1 0.11317819E+00 0.30461151E+04</pdfrwt>
<totfact> 0.27830724E-01</totfact>
</mgrwt>
</event>
<event>
 6    1  0.1072514E-005  0.2514559E+04  0.7818608E-02  0.8397817E-01
          3   -1    0    0  501    0  0.00000000000E+00  0.00000000000E+00  0.94380355658E+03  0.94380355658E+03  0.00000000000E+00 0. -1.
         -3   -1    0    0    0  501 -0.00000000000E+00 -0.00000000000E+00 -0.16748740665E+04  0.16748740665E+04  0.00000000000E+00 0.  1.
         23    2    1    2    0    0  0.10201509832E+04 -0.72954361490E+03 -0.30240790194E+03  0.12932744595E+04  0.90367991616E+02 0.  0.
         13    1    3    3    0    0  0.30309182063E+03 -0.17595463032E+03 -0.10838681157E+03  0.36684108901E+03  0.00000000000E+00 0.  1.
        -13    1    3    3    0    0  0.71705916254E+03 -0.55358898458E+03 -0.19402109037E+03  0.92643337048E+03  0.00000000000E+00 0. -1.
         22    1    1    2    0    0 -0.10201509832E+04  0.72954361490E+03 -0.42866260795E+03  0.13254031636E+04  0.00000000000E+00 0.  1.
<mgrwt>
<rscale>  0 0.25145593E+04</rscale>
<asrwt>0</asrwt>
<pdfrwt beam="1">  1        3 0.14520055E+00 0.25145593E+04</pdfrwt>
<pdfrwt beam="2">  1       -3 0.25767293E+00 0.25145593E+04</pdfrwt>
<totfact> 0.53879201E-02</totfact>
</mgrwt>
</event>
<event>
 6    1  0.1072514E-005  0.1200251E+04  0.7818608E-02  0.9112637E-01
          1   -1    0    0  501    0  0.00000000000E+00  0.00000000000E+00  0.86246414235E+03  0.86246414235E+03  0.00000000000E+00 0. -1.
         -1   -1    0    0    0  501 -0.00000000000E+00 -0.00000000000E+00 -0.41758352212E+03  0.41758352212E+03  0.00000000000E+00 0.  1.
         23    2    1    2    0    0  0.48099814692E+02  0.18512858011E+03  0.82653847060E+03  0.85314147091E+03  0.89990792098E+02 0.  0.
         11    1    3    3    0    0  0.23319191691E+02  0.91078160996E+02  0.22595865802E+03  0.24473726983E+03  0.00000000000E+00 0. -1.
        -11    1    3    3    0    0  0.24780623001E+02  0.94050419115E+02  0.60057981258E+03  0.60840420108E+03  0.00000000000E+00 0.  1.
         22    1    1    2    0    0 -0.48099814692E+02 -0.18512858011E+03 -0.38165785037E+03  0.42690619355E+03  0.00000000000E+00 0.  1.
<mgrwt>
<rscale>  0 0.12002513E+04</rscale>
<asrwt>0</asrwt>
<pdfrwt beam="1">  1        1 0.13268679E+00 0.12002513E+04</pdfrwt>
<pdfrwt beam="2">  1       -1 0.64243619E-01 0.12002513E+04</pdfrwt>
<totfact> 0.47546905E+01</totfact>
</mgrwt>
</event>
<event>
 6    1  0.1072514E-005  0.4264570E+04  0.7818608E-02  0.7953202E-01
         -2   -1    0    0    0  501 -0.00000000000E+00  0.00000000000E+00  0.17723521012E+04  0.17723521012E+04  0.00000000000E+00 0.  1.
          2   -1    0    0  501    0  0.00000000000E+00 -0.00000000000E+00 -0.25653144044E+04  0.25653144044E+04  0.00000000000E+00 0. -1.
         23    2    1    2    0    0  0.88973995427E+03  0.70219549070E+02  0.15719785227E+04  0.18099178865E+04  0.90101657999E+02 0.  0.
         11    1    3    3    0    0  0.60572295601E+03  0.74786449392E+02  0.10060600474E+04  0.11767115753E+04  0.00000000000E+00 0. -1.
        -11    1    3    3    0    0  0.28401699826E+03 -0.45669003220E+01  0.56591847527E+03  0.63320631118E+03  0.00000000000E+00 0.  1.
         22    1    1    2    0    0 -0.88973995427E+03 -0.70219549070E+02 -0.23649408259E+04  0.25277486191E+04  0.00000000000E+00 0. -1.
<mgrwt>
<rscale>  0 0.42645705E+04</rscale>
<asrwt>0</asrwt>
<pdfrwt beam="1">  1        2 0.39466375E+00 0.42645705E+04</pdfrwt>
<pdfrwt beam="2">  1       -2 0.27266956E+00 0.42645705E+04</pdfrwt>
<totfact> 0.11496204E-01</totfact>
</mgrwt>
</event>
<event>
 6    1  0.1072514E-005  0.1663410E+04  0.7818608E-02  0.8782512E-01
         -1   -1    0    0    0  501 -0.00000000000E+00  0.00000000000E+00  0.33991610339E+03  0.33991610339E+03  0.00000000000E+00 0.  1.
          1   -1    0    0  501    0  0.00000000000E+00 -0.00000000000E+00 -0.20350126353E+04  0.20350126353E+04  0.00000000000E+00 0. -1.
         23    2    1    2    0    0  0.42933984163E+03  0.60348683960E+03 -0.31779049418E+03  0.81111897189E+03  0.91619447627E+02 0.  0.
         13    1    3    3    0    0  0.11252921307E+03  0.22608406594E+03 -0.12751813772E+03  0.28290935671E+03  0.00000000000E+00 0.  1.
        -13    1    3    3    0    0  0.31681062855E+03  0.37740277366E+03 -0.19027235646E+03  0.52820961518E+03  0.00000000000E+00 0. -1.
         22    1    1    2    0    0 -0.42933984163E+03 -0.60348683960E+03 -0.13773060377E+04  0.15638097668E+04  0.00000000000E+00 0.  1.
<mgrwt>
<rscale>  0 0.16634104E+04</rscale>
<asrwt>0</asrwt>
<pdfrwt beam="1">  1        1 0.31307887E+00 0.16634104E+04</pdfrwt>
<pdfrwt beam="2">  1       -1 0.52294785E-01 0.16634104E+04</pdfrwt>
<totfact> 0.99228235E+00</totfact>
</mgrwt>
</event>
<event>
 6    1  0.1072514E-005  0.9777484E+03  0.7818608E-02  0.9333292E-01
         -2   -1    0    0    0  501 -0.00000000000E+00  0.00000000000E+00  0.67628352975E+02  0.67628352975E+02  0.00000000000E+00 0. -1.
          2   -1    0    0  501    0  0.00000000000E+00 -0.00000000000E+00 -0.35339911857E+04  0.35339911857E+04  0.00000000000E+00 0.  1.
         23    2    1    2    0    0 -0.64068623312E+02  0.25836643482E+03 -0.32400038929E+04  0.32521966247E+04  0.91102453000E+02 0.  0.
         13    1    3    3    0    0  0.57343664659E+01  0.14048173129E+03 -0.13758543154E+04  0.13830195577E+04  0.00000000000E+00 0.  1.
        -13    1    3    3    0    0 -0.69802989778E+02  0.11788470353E+03 -0.18641495775E+04  0.18691770670E+04  0.00000000000E+00 0. -1.
         22    1    1    2    0    0  0.64068623312E+02 -0.25836643482E+03 -0.22635893984E+03  0.34942291393E+03  0.00000000000E+00 0. -1.
<mgrwt>
<rscale>  0 0.97774844E+03</rscale>
<asrwt>0</asrwt>
<pdfrwt beam="1">  1        2 0.54369119E+00 0.97774844E+03</pdfrwt>
<pdfrwt beam="2">  1       -2 0.10404357E-01 0.97774844E+03</pdfrwt>
<totfact> 0.51738128E+01</totfact>
</mgrwt>
</event>
<event>
 6    1  0.1072514E-005  0.8658670E+04  0.7818608E-02  0.7427013E-01
          1   -1    0    0  501    0  0.00000000000E+00  0.00000000000E+00  0.42872583106E+04  0.42872583106E+04  0.00000000000E+00 0. -1.
         -1   -1    0    0    0  501 -0.00000000000E+00 -0.00000000000E+00 -0.43718246432E+04  0.43718246432E+04  0.00000000000E+00 0.  1.
         23    2    1    2    0    0  0.23700612701E+04 -0.24516815025E+04  0.26245158867E+04  0.43039642316E+04  0.89954730493E+02 0.  0.
         13    1    3    3    0    0  0.10445111222E+04 -0.11396802467E+04  0.12117941505E+04  0.19642605765E+04  0.00000000000E+00 0.  1.
        -13    1    3    3    0    0  0.13255501478E+04 -0.13120012558E+04  0.14127217362E+04  0.23397036550E+04  0.00000000000E+00 0. -1.
         22    1    1    2    0    0 -0.23700612701E+04  0.24516815025E+04 -0.27090822193E+04  0.43551187222E+04  0.00000000000E+00 0.  1.
<mgrwt>
<rscale>  0 0.86586700E+04</rscale>
<asrwt>0</asrwt>
<pdfrwt beam="1">  1        1 0.65957820E+00 0.86586700E+04</pdfrwt>
<pdfrwt beam="2">  1       -1 0.67258841E+00 0.86586700E+04</pdfrwt>
<totfact> 0.73502190E-06</totfact>
</mgrwt>
</event>
<event>
 6    1  0.1072514E-005  0.3876749E+04  0.7818608E-02  0.8029882E-01
          3   -1    0    0  501    0  0.00000000000E+00  0.00000000000E+00  0.22037953708E+04  0.22037953708E+04  0.00000000000E+00 0. -1.
         -3   -1    0    0    0  501 -0.00000000000E+00 -0.00000000000E+00 -0.17049205064E+04  0.17049205064E+04  0.00000000000E+00 0.  1.
         23    2    1    2    0    0  0.31460971848E+03  0.18393504403E+04  0.77473770189E+03  0.20223729544E+04  0.87089279254E+02 0.  0.
         13    1    3    3    0    0  0.22214157498E+03  0.13608434755E+04  0.61188854335E+03  0.15085255827E+04  0.00000000000E+00 0.  1.
        -13    1    3    3    0    0  0.92468143493E+02  0.47850696481E+03  0.16284915853E+03  0.51384737166E+03  0.00000000000E+00 0. -1.
         22    1    1    2    0    0 -0.31460971848E+03 -0.18393504403E+04 -0.27586283758E+03  0.18863429228E+04  0.00000000000E+00 0.  1.
<mgrwt>
<rscale>  0 0.38767491E+04</rscale>
<asrwt>0</asrwt>
<pdfrwt beam="1">  1        3 0.33904544E+00 0.38767491E+04</pdfrwt>
<pdfrwt beam="2">  1       -3 0.26229546E+00 0.38767491E+04</pdfrwt>
<totfact> 0.30147913E-03</totfact>
</mgrwt>
</event>
<event>
 6    1  0.1072514E-005  0.7963229E+03  0.7818608E-02  0.9565355E-01
          1   -1    0    0  501    0  0.00000000000E+00  0.00000000000E+00  0.67237625858E+03  0.67237625858E+03  0.00000000000E+00 0. -1.
         -1   -1    0    0    0  501 -0.00000000000E+00 -0.00000000000E+00 -0.23577950161E+03  0.23577950161E+03  0.00000000000E+00 0.  1.
         23    2    1    2    0    0 -0.39388131011E+03  0.48420888115E+01  0.21779485423E+03  0.45755593227E+03  0.82200367102E+02 0.  0.
         11    1    3    3    0    0 -0.12347240738E+03 -0.36113821217E+02  0.77366442253E+02  0.15011732030E+03  0.00000000000E+00 0. -1.
        -11    1    3    3    0    0 -0.27040890273E+03  0.40955910028E+02  0.14042841197E+03  0.30743861197E+03  0.00000000000E+00 0.  1.
         22    1    1    2    0    0  0.39388131011E+03 -0.48420888115E+01  0.21880190274E+03  0.45059982792E+03  0.00000000000E+00 0. -1.
<mgrwt>
<rscale>  0 0.79632290E+03</rscale>
<asrwt>0</asrwt>
<pdfrwt beam="1">  1        1 0.10344250E+00 0.79632290E+03</pdfrwt>
<pdfrwt beam="2">  1       -1 0.36273770E-01 0.79632290E+03</pdfrwt>
<totfact> 0.21286066E+02</totfact>
</mgrwt>
</event>
<event>
 6    1  0.1072514E-005  0.1207737E+04  0.7818608E-02  0.9106111E-01
         -1   -1    0    0    0  501 -0.00000000000E+00  0.00000000000E+00  0.19383115201E+03  0.19383115201E+03  0.00000000000E+00 0.  1.
          1   -1    0    0  501    0  0.00000000000E+00 -0.00000000000E+00 -0.18813141094E+04  0.18813141094E+04  0.00000000000E+00 0. -1.
         23    2    1    2    0    0 -0.55129783774E+03  0.45930561019E+02 -0.44797455803E+03  0.71778753610E+03  0.92189044974E+02 0.  0.
         13    1    3    3    0    0 -0.30001896487E+03  0.66102577008E+02 -0.21954082183E+03  0.37759648093E+03  0.00000000000E+00 0.  1.
        -13    1    3    3    0    0 -0.25127887288E+03 -0.20172015988E+02 -0.22843373620E+03  0.34019105517E+03  0.00000000000E+00 0. -1.
         22    1    1    2    0    0  0.55129783774E+03 -0.45930561019E+02 -0.12395083993E+04  0.13573577253E+04  0.00000000000E+00 0.  1.
<mgrwt>
<rscale>  0 0.12077372E+04</rscale>
<asrwt>0</asrwt>
<pdfrwt beam="1">  1        1 0.28943293E+00 0.12077372E+04</pdfrwt>
<pdfrwt beam="2">  1       -1 0.29820178E-01 0.12077372E+04</pdfrwt>
<totfact> 0.36635170E+01</totfact>
</mgrwt>
</event>
<event>
 6    1  0.1072514E-005  0.1423590E+04  0.7818608E-02  0.8936917E-01
          4   -1    0    0  501    0  0.00000000000E+00  0.00000000000E+00  0.14230823887E+04  0.14230823887E+04  0.00000000000E+00 0. -1.
         -4   -1    0    0    0  501 -0.00000000000E+00 -0.00000000000E+00 -0.35602468928E+03  0.35602468928E+03  0.00000000000E+00 0.  1.
         23    2    1    2    0    0  0.34312624202E+03 -0.42199076340E+03 -0.32554268135E+02  0.55233965848E+03  0.90595229446E+02 0.  0.
         11    1    3    3    0    0  0.32782233963E+03 -0.35948470520E+03 -0.36384245305E+02  0.48787350096E+03  0.00000000000E+00 0. -1.
        -11    1    3    3    0    0  0.15303902386E+02 -0.62506058197E+02  0.38299771700E+01  0.64466157515E+02  0.00000000000E+00 0.  1.
         22    1    1    2    0    0 -0.34312624202E+03  0.42199076340E+03  0.10996119675E+04  0.12267674195E+04  0.00000000000E+00 0. -1.
<mgrwt>
<rscale>  0 0.14235905E+04</rscale>
<asrwt>0</asrwt>
<pdfrwt beam="1">  1        4 0.21893575E+00 0.14235905E+04</pdfrwt>
<pdfrwt beam="2">  1       -4 0.54773030E-01 0.14235905E+04</pdfrwt>
<totfact> 0.61385417E-01</totfact>
</mgrwt>
</event>
<event>
 6    1  0.1072514E-005  0.3204385E+04  0.7818608E-02  0.8187660E-01
         -2   -1    0    0    0  501 -0.00000000000E+00  0.00000000000E+00  0.96285904483E+03  0.96285904483E+03  0.00000000000E+00 0. -1.
          2   -1    0    0  501    0  0.00000000000E+00 -0.00000000000E+00 -0.26660401009E+04  0.26660401009E+04  0.00000000000E+00 0.  1.
         23    2    1    2    0    0  0.14774659417E+04  0.30436833578E+03 -0.14583555615E+04  0.21006697076E+04  0.10230632517E+03 0.  0.
         13    1    3    3    0    0  0.53527561451E+03  0.76762451085E+02 -0.57341397597E+03  0.78817259863E+03  0.00000000000E+00 0.  1.
        -13    1    3    3    0    0  0.94219032717E+03  0.22760588469E+03 -0.88494158553E+03  0.13124971090E+04  0.00000000000E+00 0. -1.
         22    1    1    2    0    0 -0.14774659417E+04 -0.30436833578E+03 -0.24482549458E+03  0.15282294381E+04  0.00000000000E+00 0. -1.
<mgrwt>
<rscale>  0 0.32043850E+04</rscale>
<asrwt>0</asrwt>
<pdfrwt beam="1">  1        2 0.41016002E+00 0.32043850E+04</pdfrwt>
<pdfrwt beam="2">  1       -2 0.14813216E+00 0.32043850E+04</pdfrwt>
<totfact> 0.72504246E-01</totfact>
</mgrwt>
</event>
<event>
 6    1  0.1072514E-005  0.3214511E+04  0.7818608E-02  0.8184995E-01
         -2   -1    0    0    0  501 -0.00000000000E+00  0.00000000000E+00  0.10937289570E+04  0.10937289570E+04  0.00000000000E+00 0. -1.
          2   -1    0    0  501    0  0.00000000000E+00 -0.00000000000E+00 -0.23618921907E+04  0.23618921907E+04  0.00000000000E+00 0.  1.
         23    2    1    2    0    0  0.75361590655E+03 -0.58194022765E+03  0.75576531240E+03  0.12189096949E+04  0.89265187405E+02 0.  0.
         13    1    3    3    0    0  0.41279142822E+03 -0.35673154125E+03  0.47316960100E+03  0.72217977474E+03  0.00000000000E+00 0.  1.
        -13    1    3    3    0    0  0.34082447833E+03 -0.22520868640E+03  0.28259571140E+03  0.49672992014E+03  0.00000000000E+00 0. -1.
         22    1    1    2    0    0 -0.75361590655E+03  0.58194022765E+03 -0.20239285462E+04  0.22367114528E+04  0.00000000000E+00 0.  1.
<mgrwt>
<rscale>  0 0.32145108E+04</rscale>
<asrwt>0</asrwt>
<pdfrwt beam="1">  1        2 0.36336802E+00 0.32145108E+04</pdfrwt>
<pdfrwt beam="2">  1       -2 0.16826600E+00 0.32145108E+04</pdfrwt>
<totfact> 0.77094724E-01</totfact>
</mgrwt>
</event>
<event>
 6    1  0.1072514E-005  0.1482291E+04  0.7818608E-02  0.8896315E-01
          1   -1    0    0  501    0  0.00000000000E+00  0.00000000000E+00  0.86159833702E+03  0.86159833702E+03  0.00000000000E+00 0. -1.
         -1   -1    0    0    0  501 -0.00000000000E+00 -0.00000000000E+00 -0.63753199121E+03  0.63753199121E+03  0.00000000000E+00 0.  1.
         23    2    1    2    0    0 -0.11369237972E+03 -0.65285578913E+03  0.44205021721E+03  0.80151753677E+03  0.88743048261E+02 0.  0.
         11    1    3    3    0    0 -0.12491688863E+03 -0.52325821512E+03  0.34284977711E+03  0.63792582517E+03  0.00000000000E+00 0. -1.
        -11    1    3    3    0    0  0.11224508906E+02 -0.12959757400E+03  0.99200440107E+02  0.16359171160E+03  0.00000000000E+00 0.  1.
         22    1    1    2    0    0  0.11369237972E+03  0.65285578913E+03 -0.21798387141E+03  0.69761279145E+03  0.00000000000E+00 0.  1.
<mgrwt>
<rscale>  0 0.14822908E+04</rscale>
<asrwt>0</asrwt>
<pdfrwt beam="1">  1        1 0.13255359E+00 0.14822908E+04</pdfrwt>
<pdfrwt beam="2">  1       -1 0.98081844E-01 0.14822908E+04</pdfrwt>
<totfact> 0.18904210E+01</totfact>
</mgrwt>
</event>
<event>
 6    1  0.1072514E-005  0.6192593E+03  0.7818608E-02  0.9866235E-01
          2   -1    0    0  501    0  0.00000000000E+00  0.00000000000E+00  0.69837058436E+03  0.69837058436E+03  0.00000000000E+00 0. -1.
         -2   -1    0    0    0  501 -0.00000000000E+00 -0.00000000000E+00 -0.13727745140E+03  0.13727745140E+03  0.00000000000E+00 0.  1.
         23    2    1    2    0    0 -0.95138401190E+02 -0.11521639593E+03 -0.68155958345E+02  0.18890190924E+03  0.93341113039E+02 0.  0.
         13    1    3    3    0    0 -0.39890743979E+02 -0.37154220749E+02  0.20746354755E+02  0.58327684767E+02  0.00000000000E+00 0. -1.
        -13    1    3    3    0    0 -0.55247657211E+02 -0.78062175181E+02 -0.88902313101E+02  0.13057422447E+03  0.00000000000E+00 0.  1.
         22    1    1    2    0    0  0.95138401190E+02  0.11521639593E+03  0.62924909130E+03  0.64674612653E+03  0.00000000000E+00 0. -1.
<mgrwt>
<rscale>  0 0.61925934E+03</rscale>
<asrwt>0</asrwt>
<pdfrwt beam="1">  1        2 0.10744163E+00 0.61925934E+03</pdfrwt>
<pdfrwt beam="2">  1       -2 0.21119608E-01 0.61925934E+03</pdfrwt>
<totfact> 0.80080515E+02</totfact>
</mgrwt>
</event>
<event>
 6    1  0.1072514E-005  0.8892108E+03  0.7818608E-02  0.9439170E-01
         -2   -1    0    0    0  501 -0.00000000000E+00  0.00000000000E+00  0.11470958509E+03  0.11470958509E+03  0.00000000000E+00 0.  1.
          2   -1    0    0  501    0  0.00000000000E+00 -0.00000000000E+00 -0.17232559286E+04  0.17232559286E+04  0.00000000000E+00 0. -1.
         23    2    1    2    0    0 -0.11389074786E+03 -0.36328303528E+03 -0.35716245305E+03  0.52994895896E+03  0.91297398965E+02 0.  0.
         11    1    3    3    0    0 -0.69668892313E+02 -0.12784695742E+03 -0.18259964255E+03  0.23354063573E+03  0.00000000000E+00 0.  1.
        -11    1    3    3    0    0 -0.44221855544E+02 -0.23543607787E+03 -0.17456281050E+03  0.29640832323E+03  0.00000000000E+00 0. -1.
         22    1    1    2    0    0  0.11389074786E+03  0.36328303528E+03 -0.12513838905E+04  0.13080165548E+04  0.00000000000E+00 0. -1.
<mgrwt>
<rscale>  0 0.88921082E+03</rscale>
<asrwt>0</asrwt>
<pdfrwt beam="1">  1        2 0.26511630E+00 0.88921082E+03</pdfrwt>
<pdfrwt beam="2">  1       -2 0.17647629E-01 0.88921082E+03</pdfrwt>
<totfact> 0.25453530E+02</totfact>
</mgrwt>
</event>
<event>
 6    1  0.1072514E-005  0.1522062E+04  0.7818608E-02  0.8869913E-01
          2   -1    0    0  501    0  0.00000000000E+00  0.00000000000E+00  0.12883118372E+04  0.12883118372E+04  0.00000000000E+00 0. -1.
         -2   -1    0    0    0  501 -0.00000000000E+00 -0.00000000000E+00 -0.44955614214E+03  0.44955614214E+03  0.00000000000E+00 0.  1.
         23    2    1    2    0    0 -0.35338223285E+01 -0.19989354303E+03  0.12560205297E+04  0.12751803324E+04  0.92343882873E+02 0.  0.
         11    1    3    3    0    0  0.38907259526E+02 -0.94536837001E+02  0.46953132074E+03  0.48053163221E+03  0.00000000000E+00 0. -1.
        -11    1    3    3    0    0 -0.42441081855E+02 -0.10535670603E+03  0.78648920893E+03  0.79464870018E+03  0.00000000000E+00 0.  1.
         22    1    1    2    0    0  0.35338223285E+01  0.19989354303E+03 -0.41726483461E+03  0.46268764696E+03  0.00000000000E+00 0.  1.
<mgrwt>
<rscale>  0 0.15220624E+04</rscale>
<asrwt>0</asrwt>
<pdfrwt beam="1">  1        2 0.19820182E+00 0.15220624E+04</pdfrwt>
<pdfrwt beam="2">  1       -2 0.69162484E-01 0.15220624E+04</pdfrwt>
<totfact> 0.30915454E+01</totfact>
</mgrwt>
</event>
<event>
 6    1  0.1072514E-005  0.2513726E+04  0.7818608E-02  0.8398112E-01
          2   -1    0    0  501    0  0.00000000000E+00  0.00000000000E+00  0.21941697915E+04  0.21941697915E+04  0.00000000000E+00 0. -1.
         -2   -1    0    0    0  501 -0.00000000000E+00 -0.00000000000E+00 -0.71995556353E+03  0.71995556353E+03  0.00000000000E+00 0.  1.
         23    2    1    2    0    0 -0.26422182635E+03 -0.68072091598E+03  0.19216395441E+04  0.20577471953E+04  0.91819623075E+02 0.  0.
         11    1    3    3    0    0 -0.14914491386E+03 -0.32322963687E+03  0.10479097283E+04  0.11067232726E+04  0.00000000000E+00 0. -1.
        -11    1    3    3    0    0 -0.11507691250E+03 -0.35749127911E+03  0.87372981584E+03  0.95102392268E+03  0.00000000000E+00 0.  1.
         22    1    1    2    0    0  0.26422182635E+03  0.68072091598E+03 -0.44742531615E+03  0.85637815975E+03  0.00000000000E+00 0.  1.
<mgrwt>
<rscale>  0 0.25137261E+04</rscale>
<asrwt>0</asrwt>
<pdfrwt beam="1">  1        2 0.33756458E+00 0.25137261E+04</pdfrwt>
<pdfrwt beam="2">  1       -2 0.11076240E+00 0.25137261E+04</pdfrwt>
<totfact> 0.29944728E+00</totfact>
</mgrwt>
</event>
<event>
 6    1  0.1072514E-005  0.1750491E+04  0.7818608E-02  0.8733080E-01
         -2   -1    0    0    0  501 -0.00000000000E+00  0.00000000000E+00  0.25549974882E+03  0.25549974882E+03  0.00000000000E+00 0.  1.
          2   -1    0    0  501    0  0.00000000000E+00 -0.00000000000E+00 -0.29982588804E+04  0.29982588804E+04  0.00000000000E+00 0. -1.
         23    2    1    2    0    0  0.17010337917E+03  0.49683651218E+03 -0.79731384017E+02  0.53944500259E+03  0.94138928048E+02 0.  0.
         13    1    3    3    0    0  0.17477607453E+03  0.40068052669E+03 -0.61107151270E+02  0.44139058059E+03  0.00000000000E+00 0. -1.
        -13    1    3    3    0    0 -0.46726953545E+01  0.96155985490E+02 -0.18624232747E+02  0.98054421995E+02  0.00000000000E+00 0.  1.
         22    1    1    2    0    0 -0.17010337917E+03 -0.49683651218E+03 -0.26630277475E+04  0.27143136266E+04  0.00000000000E+00 0. -1.
<mgrwt>
<rscale>  0 0.17504907E+04</rscale>
<asrwt>0</asrwt>
<pdfrwt beam="1">  1        2 0.46127061E+00 0.17504907E+04</pdfrwt>
<pdfrwt beam="2">  1       -2 0.39307652E-01 0.17504907E+04</pdfrwt>
<totfact> 0.10168551E+01</totfact>
</mgrwt>
</event>
<event>
 6    1  0.1072514E-005  0.3368476E+04  0.7818608E-02  0.8145687E-01
          2   -1    0    0  501    0  0.00000000000E+00  0.00000000000E+00  0.84869727684E+03  0.84869727684E+03  0.00000000000E+00 0. -1.
         -2   -1    0    0    0  501 -0.00000000000E+00 -0.00000000000E+00 -0.33423666875E+04  0.33423666875E+04  0.00000000000E+00 0.  1.
         23    2    1    2    0    0 -0.17064465265E+03 -0.85827100471E+03 -0.30364473612E+04  0.31613277755E+04  0.90730434803E+02 0.  0.
         13    1    3    3    0    0 -0.47312463927E+02 -0.42401197823E+03 -0.13777720347E+04  0.14423177204E+04  0.00000000000E+00 0.  1.
        -13    1    3    3    0    0 -0.12333218872E+03 -0.43425902648E+03 -0.16586753266E+04  0.17190100552E+04  0.00000000000E+00 0. -1.
         22    1    1    2    0    0  0.17064465265E+03  0.85827100471E+03  0.54277795055E+03  0.10297361888E+04  0.00000000000E+00 0. -1.
<mgrwt>
<rscale>  0 0.33684759E+04</rscale>
<asrwt>0</asrwt>
<pdfrwt beam="1">  1        2 0.13056881E+00 0.33684759E+04</pdfrwt>
<pdfrwt beam="2">  1       -2 0.51421027E+00 0.33684759E+04</pdfrwt>
<totfact> 0.35617916E-02</totfact>
</mgrwt>
</event>
<event>
 6    1  0.1072514E-005  0.1846668E+04  0.7818608E-02  0.8681868E-01
         -1   -1    0    0    0  501 -0.00000000000E+00  0.00000000000E+00  0.57929033561E+03  0.57929033561E+03  0.00000000000E+00 0.  1.
          1   -1    0    0  501    0  0.00000000000E+00 -0.00000000000E+00 -0.14717077642E+04  0.14717077642E+04  0.00000000000E+00 0. -1.
         23    2    1    2    0    0  0.72520784395E+03 -0.37253653906E+03  0.27474650517E+02  0.82180676928E+03  0.99506882872E+02 0.  0.
         13    1    3    3    0    0  0.29998653127E+03 -0.15518626772E+03  0.60461684146E+02  0.34311850997E+03  0.00000000000E+00 0.  1.
        -13    1    3    3    0    0  0.42522131268E+03 -0.21735027134E+03 -0.32987033629E+02  0.47868825931E+03  0.00000000000E+00 0. -1.
         22    1    1    2    0    0 -0.72520784395E+03  0.37253653906E+03 -0.91989207910E+03  0.12291913305E+04  0.00000000000E+00 0. -1.
<mgrwt>
<rscale>  0 0.18466684E+04</rscale>
<asrwt>0</asrwt>
<pdfrwt beam="1">  1        1 0.22641658E+00 0.18466684E+04</pdfrwt>
<pdfrwt beam="2">  1       -1 0.89121591E-01 0.18466684E+04</pdfrwt>
<totfact> 0.79405234E+00</totfact>
</mgrwt>
</event>
<event>
 6    1  0.1072514E-005  0.1620678E+04  0.7818608E-02  0.8807944E-01
         -2   -1    0    0    0  501 -0.00000000000E+00  0.00000000000E+00  0.51115950331E+03  0.51115950331E+03  0.00000000000E+00 0.  1.
          2   -1    0    0  501    0  0.00000000000E+00 -0.00000000000E+00 -0.12846271870E+04  0.12846271870E+04  0.00000000000E+00 0. -1.
         23    2    1    2    0    0  0.15784834091E+03  0.69984901772E+03  0.22146614131E+02  0.72447587769E+03  0.98336557346E+02 0.  0.
         13    1    3    3    0    0  0.14588607866E+03  0.63735242765E+03 -0.84067923962E+01  0.65388954659E+03  0.00000000000E+00 0.  1.
        -13    1    3    3    0    0  0.11962262247E+02  0.62496590068E+02  0.30553406528E+02  0.70586331104E+02  0.00000000000E+00 0. -1.
         22    1    1    2    0    0 -0.15784834091E+03 -0.69984901772E+03 -0.79561429779E+03  0.10713108126E+04  0.00000000000E+00 0. -1.
<mgrwt>
<rscale>  0 0.16206781E+04</rscale>
<asrwt>0</asrwt>
<pdfrwt beam="1">  1        2 0.19763495E+00 0.16206781E+04</pdfrwt>
<pdfrwt beam="2">  1       -2 0.78639925E-01 0.16206781E+04</pdfrwt>
<totfact> 0.23215113E+01</totfact>
</mgrwt>
</event>
<event>
 6    1  0.1072514E-005  0.2177459E+04  0.7818608E-02  0.8527869E-01
          2   -1    0    0  501    0  0.00000000000E+00  0.00000000000E+00  0.25445275019E+04  0.25445275019E+04  0.00000000000E+00 0.  1.
         -2   -1    0    0    0  501 -0.00000000000E+00 -0.00000000000E+00 -0.46583564390E+03  0.46583564390E+03  0.00000000000E+00 0. -1.
         23    2    1    2    0    0 -0.25125086986E+03  0.31476002305E+03  0.24365383631E+04  0.24716099621E+04  0.99678173168E+02 0.  0.
         13    1    3    3    0    0 -0.18132636861E+03  0.25713870023E+03  0.20837873621E+04  0.21074082029E+04  0.00000000000E+00 0. -1.
        -13    1    3    3    0    0 -0.69924501251E+02  0.57621322811E+02  0.35275100102E+03  0.36420175925E+03  0.00000000000E+00 0.  1.
         22    1    1    2    0    0  0.25125086986E+03 -0.31476002305E+03 -0.35784650511E+03  0.53875318369E+03  0.00000000000E+00 0. -1.
<mgrwt>
<rscale>  0 0.21774587E+04</rscale>
<asrwt>0</asrwt>
<pdfrwt beam="1">  1        2 0.39146576E+00 0.21774587E+04</pdfrwt>
<pdfrwt beam="2">  1       -2 0.71667024E-01 0.21774587E+04</pdfrwt>
<totfact> 0.53030840E+00</totfact>
</mgrwt>
</event>
<event>
 6    1  0.1072514E-005  0.3580416E+04  0.7818608E-02  0.8094992E-01
          3   -1    0    0  501    0  0.00000000000E+00  0.00000000000E+00  0.20201524528E+04  0.20201524528E+04  0.00000000000E+00 0. -1.
         -3   -1    0    0    0  501 -0.00000000000E+00 -0.00000000000E+00 -0.15864369670E+04  0.15864369670E+04  0.00000000000E+00 0.  1.
         23    2    1    2    0    0  0.61013823774E+03 -0.29811134725E+03 -0.14502194328E+04  0.16040036359E+04  0.92478194390E+02 0.  0.
         11    1    3    3    0    0  0.47287671083E+03 -0.23911514565E+03 -0.10357494451E+04  0.11634282744E+04  0.00000000000E+00 0. -1.
        -11    1    3    3    0    0  0.13726152691E+03 -0.58996201600E+02 -0.41446998761E+03  0.44057536155E+03  0.00000000000E+00 0.  1.
         22    1    1    2    0    0 -0.61013823774E+03  0.29811134725E+03  0.18839349185E+04  0.20025857839E+04  0.00000000000E+00 0. -1.
<mgrwt>
<rscale>  0 0.35804159E+04</rscale>
<asrwt>0</asrwt>
<pdfrwt beam="1">  1        3 0.31079269E+00 0.35804159E+04</pdfrwt>
<pdfrwt beam="2">  1       -3 0.24406722E+00 0.35804159E+04</pdfrwt>
<totfact> 0.56287358E-03</totfact>
</mgrwt>
</event>
<event>
 6    1  0.1072514E-005  0.2890225E+04  0.7818608E-02  0.8275792E-01
         -2   -1    0    0    0  501 -0.00000000000E+00  0.00000000000E+00  0.12184502596E+04  0.12184502596E+04  0.00000000000E+00 0.  1.
          2   -1    0    0  501    0  0.00000000000E+00 -0.00000000000E+00 -0.17139398949E+04  0.17139398949E+04  0.00000000000E+00 0. -1.
         23    2    1    2    0    0 -0.84912512129E+03 -0.44937536959E+02 -0.14317321298E+04  0.16676439894E+04  0.90259237102E+02 0.  0.
         13    1    3    3    0    0 -0.43584401741E+03  0.19072642995E+02 -0.69921580355E+03  0.82415199639E+03  0.00000000000E+00 0. -1.
        -13    1    3    3    0    0 -0.41328110387E+03 -0.64010179954E+02 -0.73251632626E+03  0.84349199297E+03  0.00000000000E+00 0.  1.
         22    1    1    2    0    0  0.84912512129E+03  0.44937536959E+02  0.93624249450E+03  0.12647461652E+04  0.00000000000E+00 0.  1.
<mgrwt>
<rscale>  0 0.28902253E+04</rscale>
<asrwt>0</asrwt>
<pdfrwt beam="1">  1        2 0.26368306E+00 0.28902253E+04</pdfrwt>
<pdfrwt beam="2">  1       -2 0.18745389E+00 0.28902253E+04</pdfrwt>
<totfact> 0.13418894E+00</totfact>
</mgrwt>
</event>
<event>
 6    1  0.1072514E-005  0.6868349E+03  0.7818608E-02  0.9740015E-01
          1   -1    0    0  501    0  0.00000000000E+00  0.00000000000E+00  0.14324249940E+04  0.14324249940E+04  0.00000000000E+00 0. -1.
         -1   -1    0    0    0  501 -0.00000000000E+00 -0.00000000000E+00 -0.82332786870E+02  0.82332786870E+02  0.00000000000E+00 0.  1.
         23    2    1    2    0    0  0.15610309432E+03  0.16923280211E+03  0.12304560504E+04  0.12552953995E+04  0.93469409559E+02 0.  0.
         11    1    3    3    0    0  0.75620215717E+02  0.92809324238E+02  0.86831013544E+03  0.87652408923E+03  0.00000000000E+00 0.  1.
        -11    1    3    3    0    0  0.80482878600E+02  0.76423477869E+02  0.36214591501E+03  0.37877131026E+03  0.00000000000E+00 0. -1.
         22    1    1    2    0    0 -0.15610309432E+03 -0.16923280211E+03  0.11963615667E+03  0.25946238137E+03  0.00000000000E+00 0.  1.
<mgrwt>
<rscale>  0 0.68683489E+03</rscale>
<asrwt>0</asrwt>
<pdfrwt beam="1">  1        1 0.22037306E+00 0.68683489E+03</pdfrwt>
<pdfrwt beam="2">  1       -1 0.12666584E-01 0.68683489E+03</pdfrwt>
<totfact> 0.32192675E+02</totfact>
</mgrwt>
</event>
<event>
 6    1  0.1072514E-005  0.2684217E+04  0.7818608E-02  0.8340144E-01
          2   -1    0    0  501    0  0.00000000000E+00  0.00000000000E+00  0.98835003026E+03  0.98835003026E+03  0.00000000000E+00 0. -1.
         -2   -1    0    0    0  501 -0.00000000000E+00 -0.00000000000E+00 -0.18224870487E+04  0.18224870487E+04  0.00000000000E+00 0.  1.
         23    2    1    2    0    0 -0.64116617399E+03 -0.61715564956E+03  0.63253490840E+03  0.10952900235E+04  0.87089992632E+02 0.  0.
         13    1    3    3    0    0 -0.21722935782E+03 -0.23833906712E+03  0.27385616211E+03  0.42307363702E+03  0.00000000000E+00 0.  1.
        -13    1    3    3    0    0 -0.42393681617E+03 -0.37881658244E+03  0.35867874629E+03  0.67221638650E+03  0.00000000000E+00 0. -1.
         22    1    1    2    0    0  0.64116617399E+03  0.61715564956E+03 -0.14666719268E+04  0.17155470554E+04  0.00000000000E+00 0.  1.
<mgrwt>
<rscale>  0 0.26842169E+04</rscale>
<asrwt>0</asrwt>
<pdfrwt beam="1">  1        2 0.15205385E+00 0.26842169E+04</pdfrwt>
<pdfrwt beam="2">  1       -2 0.28038262E+00 0.26842169E+04</pdfrwt>
<totfact> 0.94296160E-01</totfact>
</mgrwt>
</event>
<event>
 6    1  0.1072514E-005  0.3382678E+04  0.7818608E-02  0.8142171E-01
         -1   -1    0    0    0  501 -0.00000000000E+00  0.00000000000E+00  0.14829768386E+04  0.14829768386E+04  0.00000000000E+00 0.  1.
          1   -1    0    0  501    0  0.00000000000E+00 -0.00000000000E+00 -0.19289768338E+04  0.19289768338E+04  0.00000000000E+00 0. -1.
         23    2    1    2    0    0  0.11952462776E+04  0.11465131178E+04  0.11652256076E+03  0.16628002716E+04  0.90671068335E+02 0.  0.
         13    1    3    3    0    0  0.61684808213E+03  0.53009092544E+03  0.65986381145E+02  0.81599763980E+03  0.00000000000E+00 0. -1.
        -13    1    3    3    0    0  0.57839819545E+03  0.61642219238E+03  0.50536179618E+02  0.84680263179E+03  0.00000000000E+00 0.  1.
         22    1    1    2    0    0 -0.11952462776E+04 -0.11465131178E+04 -0.56252255598E+03  0.17491534008E+04  0.00000000000E+00 0. -1.
<mgrwt>
<rscale>  0 0.33826782E+04</rscale>
<asrwt>0</asrwt>
<pdfrwt beam="1">  1        1 0.29676566E+00 0.33826782E+04</pdfrwt>
<pdfrwt beam="2">  1       -1 0.22815028E+00 0.33826782E+04</pdfrwt>
<totfact> 0.26640748E-01</totfact>
</mgrwt>
</event>
<event>
 6    1  0.1072514E-005  0.9494402E+03  0.7818608E-02  0.9365805E-01
          2   -1    0    0  501    0  0.00000000000E+00  0.00000000000E+00  0.12464432808E+04  0.12464432808E+04  0.00000000000E+00 0. -1.
         -2   -1    0    0    0  501 -0.00000000000E+00 -0.00000000000E+00 -0.18080179418E+03  0.18080179418E+03  0.00000000000E+00 0.  1.
         23    2    1    2    0    0 -0.10433634441E+03 -0.28560010498E+03  0.10772091661E+04  0.11229634555E+04  0.90630250159E+02 0.  0.
         11    1    3    3    0    0 -0.77210319699E+02 -0.15419029601E+03  0.45811049731E+03  0.48949086672E+03  0.00000000000E+00 0. -1.
        -11    1    3    3    0    0 -0.27126024713E+02 -0.13140980897E+03  0.61909866877E+03  0.63347258881E+03  0.00000000000E+00 0.  1.
         22    1    1    2    0    0  0.10433634441E+03  0.28560010498E+03 -0.11567679457E+02  0.30428161946E+03  0.00000000000E+00 0.  1.
<mgrwt>
<rscale>  0 0.94944022E+03</rscale>
<asrwt>0</asrwt>
<pdfrwt beam="1">  1        2 0.19176050E+00 0.94944022E+03</pdfrwt>
<pdfrwt beam="2">  1       -2 0.27815661E-01 0.94944022E+03</pdfrwt>
<totfact> 0.20956113E+02</totfact>
</mgrwt>
</event>
<event>
 6    1  0.1072514E-005  0.1798045E+04  0.7818608E-02  0.8707340E-01
          2   -1    0    0  501    0  0.00000000000E+00  0.00000000000E+00  0.91678773179E+03  0.91678773179E+03  0.00000000000E+00 0. -1.
         -2   -1    0    0    0  501 -0.00000000000E+00 -0.00000000000E+00 -0.88160142851E+03  0.88160142851E+03  0.00000000000E+00 0.  1.
         23    2    1    2    0    0  0.41787473052E+03 -0.76667698376E+03 -0.18646953079E+03  0.89753168178E+03  0.91538768012E+02 0.  0.
         11    1    3    3    0    0  0.51432714341E+02 -0.10513538244E+03  0.59204663173E+01  0.11719140184E+03  0.00000000000E+00 0. -1.
        -11    1    3    3    0    0  0.36644201618E+03 -0.66154160132E+03 -0.19238999711E+03  0.78034027993E+03  0.00000000000E+00 0.  1.
         22    1    1    2    0    0 -0.41787473052E+03  0.76667698376E+03  0.22165583408E+03  0.90085747852E+03  0.00000000000E+00 0.  1.
<mgrwt>
<rscale>  0 0.17980449E+04</rscale>
<asrwt>0</asrwt>
<pdfrwt beam="1">  1        2 0.14104427E+00 0.17980449E+04</pdfrwt>
<pdfrwt beam="2">  1       -2 0.13563099E+00 0.17980449E+04</pdfrwt>
<totfact> 0.10513898E+01</totfact>
</mgrwt>
</event>
<event>
 6    1  0.1072514E-005  0.5612881E+03  0.7818608E-02  0.9989144E-01
          2   -1    0    0  501    0  0.00000000000E+00  0.00000000000E+00  0.14515726479E+04  0.14515726479E+04  0.00000000000E+00 0. -1.
         -2   -1    0    0    0  501 -0.00000000000E+00 -0.00000000000E+00 -0.54259147934E+02  0.54259147934E+02  0.00000000000E+00 0.  1.
         23    2    1    2    0    0  0.63277184144E+02 -0.12268450468E+03  0.13496483503E+04  0.13597925675E+04  0.91813219766E+02 0.  0.
         11    1    3    3    0    0 -0.12198953037E+02 -0.50654578140E+02  0.68789441744E+03  0.68986479131E+03  0.00000000000E+00 0.  1.
        -11    1    3    3    0    0  0.75476137181E+02 -0.72029926537E+02  0.66175393291E+03  0.66992777620E+03  0.00000000000E+00 0. -1.
         22    1    1    2    0    0 -0.63277184144E+02  0.12268450468E+03  0.47665149610E+02  0.14603922832E+03  0.00000000000E+00 0.  1.
<mgrwt>
<rscale>  0 0.56128814E+03</rscale>
<asrwt>0</asrwt>
<pdfrwt beam="1">  1        2 0.22331884E+00 0.56128814E+03</pdfrwt>
<pdfrwt beam="2">  1       -2 0.83475623E-02 0.56128814E+03</pdfrwt>
<totfact> 0.12654001E+03</totfact>
</mgrwt>
</event>
<event>
 6    1  0.1072514E-005  0.2420926E+04  0.7818608E-02  0.8431710E-01
         -2   -1    0    0    0  501 -0.00000000000E+00  0.00000000000E+00  0.49202811393E+03  0.49202811393E+03  0.00000000000E+00 0.  1.
          2   -1    0    0  501    0  0.00000000000E+00 -0.00000000000E+00 -0.29779215860E+04  0.29779215860E+04  0.00000000000E+00 0. -1.
         23    2    1    2    0    0 -0.36055178171E+03 -0.73805710220E+03 -0.25156556898E+04  0.26479937017E+04  0.92850532167E+02 0.  0.
         13    1    3    3    0    0 -0.26125198435E+03 -0.51492163833E+03 -0.16285149103E+04  0.17278477092E+04  0.00000000000E+00 0.  1.
        -13    1    3    3    0    0 -0.99299797355E+02 -0.22313546387E+03 -0.88714077942E+03  0.92014599250E+03  0.00000000000E+00 0. -1.
         22    1    1    2    0    0  0.36055178171E+03  0.73805710220E+03  0.29762217718E+02  0.82195599822E+03  0.00000000000E+00 0.  1.
<mgrwt>
<rscale>  0 0.24209264E+04</rscale>
<asrwt>0</asrwt>
<pdfrwt beam="1">  1        2 0.45814179E+00 0.24209264E+04</pdfrwt>
<pdfrwt beam="2">  1       -2 0.75696631E-01 0.24209264E+04</pdfrwt>
<totfact> 0.25250614E+00</totfact>
</mgrwt>
</event>
<event>
 6    1  0.1072514E-005  0.3480087E+04  0.7818608E-02  0.8118525E-01
          2   -1    0    0  501    0  0.00000000000E+00  0.00000000000E+00  0.10016355917E+04  0.10016355917E+04  0.00000000000E+00 0. -1.
         -2   -1    0    0    0  501 -0.00000000000E+00 -0.00000000000E+00 -0.30228065027E+04  0.30228065027E+04  0.00000000000E+00 0.  1.
         23    2    1    2    0    0  0.13153435217E+04 -0.74500609695E+03 -0.17533487263E+02  0.15145166792E+04  0.91053192020E+02 0.  0.
         13    1    3    3    0    0  0.98854610502E+03 -0.58206803098E+03 -0.47168219350E+02  0.11481513120E+04  0.00000000000E+00 0. -1.
        -13    1    3    3    0    0  0.32679741667E+03 -0.16293806597E+03  0.29634732087E+02  0.36636536712E+03  0.00000000000E+00 0.  1.
         22    1    1    2    0    0 -0.13153435217E+04  0.74500609695E+03 -0.20036374237E+04  0.25099254153E+04  0.00000000000E+00 0.  1.
<mgrwt>
<rscale>  0 0.34800865E+04</rscale>
<asrwt>0</asrwt>
<pdfrwt beam="1">  1        2 0.15409779E+00 0.34800865E+04</pdfrwt>
<pdfrwt beam="2">  1       -2 0.46504715E+00 0.34800865E+04</pdfrwt>
<totfact> 0.57067283E-02</totfact>
</mgrwt>
</event>
<event>
 6    1  0.1072514E-005  0.1673412E+04  0.7818608E-02  0.8776675E-01
          1   -1    0    0  501    0  0.00000000000E+00  0.00000000000E+00  0.25223962439E+04  0.25223962439E+04  0.00000000000E+00 0. -1.
         -1   -1    0    0    0  501 -0.00000000000E+00 -0.00000000000E+00 -0.27754450817E+03  0.27754450817E+03  0.00000000000E+00 0.  1.
         23    2    1    2    0    0  0.41323232279E+03 -0.61033839329E+03  0.47246264994E+03  0.88039992719E+03  0.92785609226E+02 0.  0.
         13    1    3    3    0    0  0.17562122502E+03 -0.33881341021E+03  0.22749236363E+03  0.44428607577E+03  0.00000000000E+00 0. -1.
        -13    1    3    3    0    0  0.23761109777E+03 -0.27152498308E+03  0.24497028632E+03  0.43611385142E+03  0.00000000000E+00 0.  1.
         22    1    1    2    0    0 -0.41323232279E+03  0.61033839329E+03  0.17723890858E+04  0.19195408248E+04  0.00000000000E+00 0. -1.
<mgrwt>
<rscale>  0 0.16734124E+04</rscale>
<asrwt>0</asrwt>
<pdfrwt beam="1">  1        1 0.38806095E+00 0.16734124E+04</pdfrwt>
<pdfrwt beam="2">  1       -1 0.42699157E-01 0.16734124E+04</pdfrwt>
<totfact> 0.67434158E+00</totfact>
</mgrwt>
</event>
<event>
 6    1  0.1072514E-005  0.4386968E+04  0.7818608E-02  0.7930730E-01
         -2   -1    0    0    0  501 -0.00000000000E+00  0.00000000000E+00  0.12676106282E+04  0.12676106282E+04  0.00000000000E+00 0.  1.
          2   -1    0    0  501    0  0.00000000000E+00 -0.00000000000E+00 -0.37956227946E+04  0.37956227946E+04  0.00000000000E+00 0. -1.
         23    2    1    2    0    0 -0.90430869310E+03  0.19972654127E+04 -0.12855681172E+04  0.25432114871E+04  0.91629379968E+02 0.  0.
         13    1    3    3    0    0 -0.27326850759E+03  0.52004110314E+03 -0.31954935774E+03  0.66875273325E+03  0.00000000000E+00 0.  1.
        -13    1    3    3    0    0 -0.63104018551E+03  0.14772243095E+04 -0.96601875942E+03  0.18744587539E+04  0.00000000000E+00 0. -1.
         22    1    1    2    0    0  0.90430869310E+03 -0.19972654127E+04 -0.12424440493E+04  0.25200219357E+04  0.00000000000E+00 0.  1.
<mgrwt>
<rscale>  0 0.43869679E+04</rscale>
<asrwt>0</asrwt>
<pdfrwt beam="1">  1        2 0.58394196E+00 0.43869679E+04</pdfrwt>
<pdfrwt beam="2">  1       -2 0.19501702E+00 0.43869679E+04</pdfrwt>
<totfact> 0.54130517E-02</totfact>
</mgrwt>
</event>
<event>
 6    1  0.1072514E-005  0.2936910E+04  0.7818608E-02  0.8261980E-01
          2   -1    0    0  501    0  0.00000000000E+00  0.00000000000E+00  0.94629591703E+03  0.94629591703E+03  0.00000000000E+00 0. -1.
         -2   -1    0    0    0  501 -0.00000000000E+00 -0.00000000000E+00 -0.22787379524E+04  0.22787379524E+04  0.00000000000E+00 0.  1.
         23    2    1    2    0    0  0.65840580643E+03  0.24809047286E+03 -0.20803813104E+04  0.21981647210E+04  0.94311482345E+02 0.  0.
         13    1    3    3    0    0  0.49587620668E+03  0.14973024268E+03 -0.15912455265E+04  0.16734320075E+04  0.00000000000E+00 0. -1.
        -13    1    3    3    0    0  0.16252959975E+03  0.98360230182E+02 -0.48913578384E+03  0.52473271359E+03  0.00000000000E+00 0.  1.
         22    1    1    2    0    0 -0.65840580643E+03 -0.24809047286E+03  0.74793927503E+03  0.10268691483E+04  0.00000000000E+00 0. -1.
<mgrwt>
<rscale>  0 0.29369102E+04</rscale>
<asrwt>0</asrwt>
<pdfrwt beam="1">  1        2 0.14558399E+00 0.29369102E+04</pdfrwt>
<pdfrwt beam="2">  1       -2 0.35057506E+00 0.29369102E+04</pdfrwt>
<totfact> 0.36239731E-01</totfact>
</mgrwt>
</event>
<event>
 6    1  0.1072514E-005  0.4425377E+04  0.7818608E-02  0.7923833E-01
         -2   -1    0    0    0  501 -0.00000000000E+00  0.00000000000E+00  0.15811964648E+04  0.15811964648E+04  0.00000000000E+00 0.  1.
          2   -1    0    0  501    0  0.00000000000E+00 -0.00000000000E+00 -0.30963829169E+04  0.30963829169E+04  0.00000000000E+00 0. -1.
         23    2    1    2    0    0 -0.29907224224E+03  0.12838580920E+04  0.11192433020E+04  0.17317423299E+04  0.92141857079E+02 0.  0.
         13    1    3    3    0    0 -0.23137473721E+03  0.79726670961E+03  0.70616326218E+03  0.10898784465E+04  0.00000000000E+00 0. -1.
        -13    1    3    3    0    0 -0.67697505027E+02  0.48659138235E+03  0.41308003983E+03  0.64186388345E+03  0.00000000000E+00 0.  1.
         22    1    1    2    0    0  0.29907224224E+03 -0.12838580920E+04 -0.26344297541E+04  0.29458370518E+04  0.00000000000E+00 0. -1.
<mgrwt>
<rscale>  0 0.44253767E+04</rscale>
<asrwt>0</asrwt>
<pdfrwt beam="1">  1        2 0.47636660E+00 0.44253767E+04</pdfrwt>
<pdfrwt beam="2">  1       -2 0.24326100E+00 0.44253767E+04</pdfrwt>
<totfact> 0.81489745E-02</totfact>
</mgrwt>
</event>
<event>
 6    1  0.1252716E-005  0.6019491E+04  0.7818608E-02  0.7687990E-01
          2   -1    0    0  501    0  0.00000000000E+00  0.00000000000E+00  0.29048893408E+04  0.29048893408E+04  0.00000000000E+00 0. -1.
         -2   -1    0    0    0  501 -0.00000000000E+00 -0.00000000000E+00 -0.31183864700E+04  0.31183864700E+04  0.00000000000E+00 0.  1.
         23    2    1    2    0    0  0.12190130903E+04 -0.19783192296E+04 -0.20197024042E+04  0.30801282807E+04  0.90843470226E+02 0.  0.
         13    1    3    3    0    0  0.84827055189E+03 -0.13614050947E+04 -0.14482032581E+04  0.21610829317E+04  0.00000000000E+00 0. -1.
        -13    1    3    3    0    0  0.37074253840E+03 -0.61691413488E+03 -0.57149914607E+03  0.91904534902E+03  0.00000000000E+00 0.  1.
         22    1    1    2    0    0 -0.12190130903E+04  0.19783192296E+04  0.18062052750E+04  0.29431475301E+04  0.00000000000E+00 0. -1.
<mgrwt>
<rscale>  0 0.60194909E+04</rscale>
<asrwt>0</asrwt>
<pdfrwt beam="1">  1        2 0.44690605E+00 0.60194909E+04</pdfrwt>
<pdfrwt beam="2">  1       -2 0.47975177E+00 0.60194909E+04</pdfrwt>
<totfact> 0.29965936E-03</totfact>
</mgrwt>
</event>
<event>
 6    1  0.1072514E-005  0.2253957E+04  0.7818608E-02  0.8496300E-01
         -2   -1    0    0    0  501 -0.00000000000E+00  0.00000000000E+00  0.69507118316E+03  0.69507118316E+03  0.00000000000E+00 0.  1.
          2   -1    0    0  501    0  0.00000000000E+00 -0.00000000000E+00 -0.18272669517E+04  0.18272669517E+04  0.00000000000E+00 0. -1.
         23    2    1    2    0    0  0.84487488952E+03  0.70562909326E+03 -0.30575828091E+03  0.11458480633E+04  0.88054878403E+02 0.  0.
         13    1    3    3    0    0  0.60419374010E+03  0.50383532823E+03 -0.17681625062E+03  0.80632753892E+03  0.00000000000E+00 0.  1.
        -13    1    3    3    0    0  0.24068114942E+03  0.20179376504E+03 -0.12894203028E+03  0.33952052437E+03  0.00000000000E+00 0. -1.
         22    1    1    2    0    0 -0.84487488952E+03 -0.70562909326E+03 -0.82643748767E+03  0.13764900716E+04  0.00000000000E+00 0. -1.
<mgrwt>
<rscale>  0 0.22539571E+04</rscale>
<asrwt>0</asrwt>
<pdfrwt beam="1">  1        2 0.28111799E+00 0.22539571E+04</pdfrwt>
<pdfrwt beam="2">  1       -2 0.10693403E+00 0.22539571E+04</pdfrwt>
<totfact> 0.53349530E+00</totfact>
</mgrwt>
</event>
<event>
 6    1  0.1072514E-005  0.3674388E+04  0.7818608E-02  0.8073662E-01
         -1   -1    0    0    0  501 -0.00000000000E+00  0.00000000000E+00  0.22113689667E+04  0.22113689667E+04  0.00000000000E+00 0. -1.
          1   -1    0    0  501    0  0.00000000000E+00 -0.00000000000E+00 -0.15263309451E+04  0.15263309451E+04  0.00000000000E+00 0.  1.
         23    2    1    2    0    0  0.43370471073E+03 -0.13887829356E+04  0.14819371882E+04  0.20788249618E+04  0.92507154457E+02 0.  0.
         11    1    3    3    0    0  0.23878817595E+02 -0.79501905039E+02  0.11798135016E+03  0.14425792810E+03  0.00000000000E+00 0.  1.
        -11    1    3    3    0    0  0.40982589313E+03 -0.13092810306E+04  0.13639558380E+04  0.19345670337E+04  0.00000000000E+00 0. -1.
         22    1    1    2    0    0 -0.43370471073E+03  0.13887829356E+04 -0.79689916658E+03  0.16588749501E+04  0.00000000000E+00 0.  1.
<mgrwt>
<rscale>  0 0.36743875E+04</rscale>
<asrwt>0</asrwt>
<pdfrwt beam="1">  1        1 0.23482015E+00 0.36743875E+04</pdfrwt>
<pdfrwt beam="2">  1       -1 0.34021061E+00 0.36743875E+04</pdfrwt>
<totfact> 0.90929409E-02</totfact>
</mgrwt>
</event>
<event>
 6    1  0.1072514E-005  0.2052803E+04  0.7818608E-02  0.8582324E-01
         -1   -1    0    0    0  501 -0.00000000000E+00  0.00000000000E+00  0.12078671204E+04  0.12078671204E+04  0.00000000000E+00 0.  1.
          1   -1    0    0  501    0  0.00000000000E+00 -0.00000000000E+00 -0.87219827081E+03  0.87219827081E+03  0.00000000000E+00 0. -1.
         23    2    1    2    0    0  0.89967848833E+03 -0.35179308326E+03  0.51342410030E+03  0.10978349269E+04  0.91964472684E+02 0.  0.
         13    1    3    3    0    0  0.63285521654E+03 -0.23938865118E+03  0.40560674947E+03  0.78887862604E+03  0.00000000000E+00 0. -1.
        -13    1    3    3    0    0  0.26682327179E+03 -0.11240443207E+03  0.10781735083E+03  0.30895630089E+03  0.00000000000E+00 0.  1.
         22    1    1    2    0    0 -0.89967848833E+03  0.35179308326E+03 -0.17775525072E+03  0.98223046427E+03  0.00000000000E+00 0. -1.
<mgrwt>
<rscale>  0 0.20528026E+04</rscale>
<asrwt>0</asrwt>
<pdfrwt beam="1">  1        1 0.13418435E+00 0.20528026E+04</pdfrwt>
<pdfrwt beam="2">  1       -1 0.18582571E+00 0.20528026E+04</pdfrwt>
<totfact> 0.33502986E+00</totfact>
</mgrwt>
</event>
<event>
 6    1  0.1072514E-005  0.2808210E+04  0.7818608E-02  0.8300724E-01
          1   -1    0    0  501    0  0.00000000000E+00  0.00000000000E+00  0.93834263677E+03  0.93834263677E+03  0.00000000000E+00 0. -1.
         -1   -1    0    0    0  501 -0.00000000000E+00 -0.00000000000E+00 -0.21010561240E+04  0.21010561240E+04  0.00000000000E+00 0.  1.
         23    2    1    2    0    0 -0.37648524495E+03 -0.57874438722E+03 -0.19034474926E+04  0.20267916937E+04  0.89922228599E+02 0.  0.
         11    1    3    3    0    0 -0.22761251360E+03 -0.36096478432E+03 -0.10465854036E+04  0.11302406995E+04  0.00000000000E+00 0.  1.
        -11    1    3    3    0    0 -0.14887273135E+03 -0.21777960290E+03 -0.85686208902E+03  0.89655099418E+03  0.00000000000E+00 0. -1.
         22    1    1    2    0    0  0.37648524495E+03  0.57874438722E+03  0.74073400541E+03  0.10126070670E+04  0.00000000000E+00 0. -1.
<mgrwt>
<rscale>  0 0.28082098E+04</rscale>
<asrwt>0</asrwt>
<pdfrwt beam="1">  1        1 0.14436041E+00 0.28082098E+04</pdfrwt>
<pdfrwt beam="2">  1       -1 0.32323940E+00 0.28082098E+04</pdfrwt>
<totfact> 0.34151389E-01</totfact>
</mgrwt>
</event>
<event>
 6    1  0.1072514E-005  0.2279354E+04  0.7818608E-02  0.8486106E-01
         -1   -1    0    0    0  501 -0.00000000000E+00  0.00000000000E+00  0.80623236177E+03  0.80623236177E+03  0.00000000000E+00 0.  1.
          1   -1    0    0  501    0  0.00000000000E+00 -0.00000000000E+00 -0.16110286653E+04  0.16110286653E+04  0.00000000000E+00 0. -1.
         23    2    1    2    0    0 -0.54889090058E+03 -0.44435075209E+03  0.54320823633E+03  0.89547094591E+03  0.89800976205E+02 0.  0.
         11    1    3    3    0    0 -0.15367609722E+03 -0.75341450928E+02  0.12670144999E+03  0.21294584878E+03  0.00000000000E+00 0.  1.
        -11    1    3    3    0    0 -0.39521480336E+03 -0.36900930116E+03  0.41650678635E+03  0.68252509713E+03  0.00000000000E+00 0. -1.
         22    1    1    2    0    0  0.54889090058E+03  0.44435075209E+03 -0.13480045399E+04  0.15217900812E+04  0.00000000000E+00 0. -1.
<mgrwt>
<rscale>  0 0.22793538E+04</rscale>
<asrwt>0</asrwt>
<pdfrwt beam="1">  1        1 0.24785056E+00 0.22793538E+04</pdfrwt>
<pdfrwt beam="2">  1       -1 0.12403575E+00 0.22793538E+04</pdfrwt>
<totfact> 0.28327496E+00</totfact>
</mgrwt>
</event>
<event>
 6    1  0.1072514E-005  0.1339636E+04  0.7818608E-02  0.8998711E-01
          1   -1    0    0  501    0  0.00000000000E+00  0.00000000000E+00  0.61730611031E+03  0.61730611031E+03  0.00000000000E+00 0. -1.
         -1   -1    0    0    0  501 -0.00000000000E+00 -0.00000000000E+00 -0.72679679031E+03  0.72679679031E+03  0.00000000000E+00 0.  1.
         23    2    1    2    0    0 -0.66497950327E+03  0.41714702763E+02 -0.30364413245E+02  0.67313433034E+03  0.90829361388E+02 0.  0.
         11    1    3    3    0    0 -0.46231701359E+03 -0.91695352831E+01 -0.31659906375E+01  0.46241877658E+03  0.00000000000E+00 0.  1.
        -11    1    3    3    0    0 -0.20266248968E+03  0.50884238047E+02 -0.27198422607E+02  0.21071555376E+03  0.00000000000E+00 0. -1.
         22    1    1    2    0    0  0.66497950327E+03 -0.41714702763E+02 -0.79126266756E+02  0.67096857027E+03  0.00000000000E+00 0.  1.
<mgrwt>
<rscale>  0 0.13396359E+04</rscale>
<asrwt>0</asrwt>
<pdfrwt beam="1">  1        1 0.94970172E-01 0.13396359E+04</pdfrwt>
<pdfrwt beam="2">  1       -1 0.11181489E+00 0.13396359E+04</pdfrwt>
<totfact> 0.23641509E+01</totfact>
</mgrwt>
</event>
<event>
 6    1  0.1072514E-005  0.1471462E+04  0.7818608E-02  0.8903655E-01
         -1   -1    0    0    0  501 -0.00000000000E+00  0.00000000000E+00  0.86244807487E+03  0.86244807487E+03  0.00000000000E+00 0.  1.
          1   -1    0    0  501    0  0.00000000000E+00 -0.00000000000E+00 -0.62763244272E+03  0.62763244272E+03  0.00000000000E+00 0. -1.
         23    2    1    2    0    0 -0.55806654260E+03 -0.38171343084E+03  0.40413693745E+03  0.79307756661E+03  0.92206036635E+02 0.  0.
         11    1    3    3    0    0 -0.41189374201E+03 -0.23249208600E+03  0.26598374673E+03  0.54263834944E+03  0.00000000000E+00 0. -1.
        -11    1    3    3    0    0 -0.14617280058E+03 -0.14922134484E+03  0.13815319072E+03  0.25043921716E+03  0.00000000000E+00 0.  1.
         22    1    1    2    0    0  0.55806654260E+03  0.38171343084E+03 -0.16932130531E+03  0.69700295098E+03  0.00000000000E+00 0. -1.
<mgrwt>
<rscale>  0 0.14714624E+04</rscale>
<asrwt>0</asrwt>
<pdfrwt beam="1">  1        1 0.96558837E-01 0.14714624E+04</pdfrwt>
<pdfrwt beam="2">  1       -1 0.13268432E+00 0.14714624E+04</pdfrwt>
<totfact> 0.14976137E+01</totfact>
</mgrwt>
</event>
<event>
 6    1  0.1535832E-005  0.3285825E+04  0.7818608E-02  0.8166512E-01
         -2   -1    0    0    0  501 -0.00000000000E+00  0.00000000000E+00  0.13627169770E+04  0.13627169770E+04  0.00000000000E+00 0.  1.
          2   -1    0    0  501    0  0.00000000000E+00 -0.00000000000E+00 -0.19807205368E+04  0.19807205368E+04  0.00000000000E+00 0. -1.
         23    2    1    2    0    0 -0.86591709939E+03  0.10192660046E+04 -0.12787644456E+04  0.18516866769E+04  0.69205714358E+02 0.  0.
         11    1    3    3    0    0 -0.44030507941E+03  0.47413467711E+03 -0.64504076565E+03  0.91364645478E+03  0.00000000000E+00 0. -1.
        -11    1    3    3    0    0 -0.42561201998E+03  0.54513132746E+03 -0.63372367999E+03  0.93804022212E+03  0.00000000000E+00 0.  1.
         22    1    1    2    0    0  0.86591709939E+03 -0.10192660046E+04  0.66076088583E+03  0.14917508369E+04  0.00000000000E+00 0.  1.
<mgrwt>
<rscale>  0 0.32858250E+04</rscale>
<asrwt>0</asrwt>
<pdfrwt beam="1">  1        2 0.30472624E+00 0.32858250E+04</pdfrwt>
<pdfrwt beam="2">  1       -2 0.20964877E+00 0.32858250E+04</pdfrwt>
<totfact> 0.65919610E-01</totfact>
</mgrwt>
</event>
<event>
 6    1  0.1072514E-005  0.2057844E+04  0.7818608E-02  0.8580044E-01
          3   -1    0    0  501    0  0.00000000000E+00  0.00000000000E+00  0.20002318930E+04  0.20002318930E+04  0.00000000000E+00 0. -1.
         -3   -1    0    0    0  501 -0.00000000000E+00 -0.00000000000E+00 -0.52927899811E+03  0.52927899811E+03  0.00000000000E+00 0.  1.
         23    2    1    2    0    0 -0.84188944386E+03  0.56147701366E+03  0.52231725791E+03  0.11424478629E+04  0.91310070248E+02 0.  0.
         11    1    3    3    0    0 -0.28370037346E+03  0.14297665586E+03  0.18341587998E+03  0.36683730870E+03  0.00000000000E+00 0.  1.
        -11    1    3    3    0    0 -0.55818907040E+03  0.41850035780E+03  0.33890137793E+03  0.77561055418E+03  0.00000000000E+00 0. -1.
         22    1    1    2    0    0  0.84188944386E+03 -0.56147701366E+03  0.94863563695E+03  0.13870630282E+04  0.00000000000E+00 0. -1.
<mgrwt>
<rscale>  0 0.20578442E+04</rscale>
<asrwt>0</asrwt>
<pdfrwt beam="1">  1        3 0.30772798E+00 0.20578442E+04</pdfrwt>
<pdfrwt beam="2">  1       -3 0.81427539E-01 0.20578442E+04</pdfrwt>
<totfact> 0.11855500E-01</totfact>
</mgrwt>
</event>
<event>
 6    1  0.1072514E-005  0.1140589E+04  0.7818608E-02  0.9166510E-01
         -1   -1    0    0    0  501 -0.00000000000E+00  0.00000000000E+00  0.55953688061E+03  0.55953688061E+03  0.00000000000E+00 0. -1.
          1   -1    0    0  501    0  0.00000000000E+00 -0.00000000000E+00 -0.58125861268E+03  0.58125861268E+03  0.00000000000E+00 0.  1.
         23    2    1    2    0    0  0.33943480828E+03 -0.30606175298E+03 -0.34347260106E+03  0.58185595505E+03  0.10813481877E+03 0.  0.
         13    1    3    3    0    0  0.53222240468E+02 -0.10626727898E+03 -0.65925620820E+02  0.13591000310E+03  0.00000000000E+00 0. -1.
        -13    1    3    3    0    0  0.28621256782E+03 -0.19979447400E+03 -0.27754698024E+03  0.44594595195E+03  0.00000000000E+00 0.  1.
         22    1    1    2    0    0 -0.33943480828E+03  0.30606175298E+03  0.32175086899E+03  0.55893953824E+03  0.00000000000E+00 0. -1.
<mgrwt>
<rscale>  0 0.11405887E+04</rscale>
<asrwt>0</asrwt>
<pdfrwt beam="1">  1        1 0.89424402E-01 0.11405887E+04</pdfrwt>
<pdfrwt beam="2">  1       -1 0.86082597E-01 0.11405887E+04</pdfrwt>
<totfact> 0.47482871E+01</totfact>
</mgrwt>
</event>
<event>
 6    1  0.1072514E-005  0.2563787E+04  0.7818608E-02  0.8380607E-01
         -2   -1    0    0    0  501 -0.00000000000E+00  0.00000000000E+00  0.13453286719E+04  0.13453286719E+04  0.00000000000E+00 0.  1.
          2   -1    0    0  501    0  0.00000000000E+00 -0.00000000000E+00 -0.12214498055E+04  0.12214498055E+04  0.00000000000E+00 0. -1.
         23    2    1    2    0    0 -0.21354508079E+03 -0.12407272404E+04 -0.17143912121E+03  0.12736356777E+04  0.88039084748E+02 0.  0.
         13    1    3    3    0    0 -0.15959379376E+03 -0.70755403469E+03 -0.12125856307E+03  0.73539549232E+03  0.00000000000E+00 0.  1.
        -13    1    3    3    0    0 -0.53951287031E+02 -0.53317320575E+03 -0.50180558140E+02  0.53824018534E+03  0.00000000000E+00 0. -1.
         22    1    1    2    0    0  0.21354508079E+03  0.12407272404E+04  0.29531798757E+03  0.12931427997E+04  0.00000000000E+00 0. -1.
<mgrwt>
<rscale>  0 0.25637874E+04</rscale>
<asrwt>0</asrwt>
<pdfrwt beam="1">  1        2 0.18791535E+00 0.25637874E+04</pdfrwt>
<pdfrwt beam="2">  1       -2 0.20697364E+00 0.25637874E+04</pdfrwt>
<totfact> 0.19542857E+00</totfact>
</mgrwt>
</event>
<event>
 6    1  0.2752235E-005  0.3324032E+04  0.7818608E-02  0.8156807E-01
          2   -1    0    0  501    0  0.00000000000E+00  0.00000000000E+00  0.21090332526E+04  0.21090332526E+04  0.00000000000E+00 0. -1.
         -2   -1    0    0    0  501 -0.00000000000E+00 -0.00000000000E+00 -0.13097457825E+04  0.13097457825E+04  0.00000000000E+00 0.  1.
         23    2    1    2    0    0  0.46820499540E+03  0.85542089826E+02  0.20364131533E+04  0.20932552433E+04  0.90584854867E+02 0.  0.
         13    1    3    3    0    0  0.19756887197E+03  0.53067747594E+02  0.10572647834E+04  0.10768743971E+04  0.00000000000E+00 0.  1.
        -13    1    3    3    0    0  0.27063612343E+03  0.32474342232E+02  0.97914836988E+03  0.10163808462E+04  0.00000000000E+00 0. -1.
         22    1    1    2    0    0 -0.46820499540E+03 -0.85542089826E+02 -0.12371256831E+04  0.13255237918E+04  0.00000000000E+00 0.  1.
<mgrwt>
<rscale>  0 0.33240321E+04</rscale>
<asrwt>0</asrwt>
<pdfrwt beam="1">  1        2 0.32446665E+00 0.33240321E+04</pdfrwt>
<pdfrwt beam="2">  1       -2 0.20149935E+00 0.33240321E+04</pdfrwt>
<totfact> 0.62950463E-01</totfact>
</mgrwt>
</event>
<event>
 6    1  0.1072514E-005  0.1562662E+04  0.7818608E-02  0.8843820E-01
          1   -1    0    0  501    0  0.00000000000E+00  0.00000000000E+00  0.89400180683E+03  0.89400180683E+03  0.00000000000E+00 0. -1.
         -1   -1    0    0    0  501 -0.00000000000E+00 -0.00000000000E+00 -0.68286012621E+03  0.68286012621E+03  0.00000000000E+00 0.  1.
         23    2    1    2    0    0  0.10008852054E+03  0.59709001138E+03 -0.38800421700E+03  0.72509318492E+03  0.93159330083E+02 0.  0.
         13    1    3    3    0    0  0.95801222355E+02  0.32054372022E+03 -0.18782021390E+03  0.38366988874E+03  0.00000000000E+00 0.  1.
        -13    1    3    3    0    0  0.42872981871E+01  0.27654629115E+03 -0.20018400310E+03  0.34142329618E+03  0.00000000000E+00 0. -1.
         22    1    1    2    0    0 -0.10008852054E+03 -0.59709001138E+03  0.59914589762E+03  0.85176874811E+03  0.00000000000E+00 0.  1.
<mgrwt>
<rscale>  0 0.15626621E+04</rscale>
<asrwt>0</asrwt>
<pdfrwt beam="1">  1        1 0.13753874E+00 0.15626621E+04</pdfrwt>
<pdfrwt beam="2">  1       -1 0.10505540E+00 0.15626621E+04</pdfrwt>
<totfact> 0.15066634E+01</totfact>
</mgrwt>
</event>
<event>
 6    1  0.1072514E-005  0.2266614E+04  0.7818608E-02  0.8491202E-01
          2   -1    0    0  501    0  0.00000000000E+00  0.00000000000E+00  0.15285074905E+04  0.15285074905E+04  0.00000000000E+00 0. -1.
         -2   -1    0    0    0  501 -0.00000000000E+00 -0.00000000000E+00 -0.84028708637E+03  0.84028708637E+03  0.00000000000E+00 0.  1.
         23    2    1    2    0    0 -0.78576346776E+02  0.71106378767E+03 -0.57148112285E+03  0.92012833184E+03  0.90881906155E+02 0.  0.
         11    1    3    3    0    0 -0.63068939435E+02  0.64036290921E+03 -0.47636468008E+03  0.80060330692E+03  0.00000000000E+00 0.  1.
        -11    1    3    3    0    0 -0.15507407341E+02  0.70700878456E+02 -0.95116442769E+02  0.11952502492E+03  0.00000000000E+00 0. -1.
         22    1    1    2    0    0  0.78576346776E+02 -0.71106378767E+03  0.12597015270E+04  0.14486662450E+04  0.00000000000E+00 0. -1.
<mgrwt>
<rscale>  0 0.22666143E+04</rscale>
<asrwt>0</asrwt>
<pdfrwt beam="1">  1        2 0.23515500E+00 0.22666143E+04</pdfrwt>
<pdfrwt beam="2">  1       -2 0.12927494E+00 0.22666143E+04</pdfrwt>
<totfact> 0.48992098E+00</totfact>
</mgrwt>
</event>
<event>
 6    1  0.1072514E-005  0.1114875E+04  0.7818608E-02  0.9190814E-01
          2   -1    0    0  501    0  0.00000000000E+00  0.00000000000E+00  0.40865506871E+03  0.40865506871E+03  0.00000000000E+00 0.  1.
         -2   -1    0    0    0  501 -0.00000000000E+00 -0.00000000000E+00 -0.76038782454E+03  0.76038782454E+03  0.00000000000E+00 0. -1.
         23    2    1    2    0    0 -0.22316323401E+03 -0.43805724986E+03 -0.44440609829E+03  0.66875864248E+03  0.89695922513E+02 0.  0.
         13    1    3    3    0    0 -0.54692852445E+02 -0.52463267712E+02 -0.96947837546E+02  0.12305521432E+03  0.00000000000E+00 0. -1.
        -13    1    3    3    0    0 -0.16847038157E+03 -0.38559398215E+03 -0.34745826074E+03  0.54570342815E+03  0.00000000000E+00 0.  1.
         22    1    1    2    0    0  0.22316323401E+03  0.43805724986E+03  0.92673342456E+02  0.50028425078E+03  0.00000000000E+00 0.  1.
<mgrwt>
<rscale>  0 0.11148746E+04</rscale>
<asrwt>0</asrwt>
<pdfrwt beam="1">  1        2 0.62870011E-01 0.11148746E+04</pdfrwt>
<pdfrwt beam="2">  1       -2 0.11698274E+00 0.11148746E+04</pdfrwt>
<totfact> 0.43526349E+01</totfact>
</mgrwt>
</event>
<event>
 6    1  0.1072514E-005  0.1455447E+04  0.7818608E-02  0.8914633E-01
          2   -1    0    0  501    0  0.00000000000E+00  0.00000000000E+00  0.13153090225E+04  0.13153090225E+04  0.00000000000E+00 0. -1.
         -2   -1    0    0    0  501 -0.00000000000E+00 -0.00000000000E+00 -0.40262870696E+03  0.40262870696E+03  0.00000000000E+00 0.  1.
         23    2    1    2    0    0  0.59004553542E+03 -0.22591580194E+03  0.87743587795E+03  0.10851392988E+04  0.91879782934E+02 0.  0.
         11    1    3    3    0    0  0.26626810416E+03 -0.15000659538E+03  0.40388176517E+03  0.50647918238E+03  0.00000000000E+00 0. -1.
        -11    1    3    3    0    0  0.32377743126E+03 -0.75909206559E+02  0.47355411278E+03  0.57866011644E+03  0.00000000000E+00 0.  1.
         22    1    1    2    0    0 -0.59004553542E+03  0.22591580194E+03  0.35244437590E+02  0.63279843063E+03  0.00000000000E+00 0.  1.
<mgrwt>
<rscale>  0 0.14554466E+04</rscale>
<asrwt>0</asrwt>
<pdfrwt beam="1">  1        2 0.20235523E+00 0.14554466E+04</pdfrwt>
<pdfrwt beam="2">  1       -2 0.61942879E-01 0.14554466E+04</pdfrwt>
<totfact> 0.37997433E+01</totfact>
</mgrwt>
</event>
<event>
 6    1  0.1072514E-005  0.3278204E+04  0.7818608E-02  0.8168464E-01
         -1   -1    0    0    0  501 -0.00000000000E+00  0.00000000000E+00  0.17550808454E+04  0.17550808454E+04  0.00000000000E+00 0.  1.
          1   -1    0    0  501    0  0.00000000000E+00 -0.00000000000E+00 -0.15307872682E+04  0.15307872682E+04  0.00000000000E+00 0. -1.
         23    2    1    2    0    0  0.80077639952E+03 -0.13710526115E+04  0.51750766981E+03  0.16712466070E+04  0.64984058058E+02 0.  0.
         11    1    3    3    0    0  0.33889780845E+03 -0.63589313669E+03  0.21779383035E+03  0.75275889793E+03  0.00000000000E+00 0.  1.
        -11    1    3    3    0    0  0.46187859107E+03 -0.73515947477E+03  0.29971383946E+03  0.91848770911E+03  0.00000000000E+00 0. -1.
         22    1    1    2    0    0 -0.80077639952E+03  0.13710526115E+04 -0.29321409257E+03  0.16146215066E+04  0.00000000000E+00 0.  1.
<mgrwt>
<rscale>  0 0.32782040E+04</rscale>
<asrwt>0</asrwt>
<pdfrwt beam="1">  1        1 0.23550573E+00 0.32782040E+04</pdfrwt>
<pdfrwt beam="2">  1       -1 0.27001244E+00 0.32782040E+04</pdfrwt>
<totfact> 0.26740112E-01</totfact>
</mgrwt>
</event>
<event>
 6    1  0.1072514E-005  0.1612087E+04  0.7818608E-02  0.8813156E-01
          2   -1    0    0  501    0  0.00000000000E+00  0.00000000000E+00  0.72830574887E+03  0.72830574887E+03  0.00000000000E+00 0.  1.
         -2   -1    0    0    0  501 -0.00000000000E+00 -0.00000000000E+00 -0.89207925906E+03  0.89207925906E+03  0.00000000000E+00 0. -1.
         23    2    1    2    0    0 -0.35283720058E+03 -0.35118598346E+02  0.64256621423E+03  0.73952681432E+03  0.91000897659E+02 0.  0.
         11    1    3    3    0    0 -0.13706111548E+03 -0.23676899751E+02  0.34328890379E+03  0.37039656643E+03  0.00000000000E+00 0.  1.
        -11    1    3    3    0    0 -0.21577608510E+03 -0.11441698595E+02  0.29927731044E+03  0.36913024789E+03  0.00000000000E+00 0. -1.
         22    1    1    2    0    0  0.35283720058E+03  0.35118598346E+02 -0.80633972442E+03  0.88085819361E+03  0.00000000000E+00 0. -1.
<mgrwt>
<rscale>  0 0.16120874E+04</rscale>
<asrwt>0</asrwt>
<pdfrwt beam="1">  1        2 0.11204704E+00 0.16120874E+04</pdfrwt>
<pdfrwt beam="2">  1       -2 0.13724296E+00 0.16120874E+04</pdfrwt>
<totfact> 0.14106762E+01</totfact>
</mgrwt>
</event>
<event>
 6    1  0.1072514E-005  0.4279851E+04  0.7818608E-02  0.7950354E-01
          2   -1    0    0  501    0  0.00000000000E+00  0.00000000000E+00  0.32807692873E+04  0.32807692873E+04  0.00000000000E+00 0. -1.
         -2   -1    0    0    0  501 -0.00000000000E+00 -0.00000000000E+00 -0.13957946544E+04  0.13957946544E+04  0.00000000000E+00 0.  1.
         23    2    1    2    0    0 -0.71837458588E+03  0.12415504371E+04  0.26766805728E+04  0.30381782029E+04  0.91642623127E+02 0.  0.
         11    1    3    3    0    0 -0.23923482766E+03  0.48460547928E+03  0.10636335996E+04  0.11930600184E+04  0.00000000000E+00 0. -1.
        -11    1    3    3    0    0 -0.47913975822E+03  0.75694495778E+03  0.16130469732E+04  0.18451181845E+04  0.00000000000E+00 0.  1.
         22    1    1    2    0    0  0.71837458588E+03 -0.12415504371E+04 -0.79170593995E+03  0.16383857387E+04  0.00000000000E+00 0.  1.
<mgrwt>
<rscale>  0 0.42798506E+04</rscale>
<asrwt>0</asrwt>
<pdfrwt beam="1">  1        2 0.50473374E+00 0.42798506E+04</pdfrwt>
<pdfrwt beam="2">  1       -2 0.21473764E+00 0.42798506E+04</pdfrwt>
<totfact> 0.94352465E-02</totfact>
</mgrwt>
</event>
<event>
 6    1  0.1072514E-005  0.3593035E+04  0.7818608E-02  0.8092089E-01
         -2   -1    0    0    0  501 -0.00000000000E+00  0.00000000000E+00  0.10030108807E+04  0.10030108807E+04  0.00000000000E+00 0.  1.
          2   -1    0    0  501    0  0.00000000000E+00 -0.00000000000E+00 -0.32177875886E+04  0.32177875886E+04  0.00000000000E+00 0. -1.
         23    2    1    2    0    0 -0.31169296859E+03 -0.12319103453E+04 -0.25979181965E+04  0.28935633711E+04  0.93671883601E+02 0.  0.
         11    1    3    3    0    0 -0.17013174381E+03 -0.70095313596E+03 -0.15778210305E+04  0.17348773194E+04  0.00000000000E+00 0. -1.
        -11    1    3    3    0    0 -0.14156122479E+03 -0.53095720930E+03 -0.10200971660E+04  0.11586860517E+04  0.00000000000E+00 0.  1.
         22    1    1    2    0    0  0.31169296859E+03  0.12319103453E+04  0.38314148859E+03  0.13272350981E+04  0.00000000000E+00 0.  1.
<mgrwt>
<rscale>  0 0.35930355E+04</rscale>
<asrwt>0</asrwt>
<pdfrwt beam="1">  1        2 0.49504425E+00 0.35930355E+04</pdfrwt>
<pdfrwt beam="2">  1       -2 0.15430937E+00 0.35930355E+04</pdfrwt>
<totfact> 0.28572742E-01</totfact>
</mgrwt>
</event>
<event>
 6    1  0.1072514E-005  0.7061150E+04  0.7818608E-02  0.7571162E-01
         -2   -1    0    0    0  501 -0.00000000000E+00  0.00000000000E+00  0.30623704538E+04  0.30623704538E+04  0.00000000000E+00 0.  1.
          2   -1    0    0  501    0  0.00000000000E+00 -0.00000000000E+00 -0.40703628389E+04  0.40703628389E+04  0.00000000000E+00 0. -1.
         23    2    1    2    0    0 -0.23667690598E+04  0.21181991117E+03 -0.31409894889E+04  0.39395937558E+04  0.90114008678E+02 0.  0.
         11    1    3    3    0    0 -0.19178169267E+04  0.14551127529E+03 -0.25009069414E+04  0.31549533793E+04  0.00000000000E+00 0. -1.
        -11    1    3    3    0    0 -0.44895213305E+03  0.66308635881E+02 -0.64008254745E+03  0.78464037655E+03  0.00000000000E+00 0.  1.
         22    1    1    2    0    0  0.23667690598E+04 -0.21181991117E+03  0.21329971038E+04  0.31931395369E+04  0.00000000000E+00 0.  1.
<mgrwt>
<rscale>  0 0.70611497E+04</rscale>
<asrwt>0</asrwt>
<pdfrwt beam="1">  1        2 0.62620967E+00 0.70611497E+04</pdfrwt>
<pdfrwt beam="2">  1       -2 0.47113392E+00 0.70611497E+04</pdfrwt>
<totfact> 0.47009146E-04</totfact>
</mgrwt>
</event>
<event>
 6    1  0.1072514E-005  0.2404430E+04  0.7818608E-02  0.8437847E-01
          1   -1    0    0  501    0  0.00000000000E+00  0.00000000000E+00  0.27338588877E+04  0.27338588877E+04  0.00000000000E+00 0. -1.
         -1   -1    0    0    0  501 -0.00000000000E+00 -0.00000000000E+00 -0.52867426291E+03  0.52867426291E+03  0.00000000000E+00 0.  1.
         23    2    1    2    0    0  0.10596234762E+04  0.36767299972E+03  0.52347087830E+03  0.12411112572E+04  0.91378587076E+02 0.  0.
         13    1    3    3    0    0  0.44994412397E+03  0.20382348695E+03  0.22422711988E+03  0.54246799889E+03  0.00000000000E+00 0.  1.
        -13    1    3    3    0    0  0.60967935226E+03  0.16384951277E+03  0.29924375842E+03  0.69864325829E+03  0.00000000000E+00 0. -1.
         22    1    1    2    0    0 -0.10596234762E+04 -0.36767299972E+03  0.16817137465E+04  0.20214218935E+04  0.00000000000E+00 0. -1.
<mgrwt>
<rscale>  0 0.24044299E+04</rscale>
<asrwt>0</asrwt>
<pdfrwt beam="1">  1        1 0.42059367E+00 0.24044299E+04</pdfrwt>
<pdfrwt beam="2">  1       -1 0.81334503E-01 0.24044299E+04</pdfrwt>
<totfact> 0.12525030E+00</totfact>
</mgrwt>
</event>
<event>
 6    1  0.1072514E-005  0.1791913E+04  0.7818608E-02  0.8710612E-01
          2   -1    0    0  501    0  0.00000000000E+00  0.00000000000E+00  0.22124755792E+04  0.22124755792E+04  0.00000000000E+00 0. -1.
         -2   -1    0    0    0  501 -0.00000000000E+00 -0.00000000000E+00 -0.36282356010E+03  0.36282356010E+03  0.00000000000E+00 0.  1.
         23    2    1    2    0    0 -0.48646230709E+02 -0.80514289727E+03  0.14802864168E+04  0.16881393516E+04  0.89135031316E+02 0.  0.
         13    1    3    3    0    0 -0.24703477702E+02 -0.25434103278E+03  0.55604817849E+03  0.61195522677E+03  0.00000000000E+00 0. -1.
        -13    1    3    3    0    0 -0.23942753008E+02 -0.55080186449E+03  0.92423823833E+03  0.10761841248E+04  0.00000000000E+00 0.  1.
         22    1    1    2    0    0  0.48646230709E+02  0.80514289727E+03  0.36936560229E+03  0.88715978772E+03  0.00000000000E+00 0.  1.
<mgrwt>
<rscale>  0 0.17919132E+04</rscale>
<asrwt>0</asrwt>
<pdfrwt beam="1">  1        2 0.34038085E+00 0.17919132E+04</pdfrwt>
<pdfrwt beam="2">  1       -2 0.55819011E-01 0.17919132E+04</pdfrwt>
<totfact> 0.14474662E+01</totfact>
</mgrwt>
</event>
<event>
 6    1  0.1072514E-005  0.1420799E+04  0.7818608E-02  0.8938899E-01
          2   -1    0    0  501    0  0.00000000000E+00  0.00000000000E+00  0.93915305947E+03  0.93915305947E+03  0.00000000000E+00 0.  1.
         -2   -1    0    0    0  501 -0.00000000000E+00 -0.00000000000E+00 -0.53736459879E+03  0.53736459879E+03  0.00000000000E+00 0. -1.
         23    2    1    2    0    0 -0.66366737794E+03 -0.24412741361E+03  0.17909165460E+03  0.73513621119E+03  0.91098000161E+02 0.  0.
         13    1    3    3    0    0 -0.44966957910E+03 -0.17918805285E+03  0.16364076089E+03  0.51096906685E+03  0.00000000000E+00 0. -1.
        -13    1    3    3    0    0 -0.21399779884E+03 -0.64939360757E+02  0.15450893713E+02  0.22416714434E+03  0.00000000000E+00 0.  1.
         22    1    1    2    0    0  0.66366737794E+03  0.24412741361E+03  0.22269680608E+03  0.74138144707E+03  0.00000000000E+00 0. -1.
<mgrwt>
<rscale>  0 0.14207992E+04</rscale>
<asrwt>0</asrwt>
<pdfrwt beam="1">  1        2 0.14448509E+00 0.14207992E+04</pdfrwt>
<pdfrwt beam="2">  1       -2 0.82671477E-01 0.14207992E+04</pdfrwt>
<totfact> 0.34437981E+01</totfact>
</mgrwt>
</event>
<event>
 6    1  0.1072514E-005  0.2352666E+04  0.7818608E-02  0.8457440E-01
         -2   -1    0    0    0  501 -0.00000000000E+00  0.00000000000E+00  0.29196576195E+03  0.29196576195E+03  0.00000000000E+00 0.  1.
          2   -1    0    0  501    0  0.00000000000E+00 -0.00000000000E+00 -0.47394559750E+04  0.47394559750E+04  0.00000000000E+00 0. -1.
         23    2    1    2    0    0 -0.49578332099E+03  0.92748067720E+03 -0.33457227529E+04  0.35082956607E+04  0.90863610588E+02 0.  0.
         13    1    3    3    0    0 -0.30923580967E+03  0.50348091394E+03 -0.19678530428E+04  0.20546448391E+04  0.00000000000E+00 0. -1.
        -13    1    3    3    0    0 -0.18654751131E+03  0.42399976325E+03 -0.13778697101E+04  0.14536508216E+04  0.00000000000E+00 0.  1.
         22    1    1    2    0    0  0.49578332099E+03 -0.92748067720E+03 -0.11017674602E+04  0.15231260763E+04  0.00000000000E+00 0.  1.
<mgrwt>
<rscale>  0 0.23526656E+04</rscale>
<asrwt>0</asrwt>
<pdfrwt beam="1">  1        2 0.72914711E+00 0.23526656E+04</pdfrwt>
<pdfrwt beam="2">  1       -2 0.44917807E-01 0.23526656E+04</pdfrwt>
<totfact> 0.29819511E-01</totfact>
</mgrwt>
</event>
<event>
 6    1  0.1072514E-005  0.2035743E+04  0.7818608E-02  0.8590089E-01
         -1   -1    0    0    0  501 -0.00000000000E+00  0.00000000000E+00  0.10513480065E+04  0.10513480065E+04  0.00000000000E+00 0.  1.
          1   -1    0    0  501    0  0.00000000000E+00 -0.00000000000E+00 -0.98546134763E+03  0.98546134763E+03  0.00000000000E+00 0. -1.
         23    2    1    2    0    0  0.51523095239E+03  0.56025558619E+03 -0.64003493825E+03  0.99869830158E+03  0.91675074282E+02 0.  0.
         11    1    3    3    0    0  0.26877860916E+03  0.28970645887E+03 -0.27249911825E+03  0.48002868925E+03  0.00000000000E+00 0. -1.
        -11    1    3    3    0    0  0.24645234323E+03  0.27054912732E+03 -0.36753582000E+03  0.51866961233E+03  0.00000000000E+00 0.  1.
         22    1    1    2    0    0 -0.51523095239E+03 -0.56025558619E+03  0.70592159710E+03  0.10381110525E+04  0.00000000000E+00 0.  1.
<mgrwt>
<rscale>  0 0.20357434E+04</rscale>
<asrwt>0</asrwt>
<pdfrwt beam="1">  1        1 0.15160944E+00 0.20357434E+04</pdfrwt>
<pdfrwt beam="2">  1       -1 0.16174585E+00 0.20357434E+04</pdfrwt>
<totfact> 0.40727597E+00</totfact>
</mgrwt>
</event>
<event>
 6    1  0.1072514E-005  0.5964800E+04  0.7818608E-02  0.7694782E-01
         -2   -1    0    0    0  501 -0.00000000000E+00  0.00000000000E+00  0.37523002016E+04  0.37523002016E+04  0.00000000000E+00 0.  1.
          2   -1    0    0  501    0  0.00000000000E+00 -0.00000000000E+00 -0.23704686121E+04  0.23704686121E+04  0.00000000000E+00 0. -1.
         23    2    1    2    0    0  0.95567778145E+03 -0.26881453714E+04 -0.19844589048E+03  0.28613699614E+04  0.92799378633E+02 0.  0.
         13    1    3    3    0    0  0.29012524970E+03 -0.88720802247E+03 -0.28415762842E+02  0.93387268469E+03  0.00000000000E+00 0. -1.
        -13    1    3    3    0    0  0.66555253176E+03 -0.18009373489E+04 -0.17003012764E+03  0.19274972767E+04  0.00000000000E+00 0.  1.
         22    1    1    2    0    0 -0.95567778145E+03  0.26881453714E+04  0.15802774800E+04  0.32613988523E+04  0.00000000000E+00 0.  1.
<mgrwt>
<rscale>  0 0.59648000E+04</rscale>
<asrwt>0</asrwt>
<pdfrwt beam="1">  1        2 0.36468748E+00 0.59648000E+04</pdfrwt>
<pdfrwt beam="2">  1       -2 0.57727696E+00 0.59648000E+04</pdfrwt>
<totfact> 0.17981717E-03</totfact>
</mgrwt>
</event>
<event>
 6    1  0.1072514E-005  0.3280688E+04  0.7818608E-02  0.8167827E-01
         -2   -1    0    0    0  501 -0.00000000000E+00  0.00000000000E+00  0.14119878681E+04  0.14119878681E+04  0.00000000000E+00 0. -1.
          2   -1    0    0  501    0  0.00000000000E+00 -0.00000000000E+00 -0.19056317886E+04  0.19056317886E+04  0.00000000000E+00 0.  1.
         23    2    1    2    0    0 -0.10130829152E+03  0.96870028605E+03  0.10861959002E+04  0.14616731399E+04  0.89572429639E+02 0.  0.
         11    1    3    3    0    0 -0.86726369465E+02  0.89212621242E+03  0.10310430366E+04  0.13661846088E+04  0.00000000000E+00 0. -1.
        -11    1    3    3    0    0 -0.14581922052E+02  0.76574073631E+02  0.55152863577E+02  0.95488531060E+02  0.00000000000E+00 0.  1.
         22    1    1    2    0    0  0.10130829152E+03 -0.96870028605E+03 -0.15798398207E+04  0.18559465168E+04  0.00000000000E+00 0.  1.
<mgrwt>
<rscale>  0 0.32806883E+04</rscale>
<asrwt>0</asrwt>
<pdfrwt beam="1">  1        2 0.29317412E+00 0.32806883E+04</pdfrwt>
<pdfrwt beam="2">  1       -2 0.21722890E+00 0.32806883E+04</pdfrwt>
<totfact> 0.64914782E-01</totfact>
</mgrwt>
</event>
<event>
 6    1  0.1072514E-005  0.3125636E+04  0.7818608E-02  0.8208737E-01
         -1   -1    0    0    0  501 -0.00000000000E+00  0.00000000000E+00  0.17044043433E+04  0.17044043433E+04  0.00000000000E+00 0.  1.
          1   -1    0    0  501    0  0.00000000000E+00 -0.00000000000E+00 -0.14329936752E+04  0.14329936752E+04  0.00000000000E+00 0. -1.
         23    2    1    2    0    0 -0.39669453325E+02  0.93374113253E+03  0.13913966795E+04  0.16786948844E+04  0.92658659073E+02 0.  0.
         11    1    3    3    0    0 -0.50584432711E+02  0.61729741636E+03  0.85400003935E+03  0.10549554267E+04  0.00000000000E+00 0. -1.
        -11    1    3    3    0    0  0.10914979387E+02  0.31644371618E+03  0.53739664011E+03  0.62373945769E+03  0.00000000000E+00 0.  1.
         22    1    1    2    0    0  0.39669453325E+02 -0.93374113253E+03 -0.11199860113E+04  0.14587031342E+04  0.00000000000E+00 0. -1.
<mgrwt>
<rscale>  0 0.31256363E+04</rscale>
<asrwt>0</asrwt>
<pdfrwt beam="1">  1        1 0.22046057E+00 0.31256363E+04</pdfrwt>
<pdfrwt beam="2">  1       -1 0.26221605E+00 0.31256363E+04</pdfrwt>
<totfact> 0.35597983E-01</totfact>
</mgrwt>
</event>
<event>
 6    1  0.1072514E-005  0.6278489E+03  0.7818608E-02  0.9849256E-01
          2   -1    0    0  501    0  0.00000000000E+00  0.00000000000E+00  0.13043025859E+04  0.13043025859E+04  0.00000000000E+00 0. -1.
         -2   -1    0    0    0  501 -0.00000000000E+00 -0.00000000000E+00 -0.75556509994E+02  0.75556509994E+02  0.00000000000E+00 0.  1.
         23    2    1    2    0    0  0.30050928266E+03  0.60061182853E+02  0.57575611039E+03  0.65853457134E+03  0.90881837285E+02 0.  0.
         13    1    3    3    0    0  0.13756262681E+03 -0.14657470163E+02  0.21440412723E+03  0.25516161055E+03  0.00000000000E+00 0.  1.
        -13    1    3    3    0    0  0.16294665586E+03  0.74718653016E+02  0.36135198316E+03  0.40337296079E+03  0.00000000000E+00 0. -1.
         22    1    1    2    0    0 -0.30050928266E+03 -0.60061182853E+02  0.65298996549E+03  0.72132452453E+03  0.00000000000E+00 0. -1.
<mgrwt>
<rscale>  0 0.62784887E+03</rscale>
<asrwt>0</asrwt>
<pdfrwt beam="1">  1        2 0.20066192E+00 0.62784887E+03</pdfrwt>
<pdfrwt beam="2">  1       -2 0.11624079E-01 0.62784887E+03</pdfrwt>
<totfact> 0.89347169E+02</totfact>
</mgrwt>
</event>
<event>
 6    1  0.1072514E-005  0.3715587E+03  0.7818608E-02  0.1054099E+00
         -1   -1    0    0    0  501 -0.00000000000E+00  0.00000000000E+00  0.12341559671E+03  0.12341559671E+03  0.00000000000E+00 0.  1.
          1   -1    0    0  501    0  0.00000000000E+00 -0.00000000000E+00 -0.27965647446E+03  0.27965647446E+03  0.00000000000E+00 0. -1.
         23    2    1    2    0    0  0.16086919296E+03  0.38136428146E+02 -0.14176958913E+03  0.23711212845E+03  0.93756389970E+02 0.  0.
         13    1    3    3    0    0  0.78960744398E+01 -0.20869274997E+02 -0.34818743917E+02  0.41354800911E+02  0.00000000000E+00 0. -1.
        -13    1    3    3    0    0  0.15297311852E+03  0.59005703142E+02 -0.10695084521E+03  0.19575732754E+03  0.00000000000E+00 0.  1.
         22    1    1    2    0    0 -0.16086919296E+03 -0.38136428146E+02 -0.14471288611E+02  0.16595994272E+03  0.00000000000E+00 0.  1.
<mgrwt>
<rscale>  0 0.37155872E+03</rscale>
<asrwt>0</asrwt>
<pdfrwt beam="1">  1        1 0.43024073E-01 0.37155872E+03</pdfrwt>
<pdfrwt beam="2">  1       -1 0.18987015E-01 0.37155872E+03</pdfrwt>
<totfact> 0.21120648E+03</totfact>
</mgrwt>
</event>
<event>
 6    1  0.1072514E-005  0.2717810E+04  0.7818608E-02  0.8329249E-01
          1   -1    0    0  501    0  0.00000000000E+00  0.00000000000E+00  0.19602688373E+04  0.19602688373E+04  0.00000000000E+00 0. -1.
         -1   -1    0    0    0  501 -0.00000000000E+00 -0.00000000000E+00 -0.94202541130E+03  0.94202541130E+03  0.00000000000E+00 0.  1.
         23    2    1    2    0    0 -0.30619531473E+03 -0.11379052302E+03  0.19166270497E+04  0.19463669558E+04  0.90450125707E+02 0.  0.
         13    1    3    3    0    0 -0.84248999714E+02 -0.47220290053E+02  0.36625780820E+03  0.37877754925E+03  0.00000000000E+00 0. -1.
        -13    1    3    3    0    0 -0.22194631502E+03 -0.66570232964E+02  0.15503692415E+04  0.15675894066E+04  0.00000000000E+00 0.  1.
         22    1    1    2    0    0  0.30619531473E+03  0.11379052302E+03 -0.89838362365E+03  0.95592729281E+03  0.00000000000E+00 0.  1.
<mgrwt>
<rscale>  0 0.27178102E+04</rscale>
<asrwt>0</asrwt>
<pdfrwt beam="1">  1        1 0.30157982E+00 0.27178102E+04</pdfrwt>
<pdfrwt beam="2">  1       -1 0.14492699E+00 0.27178102E+04</pdfrwt>
<totfact> 0.10575653E+00</totfact>
</mgrwt>
</event>
<event>
 6    1  0.1072514E-005  0.7129788E+03  0.7818608E-02  0.9695291E-01
         -1   -1    0    0    0  501 -0.00000000000E+00  0.00000000000E+00  0.58491602160E+02  0.58491602160E+02  0.00000000000E+00 0.  1.
          1   -1    0    0  501    0  0.00000000000E+00 -0.00000000000E+00 -0.21726996223E+04  0.21726996223E+04  0.00000000000E+00 0. -1.
         23    2    1    2    0    0  0.27989607143E+03  0.54710424123E+02 -0.44075225310E+03  0.53360786994E+03  0.95602138791E+02 0.  0.
         13    1    3    3    0    0  0.79779516011E+02  0.65124039380E+01 -0.57432444770E+02  0.98517350209E+02  0.00000000000E+00 0.  1.
        -13    1    3    3    0    0  0.20011655542E+03  0.48198020185E+02 -0.38331980833E+03  0.43509051973E+03  0.00000000000E+00 0. -1.
         22    1    1    2    0    0 -0.27989607143E+03 -0.54710424123E+02 -0.16734557671E+04  0.16975833545E+04  0.00000000000E+00 0. -1.
<mgrwt>
<rscale>  0 0.71297877E+03</rscale>
<asrwt>0</asrwt>
<pdfrwt beam="1">  1        1 0.33426150E+00 0.71297877E+03</pdfrwt>
<pdfrwt beam="2">  1       -1 0.89987074E-02 0.71297877E+03</pdfrwt>
<totfact> 0.17580952E+02</totfact>
</mgrwt>
</event>
<event>
 6    1  0.1072514E-005  0.1389509E+04  0.7818608E-02  0.8961448E-01
         -2   -1    0    0    0  501 -0.00000000000E+00  0.00000000000E+00  0.44463536047E+03  0.44463536047E+03  0.00000000000E+00 0.  1.
          2   -1    0    0  501    0  0.00000000000E+00 -0.00000000000E+00 -0.10855723585E+04  0.10855723585E+04  0.00000000000E+00 0. -1.
         23    2    1    2    0    0 -0.10152961002E+03 -0.59210886251E+03  0.55759055382E+02  0.61026937450E+03  0.91752223020E+02 0.  0.
         13    1    3    3    0    0 -0.31950728475E+00 -0.13871643213E+03 -0.18066201008E+02  0.13988830632E+03  0.00000000000E+00 0.  1.
        -13    1    3    3    0    0 -0.10121010274E+03 -0.45339243038E+03  0.73825256389E+02  0.47038106818E+03  0.00000000000E+00 0. -1.
         22    1    1    2    0    0  0.10152961002E+03  0.59210886251E+03 -0.69669605339E+03  0.91993834444E+03  0.00000000000E+00 0. -1.
<mgrwt>
<rscale>  0 0.13895091E+04</rscale>
<asrwt>0</asrwt>
<pdfrwt beam="1">  1        2 0.16701113E+00 0.13895091E+04</pdfrwt>
<pdfrwt beam="2">  1       -2 0.68405440E-01 0.13895091E+04</pdfrwt>
<totfact> 0.42350143E+01</totfact>
</mgrwt>
</event>
<event>
 6    1  0.1072514E-005  0.2333556E+04  0.7818608E-02  0.8464807E-01
          3   -1    0    0  501    0  0.00000000000E+00  0.00000000000E+00  0.26126746374E+04  0.26126746374E+04  0.00000000000E+00 0. -1.
         -3   -1    0    0    0  501 -0.00000000000E+00 -0.00000000000E+00 -0.52106402092E+03  0.52106402092E+03  0.00000000000E+00 0.  1.
         23    2    1    2    0    0  0.27552896828E+03 -0.66895585580E+03  0.22736936936E+04  0.23877008602E+04  0.89522266529E+02 0.  0.
         13    1    3    3    0    0  0.73827532782E+02 -0.24575210494E+03  0.69448487862E+03  0.74037412726E+03  0.00000000000E+00 0. -1.
        -13    1    3    3    0    0  0.20170143549E+03 -0.42320375086E+03  0.15792088149E+04  0.16473267329E+04  0.00000000000E+00 0.  1.
         22    1    1    2    0    0 -0.27552896828E+03  0.66895585580E+03 -0.18208307704E+03  0.74603779818E+03  0.00000000000E+00 0.  1.
<mgrwt>
<rscale>  0 0.23335559E+04</rscale>
<asrwt>0</asrwt>
<pdfrwt beam="1">  1        3 0.40194994E+00 0.23335559E+04</pdfrwt>
<pdfrwt beam="2">  1       -3 0.80163697E-01 0.23335559E+04</pdfrwt>
<totfact> 0.37131675E-02</totfact>
</mgrwt>
</event>
<event>
 6    1  0.1072514E-005  0.1113020E+04  0.7818608E-02  0.9192594E-01
         -1   -1    0    0    0  501 -0.00000000000E+00  0.00000000000E+00  0.51698431235E+03  0.51698431235E+03  0.00000000000E+00 0.  1.
          1   -1    0    0  501    0  0.00000000000E+00 -0.00000000000E+00 -0.59905739942E+03  0.59905739942E+03  0.00000000000E+00 0. -1.
         23    2    1    2    0    0  0.39061716839E+03 -0.31884317822E+03 -0.26858274247E+03  0.57842791350E+03  0.90550632426E+02 0.  0.
         13    1    3    3    0    0  0.31449066977E+03 -0.24733439696E+03 -0.25154351449E+03  0.47260218469E+03  0.00000000000E+00 0.  1.
        -13    1    3    3    0    0  0.76126498611E+02 -0.71508781255E+02 -0.17039227977E+02  0.10582572881E+03  0.00000000000E+00 0. -1.
         22    1    1    2    0    0 -0.39061716839E+03  0.31884317822E+03  0.18650965540E+03  0.53761379827E+03  0.00000000000E+00 0.  1.
<mgrwt>
<rscale>  0 0.11130198E+04</rscale>
<asrwt>0</asrwt>
<pdfrwt beam="1">  1        1 0.92162677E-01 0.11130198E+04</pdfrwt>
<pdfrwt beam="2">  1       -1 0.79536048E-01 0.11130198E+04</pdfrwt>
<totfact> 0.54006284E+01</totfact>
</mgrwt>
</event>
<event>
 6    1  0.1072514E-005  0.7333320E+03  0.7818608E-02  0.9661869E-01
          2   -1    0    0  501    0  0.00000000000E+00  0.00000000000E+00  0.11075522998E+04  0.11075522998E+04  0.00000000000E+00 0.  1.
         -2   -1    0    0    0  501 -0.00000000000E+00 -0.00000000000E+00 -0.12138836616E+03  0.12138836616E+03  0.00000000000E+00 0. -1.
         23    2    1    2    0    0 -0.86944024797E+02 -0.22469988333E+03  0.50606366966E+02  0.26285720083E+03  0.92106474461E+02 0.  0.
         11    1    3    3    0    0 -0.33826175742E+02 -0.12072207653E+03  0.71374111645E+02  0.14426466559E+03  0.00000000000E+00 0.  1.
        -11    1    3    3    0    0 -0.53117849055E+02 -0.10397780680E+03 -0.20767744679E+02  0.11859253524E+03  0.00000000000E+00 0. -1.
         22    1    1    2    0    0  0.86944024797E+02  0.22469988333E+03  0.93555756673E+03  0.96608346517E+03  0.00000000000E+00 0.  1.
<mgrwt>
<rscale>  0 0.73333202E+03</rscale>
<asrwt>0</asrwt>
<pdfrwt beam="1">  1        2 0.17039266E+00 0.73333202E+03</pdfrwt>
<pdfrwt beam="2">  1       -2 0.18675134E-01 0.73333202E+03</pdfrwt>
<totfact> 0.52227822E+02</totfact>
</mgrwt>
</event>
<event>
 6    1  0.1072514E-005  0.2478406E+04  0.7818608E-02  0.8410719E-01
          1   -1    0    0  501    0  0.00000000000E+00  0.00000000000E+00  0.38702383480E+04  0.38702383480E+04  0.00000000000E+00 0.  1.
         -1   -1    0    0    0  501 -0.00000000000E+00 -0.00000000000E+00 -0.39677770904E+03  0.39677770904E+03  0.00000000000E+00 0. -1.
         23    2    1    2    0    0  0.95349875266E+03 -0.23887685578E+03  0.30335229919E+04  0.31900911957E+04  0.90543201279E+02 0.  0.
         11    1    3    3    0    0  0.78198460286E+03 -0.23063156303E+03  0.24859398345E+04  0.26162162942E+04  0.00000000000E+00 0. -1.
        -11    1    3    3    0    0  0.17151414980E+03 -0.82452927428E+01  0.54758315734E+03  0.57387490155E+03  0.00000000000E+00 0.  1.
         22    1    1    2    0    0 -0.95349875266E+03  0.23887685578E+03  0.43993764706E+03  0.10769248613E+04  0.00000000000E+00 0. -1.
<mgrwt>
<rscale>  0 0.24784062E+04</rscale>
<asrwt>0</asrwt>
<pdfrwt beam="1">  1        1 0.59542126E+00 0.24784062E+04</pdfrwt>
<pdfrwt beam="2">  1       -1 0.61042727E-01 0.24784062E+04</pdfrwt>
<totfact> 0.30181556E-01</totfact>
</mgrwt>
</event>
<event>
 6    1  0.1072514E-005  0.7826230E+03  0.7818608E-02  0.9585516E-01
         -2   -1    0    0    0  501 -0.00000000000E+00  0.00000000000E+00  0.15068750021E+03  0.15068750021E+03  0.00000000000E+00 0.  1.
          2   -1    0    0  501    0  0.00000000000E+00 -0.00000000000E+00 -0.10161737289E+04  0.10161737289E+04  0.00000000000E+00 0. -1.
         23    2    1    2    0    0 -0.17320029946E+03 -0.24916039262E+03 -0.83241553696E+02  0.32782250739E+03  0.91973882725E+02 0.  0.
         13    1    3    3    0    0 -0.10930046683E+03 -0.92706558819E+02 -0.10109514653E+02  0.14367776580E+03  0.00000000000E+00 0. -1.
        -13    1    3    3    0    0 -0.63899832632E+02 -0.15645383380E+03 -0.73132039043E+02  0.18414474159E+03  0.00000000000E+00 0.  1.
         22    1    1    2    0    0  0.17320029946E+03  0.24916039262E+03 -0.78224467502E+03  0.83903872174E+03  0.00000000000E+00 0. -1.
<mgrwt>
<rscale>  0 0.78262297E+03</rscale>
<asrwt>0</asrwt>
<pdfrwt beam="1">  1        2 0.15633442E+00 0.78262297E+03</pdfrwt>
<pdfrwt beam="2">  1       -2 0.23182693E-01 0.78262297E+03</pdfrwt>
<totfact> 0.40600334E+02</totfact>
</mgrwt>
</event>
<event>
 6    1  0.1072514E-005  0.2230203E+04  0.7818608E-02  0.8505961E-01
          1   -1    0    0  501    0  0.00000000000E+00  0.00000000000E+00  0.13244322226E+04  0.13244322226E+04  0.00000000000E+00 0. -1.
         -1   -1    0    0    0  501 -0.00000000000E+00 -0.00000000000E+00 -0.93885623801E+03  0.93885623801E+03  0.00000000000E+00 0.  1.
         23    2    1    2    0    0  0.86936119199E+03 -0.62069298860E+03 -0.12394409220E+03  0.10797938992E+04  0.97693697181E+02 0.  0.
         13    1    3    3    0    0  0.17023844885E+03 -0.16698231166E+03 -0.10798688772E+02  0.23870658465E+03  0.00000000000E+00 0. -1.
        -13    1    3    3    0    0  0.69912274314E+03 -0.45371067694E+03 -0.11314540343E+03  0.84108731453E+03  0.00000000000E+00 0.  1.
         22    1    1    2    0    0 -0.86936119199E+03  0.62069298860E+03  0.50952007675E+03  0.11834945614E+04  0.00000000000E+00 0. -1.
<mgrwt>
<rscale>  0 0.22302031E+04</rscale>
<asrwt>0</asrwt>
<pdfrwt beam="1">  1        1 0.20375880E+00 0.22302031E+04</pdfrwt>
<pdfrwt beam="2">  1       -1 0.14443942E+00 0.22302031E+04</pdfrwt>
<totfact> 0.30505153E+00</totfact>
</mgrwt>
</event>
<event>
 6    1  0.1072514E-005  0.3149796E+04  0.7818608E-02  0.8202203E-01
          1   -1    0    0  501    0  0.00000000000E+00  0.00000000000E+00  0.12843472776E+04  0.12843472776E+04  0.00000000000E+00 0. -1.
         -1   -1    0    0    0  501 -0.00000000000E+00 -0.00000000000E+00 -0.19311778946E+04  0.19311778946E+04  0.00000000000E+00 0.  1.
         23    2    1    2    0    0  0.90002257440E+03  0.60295626238E+03 -0.14888599726E+04  0.18434426949E+04  0.89331197389E+02 0.  0.
         11    1    3    3    0    0  0.39813997304E+03  0.29207495275E+03 -0.61199877260E+03  0.78636232986E+03  0.00000000000E+00 0. -1.
        -11    1    3    3    0    0  0.50188260136E+03  0.31088130963E+03 -0.87686119995E+03  0.10570803651E+04  0.00000000000E+00 0.  1.
         22    1    1    2    0    0 -0.90002257440E+03 -0.60295626238E+03  0.84202935553E+03  0.13720824772E+04  0.00000000000E+00 0. -1.
<mgrwt>
<rscale>  0 0.31497956E+04</rscale>
<asrwt>0</asrwt>
<pdfrwt beam="1">  1        1 0.19759189E+00 0.31497956E+04</pdfrwt>
<pdfrwt beam="2">  1       -1 0.29710429E+00 0.31497956E+04</pdfrwt>
<totfact> 0.26892087E-01</totfact>
</mgrwt>
</event>
<event>
 6    1  0.1072514E-005  0.1757463E+04  0.7818608E-02  0.8729253E-01
         -2   -1    0    0    0  501 -0.00000000000E+00  0.00000000000E+00  0.73379885394E+03  0.73379885394E+03  0.00000000000E+00 0.  1.
          2   -1    0    0  501    0  0.00000000000E+00 -0.00000000000E+00 -0.10522898991E+04  0.10522898991E+04  0.00000000000E+00 0. -1.
         23    2    1    2    0    0 -0.36687022092E+03  0.11285685117E+03 -0.96032811466E+03  0.10382349896E+04  0.91495234183E+02 0.  0.
         13    1    3    3    0    0 -0.18581137585E+03  0.85131965340E+02 -0.40806590335E+03  0.45638919838E+03  0.00000000000E+00 0. -1.
        -13    1    3    3    0    0 -0.18105884507E+03  0.27724885831E+02 -0.55226221131E+03  0.58184579118E+03  0.00000000000E+00 0.  1.
         22    1    1    2    0    0  0.36687022092E+03 -0.11285685117E+03  0.64183706947E+03  0.74785376352E+03  0.00000000000E+00 0.  1.
<mgrwt>
<rscale>  0 0.17574631E+04</rscale>
<asrwt>0</asrwt>
<pdfrwt beam="1">  1        2 0.16189075E+00 0.17574631E+04</pdfrwt>
<pdfrwt beam="2">  1       -2 0.11289213E+00 0.17574631E+04</pdfrwt>
<totfact> 0.13634854E+01</totfact>
</mgrwt>
</event>
<event>
 6    1  0.1072514E-005  0.3810187E+04  0.7818608E-02  0.8043972E-01
          2   -1    0    0  501    0  0.00000000000E+00  0.00000000000E+00  0.21619839588E+04  0.21619839588E+04  0.00000000000E+00 0. -1.
         -2   -1    0    0    0  501 -0.00000000000E+00 -0.00000000000E+00 -0.16787272469E+04  0.16787272469E+04  0.00000000000E+00 0.  1.
         23    2    1    2    0    0 -0.44673972418E+03 -0.18373534449E+04  0.46188518312E+03  0.19497059691E+04  0.11212216841E+03 0.  0.
         11    1    3    3    0    0 -0.24034949157E+03 -0.88420601962E+03  0.17196729160E+03  0.93228799875E+03  0.00000000000E+00 0. -1.
        -11    1    3    3    0    0 -0.20639023261E+03 -0.95314742533E+03  0.28991789151E+03  0.10174179703E+04  0.00000000000E+00 0.  1.
         22    1    1    2    0    0  0.44673972418E+03  0.18373534449E+04  0.21371528833E+02  0.18910052367E+04  0.00000000000E+00 0.  1.
<mgrwt>
<rscale>  0 0.38101871E+04</rscale>
<asrwt>0</asrwt>
<pdfrwt beam="1">  1        2 0.33261292E+00 0.38101871E+04</pdfrwt>
<pdfrwt beam="2">  1       -2 0.25826573E+00 0.38101871E+04</pdfrwt>
<totfact> 0.24847578E-01</totfact>
</mgrwt>
</event>
<event>
 6    1  0.1072514E-005  0.3420318E+04  0.7818608E-02  0.8132938E-01
          2   -1    0    0  501    0  0.00000000000E+00  0.00000000000E+00  0.98737934609E+03  0.98737934609E+03  0.00000000000E+00 0. -1.
         -2   -1    0    0    0  501 -0.00000000000E+00 -0.00000000000E+00 -0.29620260075E+04  0.29620260075E+04  0.00000000000E+00 0.  1.
         23    2    1    2    0    0  0.12240222111E+04 -0.10653416491E+04 -0.36903189991E+03  0.16666040120E+04  0.90560405611E+02 0.  0.
         11    1    3    3    0    0  0.44453051857E+03 -0.33080092986E+03 -0.11847285145E+03  0.56663255613E+03  0.00000000000E+00 0. -1.
        -11    1    3    3    0    0  0.77949169255E+03 -0.73454071926E+03 -0.25055904846E+03  0.10999714559E+04  0.00000000000E+00 0.  1.
         22    1    1    2    0    0 -0.12240222111E+04  0.10653416491E+04 -0.16056147615E+04  0.22828013415E+04  0.00000000000E+00 0.  1.
<mgrwt>
<rscale>  0 0.34203177E+04</rscale>
<asrwt>0</asrwt>
<pdfrwt beam="1">  1        2 0.15190451E+00 0.34203177E+04</pdfrwt>
<pdfrwt beam="2">  1       -2 0.45569631E+00 0.34203177E+04</pdfrwt>
<totfact> 0.67477099E-02</totfact>
</mgrwt>
</event>
<event>
 6    1  0.1072514E-005  0.1978072E+04  0.7818608E-02  0.8616942E-01
          1   -1    0    0  501    0  0.00000000000E+00  0.00000000000E+00  0.98788187496E+03  0.98788187496E+03  0.00000000000E+00 0. -1.
         -1   -1    0    0    0  501 -0.00000000000E+00 -0.00000000000E+00 -0.99019186328E+03  0.99019186328E+03  0.00000000000E+00 0.  1.
         23    2    1    2    0    0  0.96513571022E+03  0.20510578052E+03 -0.52252449749E+01  0.99138036183E+03  0.96189387579E+02 0.  0.
         13    1    3    3    0    0  0.69987918334E+03  0.10625606531E+03 -0.16308583684E+02  0.70808699507E+03  0.00000000000E+00 0.  1.
        -13    1    3    3    0    0  0.26525652689E+03  0.98849715212E+02  0.11083338709E+02  0.28329336676E+03  0.00000000000E+00 0. -1.
         22    1    1    2    0    0 -0.96513571022E+03 -0.20510578052E+03  0.29152566556E+01  0.98669337642E+03  0.00000000000E+00 0.  1.
<mgrwt>
<rscale>  0 0.19780724E+04</rscale>
<asrwt>0</asrwt>
<pdfrwt beam="1">  1        1 0.15198183E+00 0.19780724E+04</pdfrwt>
<pdfrwt beam="2">  1       -1 0.15233721E+00 0.19780724E+04</pdfrwt>
<totfact> 0.48097399E+00</totfact>
</mgrwt>
</event>
<event>
 6    1  0.1072514E-005  0.9966361E+03  0.7818608E-02  0.9312242E-01
         -2   -1    0    0    0  501 -0.00000000000E+00  0.00000000000E+00  0.16282651959E+03  0.16282651959E+03  0.00000000000E+00 0.  1.
          2   -1    0    0  501    0  0.00000000000E+00 -0.00000000000E+00 -0.15250639478E+04  0.15250639478E+04  0.00000000000E+00 0. -1.
         23    2    1    2    0    0  0.48076711439E+03  0.12142335435E+03 -0.63926868096E+03  0.81121238579E+03  0.59333288584E+02 0.  0.
         11    1    3    3    0    0  0.33626825678E+03  0.67133861748E+02 -0.47449093692E+03  0.58542714758E+03  0.00000000000E+00 0.  1.
        -11    1    3    3    0    0  0.14449885762E+03  0.54289492602E+02 -0.16477774404E+03  0.22578523820E+03  0.00000000000E+00 0. -1.
         22    1    1    2    0    0 -0.48076711439E+03 -0.12142335435E+03 -0.72296874725E+03  0.87667808161E+03  0.00000000000E+00 0.  1.
<mgrwt>
<rscale>  0 0.99663605E+03</rscale>
<asrwt>0</asrwt>
<pdfrwt beam="1">  1        2 0.23462522E+00 0.99663605E+03</pdfrwt>
<pdfrwt beam="2">  1       -2 0.25050234E-01 0.99663605E+03</pdfrwt>
<totfact> 0.17525038E+02</totfact>
</mgrwt>
</event>
<event>
 6    1  0.1072514E-005  0.5266079E+04  0.7818608E-02  0.7788723E-01
          2   -1    0    0  501    0  0.00000000000E+00  0.00000000000E+00  0.37688045234E+04  0.37688045234E+04  0.00000000000E+00 0.  1.
         -2   -1    0    0    0  501 -0.00000000000E+00 -0.00000000000E+00 -0.18395479049E+04  0.18395479049E+04  0.00000000000E+00 0. -1.
         23    2    1    2    0    0 -0.24488872384E+03  0.18806684463E+04  0.29089148530E+04  0.34737296165E+04  0.90152841084E+02 0.  0.
         13    1    3    3    0    0 -0.18847930482E+03  0.16062097149E+04  0.25229242870E+04  0.29967617614E+04  0.00000000000E+00 0. -1.
        -13    1    3    3    0    0 -0.56409419023E+02  0.27445873133E+03  0.38599056599E+03  0.47696785509E+03  0.00000000000E+00 0.  1.
         22    1    1    2    0    0  0.24488872384E+03 -0.18806684463E+04 -0.97965823451E+03  0.21346228117E+04  0.00000000000E+00 0. -1.
<mgrwt>
<rscale>  0 0.52660788E+04</rscale>
<asrwt>0</asrwt>
<pdfrwt beam="1">  1        2 0.57981608E+00 0.52660788E+04</pdfrwt>
<pdfrwt beam="2">  1       -2 0.28300737E+00 0.52660788E+04</pdfrwt>
<totfact> 0.14873804E-02</totfact>
</mgrwt>
</event>
<event>
 6    1  0.1072514E-005  0.1240056E+04  0.7818608E-02  0.9078500E-01
         -1   -1    0    0    0  501 -0.00000000000E+00  0.00000000000E+00  0.41606628540E+03  0.41606628540E+03  0.00000000000E+00 0.  1.
          1   -1    0    0  501    0  0.00000000000E+00 -0.00000000000E+00 -0.92397502498E+03  0.92397502498E+03  0.00000000000E+00 0. -1.
         23    2    1    2    0    0 -0.20507621559E+03  0.48302757633E+03  0.94813869350E+02  0.54088773502E+03  0.90542688184E+02 0.  0.
         13    1    3    3    0    0 -0.19537369421E+03  0.37487934653E+03  0.89930185333E+02  0.43219537605E+03  0.00000000000E+00 0. -1.
        -13    1    3    3    0    0 -0.97025213748E+01  0.10814822980E+03  0.48836840168E+01  0.10869235897E+03  0.00000000000E+00 0.  1.
         22    1    1    2    0    0  0.20507621559E+03 -0.48302757633E+03 -0.60272260893E+03  0.79915357536E+03  0.00000000000E+00 0. -1.
<mgrwt>
<rscale>  0 0.12400562E+04</rscale>
<asrwt>0</asrwt>
<pdfrwt beam="1">  1        1 0.14215000E+00 0.12400562E+04</pdfrwt>
<pdfrwt beam="2">  1       -1 0.64010198E-01 0.12400562E+04</pdfrwt>
<totfact> 0.42494002E+01</totfact>
</mgrwt>
</event>
<event>
 6    1  0.1072514E-005  0.3352935E+04  0.7818608E-02  0.8149555E-01
          2   -1    0    0  501    0  0.00000000000E+00  0.00000000000E+00  0.29489356359E+04  0.29489356359E+04  0.00000000000E+00 0.  1.
         -2   -1    0    0    0  501 -0.00000000000E+00 -0.00000000000E+00 -0.95307064198E+03  0.95307064198E+03  0.00000000000E+00 0. -1.
         23    2    1    2    0    0  0.12492233974E+04 -0.53111677561E+03 -0.14432887339E+03  0.13676278697E+04  0.83252870607E+02 0.  0.
         13    1    3    3    0    0  0.10049090209E+04 -0.43939630347E+03 -0.85397606084E+02  0.11000927247E+04  0.00000000000E+00 0. -1.
        -13    1    3    3    0    0  0.24431437652E+03 -0.91720472140E+02 -0.58931267302E+02  0.26753514508E+03  0.00000000000E+00 0.  1.
         22    1    1    2    0    0 -0.12492233974E+04  0.53111677561E+03  0.21401938673E+04  0.25343784081E+04  0.00000000000E+00 0.  1.
<mgrwt>
<rscale>  0 0.33529354E+04</rscale>
<asrwt>0</asrwt>
<pdfrwt beam="1">  1        2 0.45368240E+00 0.33529354E+04</pdfrwt>
<pdfrwt beam="2">  1       -2 0.14662625E+00 0.33529354E+04</pdfrwt>
<totfact> 0.49551287E-01</totfact>
</mgrwt>
</event>
<event>
 6    1  0.1072514E-005  0.1186157E+04  0.7818608E-02  0.9125060E-01
          2   -1    0    0  501    0  0.00000000000E+00  0.00000000000E+00  0.28457705771E+04  0.28457705771E+04  0.00000000000E+00 0. -1.
         -2   -1    0    0    0  501 -0.00000000000E+00 -0.00000000000E+00 -0.12360178223E+03  0.12360178223E+03  0.00000000000E+00 0.  1.
         23    2    1    2    0    0  0.28528277612E+03  0.92067885731E+02  0.26401378909E+04  0.26585801021E+04  0.88641516608E+02 0.  0.
         13    1    3    3    0    0  0.72869691250E+02  0.21956011216E+02  0.10544430773E+04  0.10571860109E+04  0.00000000000E+00 0. -1.
        -13    1    3    3    0    0  0.21241308487E+03  0.70111874514E+02  0.15856948136E+04  0.16013940912E+04  0.00000000000E+00 0.  1.
         22    1    1    2    0    0 -0.28528277612E+03 -0.92067885731E+02  0.82030903956E+02  0.31079225720E+03  0.00000000000E+00 0.  1.
<mgrwt>
<rscale>  0 0.11861574E+04</rscale>
<asrwt>0</asrwt>
<pdfrwt beam="1">  1        2 0.43781081E+00 0.11861574E+04</pdfrwt>
<pdfrwt beam="2">  1       -2 0.19015661E-01 0.11861574E+04</pdfrwt>
<totfact> 0.50633970E+01</totfact>
</mgrwt>
</event>
<event>
 6    1  0.1072514E-005  0.3747202E+04  0.7818608E-02  0.8057581E-01
          1   -1    0    0  501    0  0.00000000000E+00  0.00000000000E+00  0.22272799880E+04  0.22272799880E+04  0.00000000000E+00 0. -1.
         -1   -1    0    0    0  501 -0.00000000000E+00 -0.00000000000E+00 -0.15760839221E+04  0.15760839221E+04  0.00000000000E+00 0.  1.
         23    2    1    2    0    0  0.72171029939E+03  0.61601226723E+03  0.19642552515E+04  0.21833449922E+04  0.91431900373E+02 0.  0.
         11    1    3    3    0    0  0.18223740046E+03  0.20500322182E+03  0.60577977459E+03  0.66498565879E+03  0.00000000000E+00 0. -1.
        -11    1    3    3    0    0  0.53947289893E+03  0.41100904541E+03  0.13584754769E+04  0.15183593334E+04  0.00000000000E+00 0.  1.
         22    1    1    2    0    0 -0.72171029939E+03 -0.61601226723E+03 -0.13130591856E+04  0.16200189179E+04  0.00000000000E+00 0.  1.
<mgrwt>
<rscale>  0 0.37472017E+04</rscale>
<asrwt>0</asrwt>
<pdfrwt beam="1">  1        1 0.34265846E+00 0.37472017E+04</pdfrwt>
<pdfrwt beam="2">  1       -1 0.24247445E+00 0.37472017E+04</pdfrwt>
<totfact> 0.13026959E-01</totfact>
</mgrwt>
</event>
<event>
 6    1  0.1072514E-005  0.1700225E+04  0.7818608E-02  0.8761236E-01
          1   -1    0    0  501    0  0.00000000000E+00  0.00000000000E+00  0.12769890763E+04  0.12769890763E+04  0.00000000000E+00 0. -1.
         -1   -1    0    0    0  501 -0.00000000000E+00 -0.00000000000E+00 -0.56593395270E+03  0.56593395270E+03  0.00000000000E+00 0.  1.
         23    2    1    2    0    0 -0.43926124776E+03 -0.53064135875E+03  0.89189277545E+03  0.11307201423E+04  0.92328879534E+02 0.  0.
         11    1    3    3    0    0 -0.39242397808E+03 -0.51069235895E+03  0.82258971137E+03  0.10447282409E+04  0.00000000000E+00 0. -1.
        -11    1    3    3    0    0 -0.46837269677E+02 -0.19948999795E+02  0.69303064084E+02  0.85991901450E+02  0.00000000000E+00 0.  1.
         22    1    1    2    0    0  0.43926124776E+03  0.53064135875E+03 -0.18083765187E+03  0.71220288664E+03  0.00000000000E+00 0.  1.
<mgrwt>
<rscale>  0 0.17002253E+04</rscale>
<asrwt>0</asrwt>
<pdfrwt beam="1">  1        1 0.19645986E+00 0.17002253E+04</pdfrwt>
<pdfrwt beam="2">  1       -1 0.87066762E-01 0.17002253E+04</pdfrwt>
<totfact> 0.11617560E+01</totfact>
</mgrwt>
</event>
<event>
 6    1  0.1970970E-005  0.2618002E+04  0.7818608E-02  0.8362112E-01
         -1   -1    0    0    0  501 -0.00000000000E+00  0.00000000000E+00  0.99225802370E+03  0.99225802370E+03  0.00000000000E+00 0.  1.
          1   -1    0    0  501    0  0.00000000000E+00 -0.00000000000E+00 -0.17268527022E+04  0.17268527022E+04  0.00000000000E+00 0. -1.
         23    2    1    2    0    0 -0.18269855623E+03 -0.13126316867E+03 -0.17053514823E+04  0.17226281350E+04  0.92818269563E+02 0.  0.
         13    1    3    3    0    0 -0.36858017579E+02 -0.78839616585E+02 -0.70303961705E+03  0.70840588771E+03  0.00000000000E+00 0.  1.
        -13    1    3    3    0    0 -0.14584053865E+03 -0.52423552086E+02 -0.10023118653E+04  0.10142222472E+04  0.00000000000E+00 0. -1.
         22    1    1    2    0    0  0.18269855623E+03  0.13126316867E+03  0.97075680382E+03  0.99648259095E+03  0.00000000000E+00 0.  1.
<mgrwt>
<rscale>  0 0.26180019E+04</rscale>
<asrwt>0</asrwt>
<pdfrwt beam="1">  1        1 0.26566964E+00 0.26180019E+04</pdfrwt>
<pdfrwt beam="2">  1       -1 0.15265508E+00 0.26180019E+04</pdfrwt>
<totfact> 0.13367289E+00</totfact>
</mgrwt>
</event>
<event>
 6    1  0.1072514E-005  0.2444143E+04  0.7818608E-02  0.8423160E-01
         -2   -1    0    0    0  501 -0.00000000000E+00  0.00000000000E+00  0.37193950000E+03  0.37193950000E+03  0.00000000000E+00 0.  1.
          2   -1    0    0  501    0  0.00000000000E+00 -0.00000000000E+00 -0.40153272696E+04  0.40153272696E+04  0.00000000000E+00 0. -1.
         23    2    1    2    0    0 -0.99537512720E+03  0.28794710081E+03 -0.29815084795E+04  0.31577264606E+04  0.90323916866E+02 0.  0.
         13    1    3    3    0    0 -0.70993402128E+03  0.24699318308E+03 -0.21371840995E+04  0.22655171203E+04  0.00000000000E+00 0. -1.
        -13    1    3    3    0    0 -0.28544110592E+03  0.40953917730E+02 -0.84432438002E+03  0.89220934035E+03  0.00000000000E+00 0.  1.
         22    1    1    2    0    0  0.99537512720E+03 -0.28794710081E+03 -0.66187929004E+03  0.12295403089E+04  0.00000000000E+00 0. -1.
<mgrwt>
<rscale>  0 0.24441431E+04</rscale>
<asrwt>0</asrwt>
<pdfrwt beam="1">  1        2 0.61774263E+00 0.24441431E+04</pdfrwt>
<pdfrwt beam="2">  1       -2 0.57221464E-01 0.24441431E+04</pdfrwt>
<totfact> 0.85608232E-01</totfact>
</mgrwt>
</event>
<event>
 6    1  0.1072514E-005  0.3952709E+04  0.7818608E-02  0.8014155E-01
          1   -1    0    0  501    0  0.00000000000E+00  0.00000000000E+00  0.20776015911E+04  0.20776015911E+04  0.00000000000E+00 0. -1.
         -1   -1    0    0    0  501 -0.00000000000E+00 -0.00000000000E+00 -0.18800412998E+04  0.18800412998E+04  0.00000000000E+00 0.  1.
         23    2    1    2    0    0  0.11486392817E+04  0.12389174500E+04  0.11236317332E+04  0.20310144984E+04  0.90459788580E+02 0.  0.
         13    1    3    3    0    0  0.85574300356E+03  0.87728782840E+03  0.78311113148E+03  0.14543703333E+04  0.00000000000E+00 0. -1.
        -13    1    3    3    0    0  0.29289627817E+03  0.36162962159E+03  0.34052060173E+03  0.57664416513E+03  0.00000000000E+00 0.  1.
         22    1    1    2    0    0 -0.11486392817E+04 -0.12389174500E+04 -0.92607144192E+03  0.19266283925E+04  0.00000000000E+00 0.  1.
<mgrwt>
<rscale>  0 0.39527088E+04</rscale>
<asrwt>0</asrwt>
<pdfrwt beam="1">  1        1 0.31963101E+00 0.39527088E+04</pdfrwt>
<pdfrwt beam="2">  1       -1 0.28923712E+00 0.39527088E+04</pdfrwt>
<totfact> 0.80418838E-02</totfact>
</mgrwt>
</event>
<event>
 6    1  0.1129214E-005  0.4167281E+04  0.7818608E-02  0.7971625E-01
          2   -1    0    0  501    0  0.00000000000E+00  0.00000000000E+00  0.26254752902E+04  0.26254752902E+04  0.00000000000E+00 0. -1.
         -2   -1    0    0    0  501 -0.00000000000E+00 -0.00000000000E+00 -0.16536271272E+04  0.16536271272E+04  0.00000000000E+00 0.  1.
         23    2    1    2    0    0 -0.17445066277E+04  0.10302619705E+04  0.98165296745E+03  0.22530621326E+04  0.88900634975E+02 0.  0.
         11    1    3    3    0    0 -0.67080549113E+03  0.37649775448E+03  0.32876344425E+03  0.83655003935E+03  0.00000000000E+00 0. -1.
        -11    1    3    3    0    0 -0.10737011365E+04  0.65376421597E+03  0.65288952320E+03  0.14165120932E+04  0.00000000000E+00 0.  1.
         22    1    1    2    0    0  0.17445066277E+04 -0.10302619705E+04 -0.98048044749E+01  0.20260402849E+04  0.00000000000E+00 0. -1.
<mgrwt>
<rscale>  0 0.41672807E+04</rscale>
<asrwt>0</asrwt>
<pdfrwt beam="1">  1        2 0.40391928E+00 0.41672807E+04</pdfrwt>
<pdfrwt beam="2">  1       -2 0.25440417E+00 0.41672807E+04</pdfrwt>
<totfact> 0.13814706E-01</totfact>
</mgrwt>
</event>
<event>
 6    1  0.1072514E-005  0.3746142E+04  0.7818608E-02  0.8057813E-01
         -2   -1    0    0    0  501 -0.00000000000E+00  0.00000000000E+00  0.19518500461E+04  0.19518500461E+04  0.00000000000E+00 0.  1.
          2   -1    0    0  501    0  0.00000000000E+00 -0.00000000000E+00 -0.17974712391E+04  0.17974712391E+04  0.00000000000E+00 0. -1.
         23    2    1    2    0    0 -0.56296077510E+03  0.33749208580E+03  0.18314906383E+04  0.19483410417E+04  0.10415908219E+03 0.  0.
         13    1    3    3    0    0 -0.16424848719E+03  0.61470730880E+02  0.39427668375E+03  0.43152093767E+03  0.00000000000E+00 0. -1.
        -13    1    3    3    0    0 -0.39871228791E+03  0.27602135492E+03  0.14372139546E+04  0.15168201041E+04  0.00000000000E+00 0.  1.
         22    1    1    2    0    0  0.56296077510E+03 -0.33749208580E+03 -0.16771118314E+04  0.18009802434E+04  0.00000000000E+00 0. -1.
<mgrwt>
<rscale>  0 0.37461417E+04</rscale>
<asrwt>0</asrwt>
<pdfrwt beam="1">  1        2 0.27653404E+00 0.37461417E+04</pdfrwt>
<pdfrwt beam="2">  1       -2 0.30028462E+00 0.37461417E+04</pdfrwt>
<totfact> 0.22069208E-01</totfact>
</mgrwt>
</event>
<event>
 6    1  0.1072514E-005  0.2005226E+04  0.7818608E-02  0.8604181E-01
          1   -1    0    0  501    0  0.00000000000E+00  0.00000000000E+00  0.42351728225E+03  0.42351728225E+03  0.00000000000E+00 0. -1.
         -1   -1    0    0    0  501 -0.00000000000E+00 -0.00000000000E+00 -0.23735354079E+04  0.23735354079E+04  0.00000000000E+00 0.  1.
         23    2    1    2    0    0 -0.73712220314E+03  0.56566681335E+02 -0.35748148836E+02  0.74498581115E+03  0.84717158051E+02 0.  0.
         13    1    3    3    0    0 -0.28468032694E+02  0.75009480124E+00 -0.18438883724E+02  0.33926154523E+02  0.00000000000E+00 0.  1.
        -13    1    3    3    0    0 -0.70865417044E+03  0.55816586534E+02 -0.17309265112E+02  0.71105965662E+03  0.00000000000E+00 0. -1.
         22    1    1    2    0    0  0.73712220314E+03 -0.56566681335E+02 -0.19142699768E+04  0.20520668790E+04  0.00000000000E+00 0.  1.
<mgrwt>
<rscale>  0 0.20052264E+04</rscale>
<asrwt>0</asrwt>
<pdfrwt beam="1">  1        1 0.65156505E-01 0.20052264E+04</pdfrwt>
<pdfrwt beam="2">  1       -1 0.36515930E+00 0.20052264E+04</pdfrwt>
<totfact> 0.63560271E-01</totfact>
</mgrwt>
</event>
<event>
 6    1  0.1072514E-005  0.3202030E+04  0.7818608E-02  0.8188281E-01
         -2   -1    0    0    0  501 -0.00000000000E+00  0.00000000000E+00  0.90259447889E+03  0.90259447889E+03  0.00000000000E+00 0.  1.
          2   -1    0    0  501    0  0.00000000000E+00 -0.00000000000E+00 -0.28398676083E+04  0.28398676083E+04  0.00000000000E+00 0. -1.
         23    2    1    2    0    0  0.99382638043E+03 -0.12527636071E+04 -0.91282814577E+03  0.18433583369E+04  0.87219291894E+02 0.  0.
         11    1    3    3    0    0  0.34119558461E+03 -0.49530898655E+03 -0.35655813548E+03  0.69919891526E+03  0.00000000000E+00 0. -1.
        -11    1    3    3    0    0  0.65263079583E+03 -0.75745462056E+03 -0.55627001029E+03  0.11441594217E+04  0.00000000000E+00 0.  1.
         22    1    1    2    0    0 -0.99382638043E+03  0.12527636071E+04 -0.10244449837E+04  0.18991037503E+04  0.00000000000E+00 0.  1.
<mgrwt>
<rscale>  0 0.32020299E+04</rscale>
<asrwt>0</asrwt>
<pdfrwt beam="1">  1        2 0.43690270E+00 0.32020299E+04</pdfrwt>
<pdfrwt beam="2">  1       -2 0.13886069E+00 0.32020299E+04</pdfrwt>
<totfact> 0.67513794E-01</totfact>
</mgrwt>
</event>
<event>
 6    1  0.1072514E-005  0.1028781E+04  0.7818608E-02  0.9277530E-01
         -1   -1    0    0    0  501 -0.00000000000E+00  0.00000000000E+00  0.46841800223E+03  0.46841800223E+03  0.00000000000E+00 0.  1.
          1   -1    0    0  501    0  0.00000000000E+00 -0.00000000000E+00 -0.56487482202E+03  0.56487482202E+03  0.00000000000E+00 0. -1.
         23    2    1    2    0    0 -0.25168125245E+03 -0.44357016268E+03 -0.29431485280E+02  0.51890937048E+03  0.91119593887E+02 0.  0.
         11    1    3    3    0    0 -0.10379933990E+03 -0.11800886280E+03 -0.36169130356E+02  0.16127182226E+03  0.00000000000E+00 0.  1.
        -11    1    3    3    0    0 -0.14788191255E+03 -0.32556129987E+03  0.67376450760E+01  0.35763754822E+03  0.00000000000E+00 0. -1.
         22    1    1    2    0    0  0.25168125245E+03  0.44357016268E+03 -0.67025334504E+02  0.51438345378E+03  0.00000000000E+00 0.  1.
<mgrwt>
<rscale>  0 0.10287809E+04</rscale>
<asrwt>0</asrwt>
<pdfrwt beam="1">  1        1 0.86903818E-01 0.10287809E+04</pdfrwt>
<pdfrwt beam="2">  1       -1 0.72064308E-01 0.10287809E+04</pdfrwt>
<totfact> 0.72671742E+01</totfact>
</mgrwt>
</event>
<event>
 6    1  0.1072514E-005  0.2353413E+04  0.7818608E-02  0.8457154E-01
         -1   -1    0    0    0  501 -0.00000000000E+00  0.00000000000E+00  0.71101532317E+03  0.71101532317E+03  0.00000000000E+00 0.  1.
          1   -1    0    0  501    0  0.00000000000E+00 -0.00000000000E+00 -0.19474089784E+04  0.19474089784E+04  0.00000000000E+00 0. -1.
         23    2    1    2    0    0 -0.37534426355E+03  0.71600860929E+03 -0.15821803975E+04  0.17791518092E+04  0.92383467655E+02 0.  0.
         13    1    3    3    0    0 -0.93691225686E+02  0.15435458304E+03 -0.43894134849E+03  0.47462921369E+03  0.00000000000E+00 0. -1.
        -13    1    3    3    0    0 -0.28165303787E+03  0.56165402625E+03 -0.11432390490E+04  0.13045225955E+04  0.00000000000E+00 0.  1.
         22    1    1    2    0    0  0.37534426355E+03 -0.71600860929E+03  0.34578674226E+03  0.87927249240E+03  0.00000000000E+00 0.  1.
<mgrwt>
<rscale>  0 0.23534125E+04</rscale>
<asrwt>0</asrwt>
<pdfrwt beam="1">  1        1 0.29960138E+00 0.23534125E+04</pdfrwt>
<pdfrwt beam="2">  1       -1 0.10938697E+00 0.23534125E+04</pdfrwt>
<totfact> 0.22507113E+00</totfact>
</mgrwt>
</event>
<event>
 6    1  0.1072514E-005  0.3517200E+04  0.7818608E-02  0.8109726E-01
          2   -1    0    0  501    0  0.00000000000E+00  0.00000000000E+00  0.22973196343E+04  0.22973196343E+04  0.00000000000E+00 0. -1.
         -2   -1    0    0    0  501 -0.00000000000E+00 -0.00000000000E+00 -0.13462094149E+04  0.13462094149E+04  0.00000000000E+00 0.  1.
         23    2    1    2    0    0  0.16275257616E+04  0.64490524135E+03  0.63555344753E+03  0.18646757807E+04  0.91349369574E+02 0.  0.
         13    1    3    3    0    0  0.10176808034E+04  0.36978354739E+03  0.42638916264E+03  0.11637103624E+04  0.00000000000E+00 0.  1.
        -13    1    3    3    0    0  0.60984495820E+03  0.27512169396E+03  0.20916428488E+03  0.70096541826E+03  0.00000000000E+00 0. -1.
         22    1    1    2    0    0 -0.16275257616E+04 -0.64490524135E+03  0.31555677188E+03  0.17788532686E+04  0.00000000000E+00 0.  1.
<mgrwt>
<rscale>  0 0.35171996E+04</rscale>
<asrwt>0</asrwt>
<pdfrwt beam="1">  1        2 0.35343379E+00 0.35171996E+04</pdfrwt>
<pdfrwt beam="2">  1       -2 0.20710914E+00 0.35171996E+04</pdfrwt>
<totfact> 0.44624339E-01</totfact>
</mgrwt>
</event>
<event>
 6    1  0.1072514E-005  0.4259409E+04  0.7818608E-02  0.7954167E-01
          1   -1    0    0  501    0  0.00000000000E+00  0.00000000000E+00  0.29979771734E+04  0.29979771734E+04  0.00000000000E+00 0. -1.
         -1   -1    0    0    0  501 -0.00000000000E+00 -0.00000000000E+00 -0.15129001762E+04  0.15129001762E+04  0.00000000000E+00 0.  1.
         23    2    1    2    0    0 -0.19409929278E+04 -0.42820240133E+03 -0.64191960892E+02  0.19907493476E+04  0.90285739099E+02 0.  0.
         13    1    3    3    0    0 -0.77143377316E+03 -0.12627633911E+03 -0.35503686272E+02  0.78250641655E+03  0.00000000000E+00 0.  1.
        -13    1    3    3    0    0 -0.11695591547E+04 -0.30192606221E+03 -0.28688274620E+02  0.12082429310E+04  0.00000000000E+00 0. -1.
         22    1    1    2    0    0  0.19409929278E+04  0.42820240133E+03  0.15492689580E+04  0.25201280020E+04  0.00000000000E+00 0. -1.
<mgrwt>
<rscale>  0 0.42594085E+04</rscale>
<asrwt>0</asrwt>
<pdfrwt beam="1">  1        1 0.46122726E+00 0.42594085E+04</pdfrwt>
<pdfrwt beam="2">  1       -1 0.23275387E+00 0.42594085E+04</pdfrwt>
<totfact> 0.41580968E-02</totfact>
</mgrwt>
</event>
<event>
 6    1  0.1072514E-005  0.3311839E+04  0.7818608E-02  0.8159889E-01
          2   -1    0    0  501    0  0.00000000000E+00  0.00000000000E+00  0.32755480279E+04  0.32755480279E+04  0.00000000000E+00 0. -1.
         -2   -1    0    0    0  501 -0.00000000000E+00 -0.00000000000E+00 -0.83713321434E+03  0.83713321434E+03  0.00000000000E+00 0.  1.
         23    2    1    2    0    0 -0.44560515095E+03 -0.53152192049E+03 -0.64564161625E+03  0.95159225824E+03  0.87150598305E+02 0.  0.
         13    1    3    3    0    0 -0.28758717274E+03 -0.30372739851E+03 -0.43445009733E+03  0.60307843735E+03  0.00000000000E+00 0.  1.
        -13    1    3    3    0    0 -0.15801797821E+03 -0.22779452199E+03 -0.21119151892E+03  0.34851382089E+03  0.00000000000E+00 0. -1.
         22    1    1    2    0    0  0.44560515095E+03  0.53152192049E+03  0.30840564298E+04  0.31610889840E+04  0.00000000000E+00 0. -1.
<mgrwt>
<rscale>  0 0.33118394E+04</rscale>
<asrwt>0</asrwt>
<pdfrwt beam="1">  1        2 0.50393046E+00 0.33118394E+04</pdfrwt>
<pdfrwt beam="2">  1       -2 0.12878973E+00 0.33118394E+04</pdfrwt>
<totfact> 0.42862586E-01</totfact>
</mgrwt>
</event>
<event>
 6    1  0.1072514E-005  0.6873562E+03  0.7818608E-02  0.9739102E-01
         -2   -1    0    0    0  501 -0.00000000000E+00  0.00000000000E+00  0.92953570589E+03  0.92953570589E+03  0.00000000000E+00 0.  1.
          2   -1    0    0  501    0  0.00000000000E+00 -0.00000000000E+00 -0.12706842150E+03  0.12706842150E+03  0.00000000000E+00 0. -1.
         23    2    1    2    0    0  0.28681824456E+03  0.10160463677E+03  0.18173345733E+03  0.36530195635E+03  0.88488768624E+02 0.  0.
         13    1    3    3    0    0  0.98366326219E+02  0.29692584933E+02  0.15478978469E+02  0.10390949191E+03  0.00000000000E+00 0. -1.
        -13    1    3    3    0    0  0.18845191835E+03  0.71912051833E+02  0.16625447886E+03  0.26139246444E+03  0.00000000000E+00 0.  1.
         22    1    1    2    0    0 -0.28681824456E+03 -0.10160463677E+03  0.62073382707E+03  0.69130217105E+03  0.00000000000E+00 0.  1.
<mgrwt>
<rscale>  0 0.68735620E+03</rscale>
<asrwt>0</asrwt>
<pdfrwt beam="1">  1        2 0.19548989E-01 0.68735620E+03</pdfrwt>
<pdfrwt beam="2">  1       -2 0.14300549E+00 0.68735620E+03</pdfrwt>
<totfact> 0.10047525E+02</totfact>
</mgrwt>
</event>
<event>
 6    1  0.1072514E-005  0.2418978E+04  0.7818608E-02  0.8432432E-01
         -1   -1    0    0    0  501 -0.00000000000E+00  0.00000000000E+00  0.91962367402E+03  0.91962367402E+03  0.00000000000E+00 0.  1.
          1   -1    0    0  501    0  0.00000000000E+00 -0.00000000000E+00 -0.15907199684E+04  0.15907199684E+04  0.00000000000E+00 0. -1.
         23    2    1    2    0    0 -0.25171734786E+02 -0.88822268680E+03  0.51297719393E+03  0.10299372174E+04  0.89732450567E+02 0.  0.
         11    1    3    3    0    0  0.23389954111E+02 -0.23412137304E+03  0.10625466248E+03  0.25816653650E+03  0.00000000000E+00 0. -1.
        -11    1    3    3    0    0 -0.48561688897E+02 -0.65410131376E+03  0.40672253145E+03  0.77177068088E+03  0.00000000000E+00 0.  1.
         22    1    1    2    0    0  0.25171734786E+02  0.88822268680E+03 -0.11840734883E+04  0.14804064250E+04  0.00000000000E+00 0. -1.
<mgrwt>
<rscale>  0 0.24189781E+04</rscale>
<asrwt>0</asrwt>
<pdfrwt beam="1">  1        1 0.24472615E+00 0.24189781E+04</pdfrwt>
<pdfrwt beam="2">  1       -1 0.14148057E+00 0.24189781E+04</pdfrwt>
<totfact> 0.20656979E+00</totfact>
</mgrwt>
</event>
<event>
 6    1  0.1072514E-005  0.2187360E+04  0.7818608E-02  0.8523708E-01
         -1   -1    0    0    0  501 -0.00000000000E+00  0.00000000000E+00  0.10180433110E+04  0.10180433110E+04  0.00000000000E+00 0.  1.
          1   -1    0    0  501    0  0.00000000000E+00 -0.00000000000E+00 -0.11749363704E+04  0.11749363704E+04  0.00000000000E+00 0. -1.
         23    2    1    2    0    0  0.86969860698E+03  0.16158358290E+03  0.56298377749E+03  0.10524940034E+04  0.91148078704E+02 0.  0.
         11    1    3    3    0    0  0.17728073617E+03  0.59401964855E+02  0.15098822756E+03  0.24032165468E+03  0.00000000000E+00 0.  1.
        -11    1    3    3    0    0  0.69241787081E+03  0.10218161804E+03  0.41199554993E+03  0.81217234873E+03  0.00000000000E+00 0. -1.
         22    1    1    2    0    0 -0.86969860698E+03 -0.16158358290E+03 -0.71987683692E+03  0.11404856779E+04  0.00000000000E+00 0. -1.
<mgrwt>
<rscale>  0 0.21873602E+04</rscale>
<asrwt>0</asrwt>
<pdfrwt beam="1">  1        1 0.18075944E+00 0.21873602E+04</pdfrwt>
<pdfrwt beam="2">  1       -1 0.15662205E+00 0.21873602E+04</pdfrwt>
<totfact> 0.31556519E+00</totfact>
</mgrwt>
</event>
<event>
 6    1  0.1072514E-005  0.2141752E+04  0.7818608E-02  0.8543071E-01
         -2   -1    0    0    0  501 -0.00000000000E+00  0.00000000000E+00  0.13054042440E+04  0.13054042440E+04  0.00000000000E+00 0. -1.
          2   -1    0    0  501    0  0.00000000000E+00 -0.00000000000E+00 -0.87848268089E+03  0.87848268089E+03  0.00000000000E+00 0.  1.
         23    2    1    2    0    0 -0.47686355660E+03 -0.30653065080E+03 -0.71026230459E+03  0.91323864923E+03  0.90401314387E+02 0.  0.
         11    1    3    3    0    0 -0.12440007917E+03 -0.48477848200E+02 -0.12471943507E+03  0.18270308960E+03  0.00000000000E+00 0. -1.
        -11    1    3    3    0    0 -0.35246347742E+03 -0.25805280260E+03 -0.58554286952E+03  0.73053555963E+03  0.00000000000E+00 0.  1.
         22    1    1    2    0    0  0.47686355660E+03  0.30653065080E+03  0.11371838677E+04  0.12706482757E+04  0.00000000000E+00 0. -1.
<mgrwt>
<rscale>  0 0.21417516E+04</rscale>
<asrwt>0</asrwt>
<pdfrwt beam="1">  1        2 0.13515118E+00 0.21417516E+04</pdfrwt>
<pdfrwt beam="2">  1       -2 0.20083142E+00 0.21417516E+04</pdfrwt>
<totfact> 0.36570085E+00</totfact>
</mgrwt>
</event>
<event>
 6    1  0.1072514E-005  0.1056741E+04  0.7818608E-02  0.9248412E-01
          2   -1    0    0  501    0  0.00000000000E+00  0.00000000000E+00  0.13657984037E+04  0.13657984037E+04  0.00000000000E+00 0. -1.
         -2   -1    0    0    0  501 -0.00000000000E+00 -0.00000000000E+00 -0.20440440387E+03  0.20440440387E+03  0.00000000000E+00 0.  1.
         23    2    1    2    0    0  0.15172773940E+03 -0.85985935174E+02  0.13199884763E+04  0.13344760676E+04  0.89676693205E+02 0.  0.
         13    1    3    3    0    0  0.16342526366E+03 -0.74389693435E+02  0.11985500242E+04  0.12119256593E+04  0.00000000000E+00 0. -1.
        -13    1    3    3    0    0 -0.11697524263E+02 -0.11596241739E+02  0.12143845218E+03  0.12255040826E+03  0.00000000000E+00 0.  1.
         22    1    1    2    0    0 -0.15172773940E+03  0.85985935174E+02 -0.15859447653E+03  0.23572673997E+03  0.00000000000E+00 0.  1.
<mgrwt>
<rscale>  0 0.10567407E+04</rscale>
<asrwt>0</asrwt>
<pdfrwt beam="1">  1        2 0.21012283E+00 0.10567407E+04</pdfrwt>
<pdfrwt beam="2">  1       -2 0.31446832E-01 0.10567407E+04</pdfrwt>
<totfact> 0.14131410E+02</totfact>
</mgrwt>
</event>
<event>
 6    1  0.1072514E-005  0.4366450E+04  0.7818608E-02  0.7934444E-01
          3   -1    0    0  501    0  0.00000000000E+00  0.00000000000E+00  0.15327264177E+04  0.15327264177E+04  0.00000000000E+00 0. -1.
         -3   -1    0    0    0  501 -0.00000000000E+00 -0.00000000000E+00 -0.31097993985E+04  0.31097993985E+04  0.00000000000E+00 0.  1.
         23    2    1    2    0    0  0.93208735451E+02  0.13561591200E+04 -0.26041780718E+04  0.29387651830E+04  0.82109342181E+02 0.  0.
         11    1    3    3    0    0  0.86798097471E+02  0.67441037572E+03 -0.13166977528E+04  0.14819096588E+04  0.00000000000E+00 0.  1.
        -11    1    3    3    0    0  0.64106379809E+01  0.68174874427E+03 -0.12874803190E+04  0.14568555242E+04  0.00000000000E+00 0. -1.
         22    1    1    2    0    0 -0.93208735451E+02 -0.13561591200E+04  0.10271050911E+04  0.17037606332E+04  0.00000000000E+00 0. -1.
<mgrwt>
<rscale>  0 0.43664501E+04</rscale>
<asrwt>0</asrwt>
<pdfrwt beam="1">  1        3 0.23580407E+00 0.43664501E+04</pdfrwt>
<pdfrwt beam="2">  1       -3 0.47843067E+00 0.43664501E+04</pdfrwt>
<totfact> 0.69573205E-04</totfact>
</mgrwt>
</event>
<event>
 6    1  0.1072514E-005  0.2873493E+04  0.7818608E-02  0.8280808E-01
          2   -1    0    0  501    0  0.00000000000E+00  0.00000000000E+00  0.31057602581E+04  0.31057602581E+04  0.00000000000E+00 0. -1.
         -2   -1    0    0    0  501 -0.00000000000E+00 -0.00000000000E+00 -0.66464911197E+03  0.66464911197E+03  0.00000000000E+00 0.  1.
         23    2    1    2    0    0 -0.14295954167E+04  0.92698870186E+02  0.13373320630E+04  0.19619115403E+04  0.91124690746E+02 0.  0.
         13    1    3    3    0    0 -0.68081472693E+03  0.80399927648E+02  0.60143277347E+03  0.91197270890E+03  0.00000000000E+00 0. -1.
        -13    1    3    3    0    0 -0.74878068975E+03  0.12298942537E+02  0.73589928957E+03  0.10499388314E+04  0.00000000000E+00 0.  1.
         22    1    1    2    0    0  0.14295954167E+04 -0.92698870186E+02  0.11037790831E+04  0.18084978297E+04  0.00000000000E+00 0.  1.
<mgrwt>
<rscale>  0 0.28734932E+04</rscale>
<asrwt>0</asrwt>
<pdfrwt beam="1">  1        2 0.47780926E+00 0.28734932E+04</pdfrwt>
<pdfrwt beam="2">  1       -2 0.10225371E+00 0.28734932E+04</pdfrwt>
<totfact> 0.10103849E+00</totfact>
</mgrwt>
</event>
<event>
 6    1  0.1072514E-005  0.3990336E+04  0.7818608E-02  0.8006499E-01
          1   -1    0    0  501    0  0.00000000000E+00  0.00000000000E+00  0.38602481025E+04  0.38602481025E+04  0.00000000000E+00 0. -1.
         -1   -1    0    0    0  501 -0.00000000000E+00 -0.00000000000E+00 -0.10312019794E+04  0.10312019794E+04  0.00000000000E+00 0.  1.
         23    2    1    2    0    0 -0.17597372352E+04  0.34977624547E+03  0.24821582210E+04  0.30640612959E+04  0.91343484176E+02 0.  0.
         11    1    3    3    0    0 -0.12237141707E+04  0.26363375794E+03  0.16674053402E+04  0.20849987286E+04  0.00000000000E+00 0.  1.
        -11    1    3    3    0    0 -0.53602306447E+03  0.86142487531E+02  0.81475288084E+03  0.97906256728E+03  0.00000000000E+00 0. -1.
         22    1    1    2    0    0  0.17597372352E+04 -0.34977624547E+03  0.34688790209E+03  0.18273887860E+04  0.00000000000E+00 0.  1.
<mgrwt>
<rscale>  0 0.39903361E+04</rscale>
<asrwt>0</asrwt>
<pdfrwt beam="1">  1        1 0.59388431E+00 0.39903361E+04</pdfrwt>
<pdfrwt beam="2">  1       -1 0.15864646E+00 0.39903361E+04</pdfrwt>
<totfact> 0.29630857E-02</totfact>
</mgrwt>
</event>
<event>
 6    1  0.1072514E-005  0.4147693E+03  0.7818608E-02  0.1038782E+00
          2   -1    0    0  501    0  0.00000000000E+00  0.00000000000E+00  0.36869420637E+03  0.36869420637E+03  0.00000000000E+00 0. -1.
         -2   -1    0    0    0  501 -0.00000000000E+00 -0.00000000000E+00 -0.11665056313E+03  0.11665056313E+03  0.00000000000E+00 0.  1.
         23    2    1    2    0    0  0.17541722153E+03 -0.22746541501E+02  0.23467356123E+03  0.30760809206E+03  0.90898026378E+02 0.  0.
         13    1    3    3    0    0  0.12556785869E+03  0.69955530082E+01  0.20947320522E+03  0.24432611117E+03  0.00000000000E+00 0.  1.
        -13    1    3    3    0    0  0.49849362843E+02 -0.29742094509E+02  0.25200356016E+02  0.63281980887E+02  0.00000000000E+00 0. -1.
         22    1    1    2    0    0 -0.17541722153E+03  0.22746541501E+02  0.17370082011E+02  0.17773667744E+03  0.00000000000E+00 0.  1.
<mgrwt>
<rscale>  0 0.41476927E+03</rscale>
<asrwt>0</asrwt>
<pdfrwt beam="1">  1        2 0.56722185E-01 0.41476927E+03</pdfrwt>
<pdfrwt beam="2">  1       -2 0.17946241E-01 0.41476927E+03</pdfrwt>
<totfact> 0.22241090E+03</totfact>
</mgrwt>
</event>
<event>
 6    1  0.1072514E-005  0.2948641E+04  0.7818608E-02  0.8258551E-01
          1   -1    0    0  501    0  0.00000000000E+00  0.00000000000E+00  0.25760863925E+04  0.25760863925E+04  0.00000000000E+00 0. -1.
         -1   -1    0    0    0  501 -0.00000000000E+00 -0.00000000000E+00 -0.84376851914E+03  0.84376851914E+03  0.00000000000E+00 0.  1.
         23    2    1    2    0    0  0.18790256979E+03 -0.96029422964E+03  0.21437331353E+04  0.23583772148E+04  0.94228173569E+02 0.  0.
         13    1    3    3    0    0  0.49863127524E+02 -0.46189638087E+03  0.95428528702E+03  0.10613646909E+04  0.00000000000E+00 0. -1.
        -13    1    3    3    0    0  0.13803944226E+03 -0.49839784877E+03  0.11894478482E+04  0.12970125238E+04  0.00000000000E+00 0.  1.
         22    1    1    2    0    0 -0.18790256979E+03  0.96029422964E+03 -0.41141526192E+03  0.10614776969E+04  0.00000000000E+00 0.  1.
<mgrwt>
<rscale>  0 0.29486408E+04</rscale>
<asrwt>0</asrwt>
<pdfrwt beam="1">  1        1 0.39632098E+00 0.29486408E+04</pdfrwt>
<pdfrwt beam="2">  1       -1 0.12981054E+00 0.29486408E+04</pdfrwt>
<totfact> 0.52151025E-01</totfact>
</mgrwt>
</event>
<event>
 6    1  0.1072514E-005  0.1664060E+04  0.7818608E-02  0.8782132E-01
         -1   -1    0    0    0  501 -0.00000000000E+00  0.00000000000E+00  0.69193695786E+03  0.69193695786E+03  0.00000000000E+00 0.  1.
          1   -1    0    0  501    0  0.00000000000E+00 -0.00000000000E+00 -0.10004868804E+04  0.10004868804E+04  0.00000000000E+00 0. -1.
         23    2    1    2    0    0  0.46127740406E+03 -0.14489042538E+03  0.53075893110E+03  0.72381172256E+03  0.91805707398E+02 0.  0.
         11    1    3    3    0    0  0.15245882710E+03 -0.56496173345E+02  0.24403891434E+03  0.29324137374E+03  0.00000000000E+00 0.  1.
        -11    1    3    3    0    0  0.30881857696E+03 -0.88394252039E+02  0.28672001676E+03  0.43057034882E+03  0.00000000000E+00 0. -1.
         22    1    1    2    0    0 -0.46127740406E+03  0.14489042538E+03 -0.83930885361E+03  0.96861211567E+03  0.00000000000E+00 0. -1.
<mgrwt>
<rscale>  0 0.16640599E+04</rscale>
<asrwt>0</asrwt>
<pdfrwt beam="1">  1        1 0.15392106E+00 0.16640599E+04</pdfrwt>
<pdfrwt beam="2">  1       -1 0.10645184E+00 0.16640599E+04</pdfrwt>
<totfact> 0.11899101E+01</totfact>
</mgrwt>
</event>
<event>
 6    1  0.1072514E-005  0.1598254E+04  0.7818608E-02  0.8821621E-01
         -1   -1    0    0    0  501 -0.00000000000E+00  0.00000000000E+00  0.30567985472E+03  0.30567985472E+03  0.00000000000E+00 0.  1.
          1   -1    0    0  501    0  0.00000000000E+00 -0.00000000000E+00 -0.20891266256E+04  0.20891266256E+04  0.00000000000E+00 0. -1.
         23    2    1    2    0    0  0.19598921932E+03 -0.14505912760E+03 -0.20308403179E+04  0.20474486076E+04  0.90991644875E+02 0.  0.
         11    1    3    3    0    0  0.74597883561E+02 -0.59433676069E+02 -0.11703195139E+04  0.11741997150E+04  0.00000000000E+00 0. -1.
        -11    1    3    3    0    0  0.12139133576E+03 -0.85625451534E+02 -0.86052080404E+03  0.87324889267E+03  0.00000000000E+00 0.  1.
         22    1    1    2    0    0 -0.19598921932E+03  0.14505912760E+03  0.24739354705E+03  0.34735787268E+03  0.00000000000E+00 0.  1.
<mgrwt>
<rscale>  0 0.15982540E+04</rscale>
<asrwt>0</asrwt>
<pdfrwt beam="1">  1        1 0.32140409E+00 0.15982540E+04</pdfrwt>
<pdfrwt beam="2">  1       -1 0.47027670E-01 0.15982540E+04</pdfrwt>
<totfact> 0.11222583E+01</totfact>
</mgrwt>
</event>
<event>
 6    1  0.1072514E-005  0.2846291E+04  0.7818608E-02  0.8289039E-01
          1   -1    0    0  501    0  0.00000000000E+00  0.00000000000E+00  0.12319543858E+04  0.12319543858E+04  0.00000000000E+00 0.  1.
         -1   -1    0    0    0  501 -0.00000000000E+00 -0.00000000000E+00 -0.16440084379E+04  0.16440084379E+04  0.00000000000E+00 0. -1.
         23    2    1    2    0    0 -0.93064424068E+03 -0.50505650028E+03 -0.11648015193E+04  0.15768055889E+04  0.91501445540E+02 0.  0.
         11    1    3    3    0    0 -0.42888095860E+03 -0.18137623674E+03 -0.51731952584E+03  0.69602852508E+03  0.00000000000E+00 0. -1.
        -11    1    3    3    0    0 -0.50176328208E+03 -0.32368026353E+03 -0.64748199349E+03  0.88077706381E+03  0.00000000000E+00 0.  1.
         22    1    1    2    0    0  0.93064424068E+03  0.50505650028E+03  0.75274746725E+03  0.12991572348E+04  0.00000000000E+00 0.  1.
<mgrwt>
<rscale>  0 0.28462912E+04</rscale>
<asrwt>0</asrwt>
<pdfrwt beam="1">  1        1 0.18953144E+00 0.28462912E+04</pdfrwt>
<pdfrwt beam="2">  1       -1 0.25292438E+00 0.28462912E+04</pdfrwt>
<totfact> 0.58262900E-01</totfact>
</mgrwt>
</event>
<event>
 6    1  0.1072514E-005  0.4919862E+04  0.7818608E-02  0.7840990E-01
         -2   -1    0    0    0  501 -0.00000000000E+00  0.00000000000E+00  0.24075950486E+04  0.24075950486E+04  0.00000000000E+00 0.  1.
          2   -1    0    0  501    0  0.00000000000E+00 -0.00000000000E+00 -0.25134047356E+04  0.25134047356E+04  0.00000000000E+00 0. -1.
         23    2    1    2    0    0  0.19750081142E+04  0.14649081130E+04 -0.30079435211E+02  0.24608477763E+04  0.90852490606E+02 0.  0.
         13    1    3    3    0    0  0.33560393649E+03  0.28519707817E+03 -0.24467239102E+02  0.44109638558E+03  0.00000000000E+00 0.  1.
        -13    1    3    3    0    0  0.16394041777E+04  0.11797110348E+04 -0.56121961091E+01  0.20197513907E+04  0.00000000000E+00 0. -1.
         22    1    1    2    0    0 -0.19750081142E+04 -0.14649081130E+04 -0.75730251825E+02  0.24601520079E+04  0.00000000000E+00 0.  1.
<mgrwt>
<rscale>  0 0.49198621E+04</rscale>
<asrwt>0</asrwt>
<pdfrwt beam="1">  1        2 0.38667765E+00 0.49198621E+04</pdfrwt>
<pdfrwt beam="2">  1       -2 0.37039924E+00 0.49198621E+04</pdfrwt>
<totfact> 0.28920272E-02</totfact>
</mgrwt>
</event>
<event>
 6    1  0.1072514E-005  0.2745950E+04  0.7818608E-02  0.8320248E-01
          2   -1    0    0  501    0  0.00000000000E+00  0.00000000000E+00  0.23941302158E+04  0.23941302158E+04  0.00000000000E+00 0. -1.
         -2   -1    0    0    0  501 -0.00000000000E+00 -0.00000000000E+00 -0.78736739273E+03  0.78736739273E+03  0.00000000000E+00 0.  1.
         23    2    1    2    0    0 -0.12359643876E+04 -0.51095850372E+03  0.45230328149E+03  0.14147312422E+04  0.90552024588E+02 0.  0.
         11    1    3    3    0    0 -0.82261338134E+03 -0.37882956086E+03  0.28178464391E+03  0.94847625004E+03  0.00000000000E+00 0.  1.
        -11    1    3    3    0    0 -0.41335100629E+03 -0.13212894286E+03  0.17051863757E+03  0.46625499215E+03  0.00000000000E+00 0. -1.
         22    1    1    2    0    0  0.12359643876E+04  0.51095850372E+03  0.11544595416E+04  0.17667663663E+04  0.00000000000E+00 0. -1.
<mgrwt>
<rscale>  0 0.27459498E+04</rscale>
<asrwt>0</asrwt>
<pdfrwt beam="1">  1        2 0.36832772E+00 0.27459498E+04</pdfrwt>
<pdfrwt beam="2">  1       -2 0.12113345E+00 0.27459498E+04</pdfrwt>
<totfact> 0.18160292E+00</totfact>
</mgrwt>
</event>
<event>
 6    1  0.1072514E-005  0.1326068E+04  0.7818608E-02  0.9009145E-01
         -2   -1    0    0    0  501 -0.00000000000E+00  0.00000000000E+00  0.12545661413E+04  0.12545661413E+04  0.00000000000E+00 0.  1.
          2   -1    0    0  501    0  0.00000000000E+00 -0.00000000000E+00 -0.35041114694E+03  0.35041114694E+03  0.00000000000E+00 0. -1.
         23    2    1    2    0    0  0.51664651778E+02  0.34394019947E+03 -0.22184283689E+03  0.42648875922E+03  0.10823271412E+03 0.  0.
         11    1    3    3    0    0 -0.20308909460E+02  0.16662778533E+03 -0.13909313933E+03  0.21800039462E+03  0.00000000000E+00 0. -1.
        -11    1    3    3    0    0  0.71973561237E+02  0.17731241414E+03 -0.82749697559E+02  0.20848836460E+03  0.00000000000E+00 0.  1.
         22    1    1    2    0    0 -0.51664651778E+02 -0.34394019947E+03  0.11259978312E+04  0.11784885290E+04  0.00000000000E+00 0.  1.
<mgrwt>
<rscale>  0 0.13260678E+04</rscale>
<asrwt>0</asrwt>
<pdfrwt beam="1">  1        2 0.53909408E-01 0.13260678E+04</pdfrwt>
<pdfrwt beam="2">  1       -2 0.19301017E+00 0.13260678E+04</pdfrwt>
<totfact> 0.13347248E+01</totfact>
</mgrwt>
</event>
<event>
 6    1  0.1072514E-005  0.1782980E+04  0.7818608E-02  0.8715403E-01
          2   -1    0    0  501    0  0.00000000000E+00  0.00000000000E+00  0.27489979650E+04  0.27489979650E+04  0.00000000000E+00 0. -1.
         -2   -1    0    0    0  501 -0.00000000000E+00 -0.00000000000E+00 -0.28910710618E+03  0.28910710618E+03  0.00000000000E+00 0.  1.
         23    2    1    2    0    0  0.38718699575E+03  0.75555950654E+03  0.16836695271E+04  0.18877557792E+04  0.89971484727E+02 0.  0.
         13    1    3    3    0    0  0.31997320444E+03  0.56765334956E+03  0.13481520438E+04  0.14973734037E+04  0.00000000000E+00 0. -1.
        -13    1    3    3    0    0  0.67213791311E+02  0.18790615698E+03  0.33551748330E+03  0.39038237559E+03  0.00000000000E+00 0.  1.
         22    1    1    2    0    0 -0.38718699575E+03 -0.75555950654E+03  0.77622133174E+03  0.11503492919E+04  0.00000000000E+00 0. -1.
<mgrwt>
<rscale>  0 0.17829805E+04</rscale>
<asrwt>0</asrwt>
<pdfrwt beam="1">  1        2 0.42292275E+00 0.17829805E+04</pdfrwt>
<pdfrwt beam="2">  1       -2 0.44478018E-01 0.17829805E+04</pdfrwt>
<totfact> 0.11275963E+01</totfact>
</mgrwt>
</event>
<event>
 6    1  0.1072514E-005  0.1506321E+04  0.7818608E-02  0.8880260E-01
         -1   -1    0    0    0  501 -0.00000000000E+00  0.00000000000E+00  0.68434178287E+03  0.68434178287E+03  0.00000000000E+00 0.  1.
          1   -1    0    0  501    0  0.00000000000E+00 -0.00000000000E+00 -0.82890008398E+03  0.82890008398E+03  0.00000000000E+00 0. -1.
         23    2    1    2    0    0 -0.51935703386E+03 -0.48367690928E+03  0.17289184503E+03  0.73577824939E+03  0.88334370499E+02 0.  0.
         13    1    3    3    0    0 -0.27696472360E+03 -0.20303063021E+03  0.64351331949E+02  0.34938802047E+03  0.00000000000E+00 0. -1.
        -13    1    3    3    0    0 -0.24239231026E+03 -0.28064627907E+03  0.10854051308E+03  0.38639022892E+03  0.00000000000E+00 0.  1.
         22    1    1    2    0    0  0.51935703386E+03  0.48367690928E+03 -0.31745014613E+03  0.77746361746E+03  0.00000000000E+00 0.  1.
<mgrwt>
<rscale>  0 0.15063213E+04</rscale>
<asrwt>0</asrwt>
<pdfrwt beam="1">  1        1 0.12752309E+00 0.15063213E+04</pdfrwt>
<pdfrwt beam="2">  1       -1 0.10528335E+00 0.15063213E+04</pdfrwt>
<totfact> 0.17079670E+01</totfact>
</mgrwt>
</event>
<event>
 6    1  0.1072514E-005  0.2415332E+04  0.7818608E-02  0.8433786E-01
         -2   -1    0    0    0  501 -0.00000000000E+00  0.00000000000E+00  0.12507515014E+04  0.12507515014E+04  0.00000000000E+00 0.  1.
          2   -1    0    0  501    0  0.00000000000E+00 -0.00000000000E+00 -0.11660643423E+04  0.11660643423E+04  0.00000000000E+00 0. -1.
         23    2    1    2    0    0  0.17071451692E+03  0.11914443138E+04  0.11770319882E+03  0.12127506221E+04  0.90702971472E+02 0.  0.
         13    1    3    3    0    0  0.45360524077E+02  0.55485710220E+03  0.24181391364E+02  0.55723309369E+03  0.00000000000E+00 0.  1.
        -13    1    3    3    0    0  0.12535399284E+03  0.63658721164E+03  0.93521807459E+02  0.65551752838E+03  0.00000000000E+00 0. -1.
         22    1    1    2    0    0 -0.17071451692E+03 -0.11914443138E+04 -0.33016039733E+02  0.12040652217E+04  0.00000000000E+00 0. -1.
<mgrwt>
<rscale>  0 0.24153316E+04</rscale>
<asrwt>0</asrwt>
<pdfrwt beam="1">  1        2 0.17939451E+00 0.24153316E+04</pdfrwt>
<pdfrwt beam="2">  1       -2 0.19242331E+00 0.24153316E+04</pdfrwt>
<totfact> 0.26620372E+00</totfact>
</mgrwt>
</event>
<event>
 6    1  0.1072514E-005  0.2480725E+04  0.7818608E-02  0.8409885E-01
          2   -1    0    0  501    0  0.00000000000E+00  0.00000000000E+00  0.28141294998E+04  0.28141294998E+04  0.00000000000E+00 0. -1.
         -2   -1    0    0    0  501 -0.00000000000E+00 -0.00000000000E+00 -0.54670522853E+03  0.54670522853E+03  0.00000000000E+00 0.  1.
         23    2    1    2    0    0 -0.11094465330E+04  0.13133381270E+03  0.18600401675E+04  0.21716829348E+04  0.91308075776E+02 0.  0.
         11    1    3    3    0    0 -0.77630461040E+03  0.94352024342E+02  0.13805056348E+04  0.15866149376E+04  0.00000000000E+00 0.  1.
        -11    1    3    3    0    0 -0.33314192262E+03  0.36981788354E+02  0.47953453270E+03  0.58506799718E+03  0.00000000000E+00 0. -1.
         22    1    1    2    0    0  0.11094465330E+04 -0.13133381270E+03  0.40738410376E+03  0.11891517935E+04  0.00000000000E+00 0.  1.
<mgrwt>
<rscale>  0 0.24807251E+04</rscale>
<asrwt>0</asrwt>
<pdfrwt beam="1">  1        2 0.43294299E+00 0.24807251E+04</pdfrwt>
<pdfrwt beam="2">  1       -2 0.84108498E-01 0.24807251E+04</pdfrwt>
<totfact> 0.24996082E+00</totfact>
</mgrwt>
</event>
<event>
 6    1  0.1072514E-005  0.2308489E+04  0.7818608E-02  0.8474582E-01
         -2   -1    0    0    0  501 -0.00000000000E+00  0.00000000000E+00  0.33187735636E+03  0.33187735636E+03  0.00000000000E+00 0.  1.
          2   -1    0    0  501    0  0.00000000000E+00 -0.00000000000E+00 -0.40143742538E+04  0.40143742538E+04  0.00000000000E+00 0. -1.
         23    2    1    2    0    0 -0.26297566686E+03  0.10064110348E+04 -0.91011601817E+03  0.13851512890E+04  0.91178694936E+02 0.  0.
         11    1    3    3    0    0 -0.72429056516E+02  0.43935644033E+03 -0.36354562989E+03  0.57484387002E+03  0.00000000000E+00 0. -1.
        -11    1    3    3    0    0 -0.19054661034E+03  0.56705459451E+03 -0.54657038828E+03  0.81030741896E+03  0.00000000000E+00 0.  1.
         22    1    1    2    0    0  0.26297566686E+03 -0.10064110348E+04 -0.27723808793E+04  0.29611003212E+04  0.00000000000E+00 0. -1.
<mgrwt>
<rscale>  0 0.23084886E+04</rscale>
<asrwt>0</asrwt>
<pdfrwt beam="1">  1        2 0.61759604E+00 0.23084886E+04</pdfrwt>
<pdfrwt beam="2">  1       -2 0.51058055E-01 0.23084886E+04</pdfrwt>
<totfact> 0.11002964E+00</totfact>
</mgrwt>
</event>
<event>
 6    1  0.1072514E-005  0.2527671E+04  0.7818608E-02  0.8393193E-01
         -2   -1    0    0    0  501 -0.00000000000E+00  0.00000000000E+00  0.10636033582E+04  0.10636033582E+04  0.00000000000E+00 0.  1.
          2   -1    0    0  501    0  0.00000000000E+00 -0.00000000000E+00 -0.15017633522E+04  0.15017633522E+04  0.00000000000E+00 0. -1.
         23    2    1    2    0    0 -0.62587548993E+03 -0.15553570764E+03  0.88186094324E+03  0.10962286092E+04  0.90149627103E+02 0.  0.
         13    1    3    3    0    0 -0.28840386496E+03 -0.77341798560E+02  0.48396567997E+03  0.56866626638E+03  0.00000000000E+00 0. -1.
        -13    1    3    3    0    0 -0.33747162497E+03 -0.78193909080E+02  0.39789526327E+03  0.52756234286E+03  0.00000000000E+00 0.  1.
         22    1    1    2    0    0  0.62587548993E+03  0.15553570764E+03 -0.13200209373E+04  0.14691381012E+04  0.00000000000E+00 0. -1.
<mgrwt>
<rscale>  0 0.25276713E+04</rscale>
<asrwt>0</asrwt>
<pdfrwt beam="1">  1        2 0.23104052E+00 0.25276713E+04</pdfrwt>
<pdfrwt beam="2">  1       -2 0.16363129E+00 0.25276713E+04</pdfrwt>
<totfact> 0.26700634E+00</totfact>
</mgrwt>
</event>
<event>
 6    1  0.1072514E-005  0.2700377E+04  0.7818608E-02  0.8334883E-01
         -2   -1    0    0    0  501 -0.00000000000E+00  0.00000000000E+00  0.61269530677E+03  0.61269530677E+03  0.00000000000E+00 0.  1.
          2   -1    0    0  501    0  0.00000000000E+00 -0.00000000000E+00 -0.29753918775E+04  0.29753918775E+04  0.00000000000E+00 0. -1.
         23    2    1    2    0    0  0.16497390853E+03 -0.95100057615E+03 -0.24343314767E+04  0.26202286997E+04  0.89499796664E+02 0.  0.
         11    1    3    3    0    0  0.10364252736E+03 -0.53061181643E+03 -0.12459330366E+04  0.13581751746E+04  0.00000000000E+00 0. -1.
        -11    1    3    3    0    0  0.61331381174E+02 -0.42038875972E+03 -0.11883984401E+04  0.12620535251E+04  0.00000000000E+00 0.  1.
         22    1    1    2    0    0 -0.16497390853E+03  0.95100057615E+03  0.71634906053E+02  0.96785848455E+03  0.00000000000E+00 0.  1.
<mgrwt>
<rscale>  0 0.27003767E+04</rscale>
<asrwt>0</asrwt>
<pdfrwt beam="1">  1        2 0.45775259E+00 0.27003767E+04</pdfrwt>
<pdfrwt beam="2">  1       -2 0.94260818E-01 0.27003767E+04</pdfrwt>
<totfact> 0.15017311E+00</totfact>
</mgrwt>
</event>
<event>
 6    1  0.1072514E-005  0.9650526E+03  0.7818608E-02  0.9347727E-01
         -1   -1    0    0    0  501 -0.00000000000E+00  0.00000000000E+00  0.89611875749E+03  0.89611875749E+03  0.00000000000E+00 0.  1.
          1   -1    0    0  501    0  0.00000000000E+00 -0.00000000000E+00 -0.25982228929E+03  0.25982228929E+03  0.00000000000E+00 0. -1.
         23    2    1    2    0    0  0.24182610064E+03 -0.17850939592E+03  0.76647160037E+03  0.82838794816E+03  0.91664666531E+02 0.  0.
         13    1    3    3    0    0  0.19825129979E+03 -0.10438493562E+03  0.48870194774E+03  0.53761453326E+03  0.00000000000E+00 0. -1.
        -13    1    3    3    0    0  0.43574800849E+02 -0.74124460294E+02  0.27776965264E+03  0.29077341490E+03  0.00000000000E+00 0.  1.
         22    1    1    2    0    0 -0.24182610064E+03  0.17850939592E+03 -0.13017513217E+03  0.32755309862E+03  0.00000000000E+00 0. -1.
<mgrwt>
<rscale>  0 0.96505259E+03</rscale>
<asrwt>0</asrwt>
<pdfrwt beam="1">  1        1 0.39972660E-01 0.96505259E+03</pdfrwt>
<pdfrwt beam="2">  1       -1 0.13786442E+00 0.96505259E+03</pdfrwt>
<totfact> 0.46375295E+01</totfact>
</mgrwt>
</event>
<event>
 6    1  0.1072514E-005  0.3306868E+04  0.7818608E-02  0.8161150E-01
          2   -1    0    0  501    0  0.00000000000E+00  0.00000000000E+00  0.37274107903E+04  0.37274107903E+04  0.00000000000E+00 0. -1.
         -2   -1    0    0    0  501 -0.00000000000E+00 -0.00000000000E+00 -0.73344317064E+03  0.73344317064E+03  0.00000000000E+00 0.  1.
         23    2    1    2    0    0 -0.17608061297E+03 -0.16111322244E+04  0.19309548888E+04  0.25226208756E+04  0.90982816347E+02 0.  0.
         11    1    3    3    0    0 -0.14585315775E+02 -0.90660728265E+02  0.14400480404E+03  0.17079075699E+03  0.00000000000E+00 0. -1.
        -11    1    3    3    0    0 -0.16149529720E+03 -0.15204714962E+04  0.17869500847E+04  0.23518301186E+04  0.00000000000E+00 0.  1.
         22    1    1    2    0    0  0.17608061297E+03  0.16111322244E+04  0.10630127309E+04  0.19382330853E+04  0.00000000000E+00 0.  1.
<mgrwt>
<rscale>  0 0.33068680E+04</rscale>
<asrwt>0</asrwt>
<pdfrwt beam="1">  1        2 0.57344780E+00 0.33068680E+04</pdfrwt>
<pdfrwt beam="2">  1       -2 0.11283741E+00 0.33068680E+04</pdfrwt>
<totfact> 0.28664783E-01</totfact>
</mgrwt>
</event>
<event>
 6    1  0.1072514E-005  0.1661603E+04  0.7818608E-02  0.8783572E-01
          2   -1    0    0  501    0  0.00000000000E+00  0.00000000000E+00  0.30888401628E+04  0.30888401628E+04  0.00000000000E+00 0. -1.
         -2   -1    0    0    0  501 -0.00000000000E+00 -0.00000000000E+00 -0.22345970906E+03  0.22345970906E+03  0.00000000000E+00 0.  1.
         23    2    1    2    0    0  0.40836522410E+03  0.44837882116E+03  0.25623174632E+04  0.26343228075E+04  0.79875830680E+02 0.  0.
         11    1    3    3    0    0  0.10951802379E+03  0.10417355378E+03  0.50632596240E+03  0.52840543812E+03  0.00000000000E+00 0. -1.
        -11    1    3    3    0    0  0.29884720031E+03  0.34420526738E+03  0.20559915008E+04  0.21059173694E+04  0.00000000000E+00 0.  1.
         22    1    1    2    0    0 -0.40836522410E+03 -0.44837882116E+03  0.30306299046E+03  0.67797706429E+03  0.00000000000E+00 0.  1.
<mgrwt>
<rscale>  0 0.16616032E+04</rscale>
<asrwt>0</asrwt>
<pdfrwt beam="1">  1        2 0.47520615E+00 0.16616032E+04</pdfrwt>
<pdfrwt beam="2">  1       -2 0.34378419E-01 0.16616032E+04</pdfrwt>
<totfact> 0.11645318E+01</totfact>
</mgrwt>
</event>
<event>
 6    1  0.1072514E-005  0.1604051E+04  0.7818608E-02  0.8818063E-01
         -2   -1    0    0    0  501 -0.00000000000E+00  0.00000000000E+00  0.45623689297E+03  0.45623689297E+03  0.00000000000E+00 0.  1.
          2   -1    0    0  501    0  0.00000000000E+00 -0.00000000000E+00 -0.14098930439E+04  0.14098930439E+04  0.00000000000E+00 0. -1.
         23    2    1    2    0    0  0.19481600611E+03  0.49240123114E+03 -0.11739587495E+04  0.12925922454E+04  0.11046863211E+03 0.  0.
         11    1    3    3    0    0  0.15101406968E+03  0.27300226286E+03 -0.77023038600E+03  0.83101764860E+03  0.00000000000E+00 0.  1.
        -11    1    3    3    0    0  0.43801936428E+02  0.21939896828E+03 -0.40372836350E+03  0.46157459680E+03  0.00000000000E+00 0. -1.
         22    1    1    2    0    0 -0.19481600611E+03 -0.49240123114E+03  0.22030259852E+03  0.57353769151E+03  0.00000000000E+00 0.  1.
<mgrwt>
<rscale>  0 0.16040514E+04</rscale>
<asrwt>0</asrwt>
<pdfrwt beam="1">  1        2 0.21690662E+00 0.16040514E+04</pdfrwt>
<pdfrwt beam="2">  1       -2 0.70190291E-01 0.16040514E+04</pdfrwt>
<totfact> 0.25301385E+01</totfact>
</mgrwt>
</event>
<event>
 6    1  0.1072514E-005  0.1545376E+04  0.7818608E-02  0.8854827E-01
         -1   -1    0    0    0  501 -0.00000000000E+00  0.00000000000E+00  0.30047836585E+03  0.30047836585E+03  0.00000000000E+00 0.  1.
          1   -1    0    0  501    0  0.00000000000E+00 -0.00000000000E+00 -0.19869868826E+04  0.19869868826E+04  0.00000000000E+00 0. -1.
         23    2    1    2    0    0  0.60308530087E+03 -0.47342369758E+03 -0.94908932327E+03  0.12236847521E+04  0.93765406110E+02 0.  0.
         11    1    3    3    0    0  0.21488645772E+03 -0.13128582013E+03 -0.26017402934E+03  0.36208104317E+03  0.00000000000E+00 0. -1.
        -11    1    3    3    0    0  0.38819884316E+03 -0.34213787745E+03 -0.68891529394E+03  0.86160370893E+03  0.00000000000E+00 0.  1.
         22    1    1    2    0    0 -0.60308530087E+03  0.47342369758E+03 -0.73741919350E+03  0.10637804964E+04  0.00000000000E+00 0.  1.
<mgrwt>
<rscale>  0 0.15453758E+04</rscale>
<asrwt>0</asrwt>
<pdfrwt beam="1">  1        1 0.30569029E+00 0.15453758E+04</pdfrwt>
<pdfrwt beam="2">  1       -1 0.46227441E-01 0.15453758E+04</pdfrwt>
<totfact> 0.13655613E+01</totfact>
</mgrwt>
</event>
<event>
 6    1  0.1072514E-005  0.1243684E+04  0.7818608E-02  0.9075456E-01
         -2   -1    0    0    0  501 -0.00000000000E+00  0.00000000000E+00  0.53882879652E+03  0.53882879652E+03  0.00000000000E+00 0.  1.
          2   -1    0    0  501    0  0.00000000000E+00 -0.00000000000E+00 -0.71764440025E+03  0.71764440025E+03  0.00000000000E+00 0. -1.
         23    2    1    2    0    0 -0.12289656463E+02 -0.61573844000E+03 -0.34581911957E+02  0.62394792456E+03  0.93969366217E+02 0.  0.
         13    1    3    3    0    0 -0.11805530859E+02 -0.32212459908E+03 -0.64776924932E+02  0.32878515461E+03  0.00000000000E+00 0.  1.
        -13    1    3    3    0    0 -0.48412560405E+00 -0.29361384092E+03  0.30195012975E+02  0.29516276995E+03  0.00000000000E+00 0. -1.
         22    1    1    2    0    0  0.12289656463E+02  0.61573844000E+03 -0.14423369178E+03  0.63252527221E+03  0.00000000000E+00 0. -1.
<mgrwt>
<rscale>  0 0.12436840E+04</rscale>
<asrwt>0</asrwt>
<pdfrwt beam="1">  1        2 0.11040683E+00 0.12436840E+04</pdfrwt>
<pdfrwt beam="2">  1       -2 0.82896738E-01 0.12436840E+04</pdfrwt>
<totfact> 0.49839770E+01</totfact>
</mgrwt>
</event>
<event>
 6    1  0.1072514E-005  0.1273008E+04  0.7818608E-02  0.9051248E-01
          2   -1    0    0  501    0  0.00000000000E+00  0.00000000000E+00  0.83117394544E+03  0.83117394544E+03  0.00000000000E+00 0. -1.
         -2   -1    0    0    0  501 -0.00000000000E+00 -0.00000000000E+00 -0.48742804086E+03  0.48742804086E+03  0.00000000000E+00 0.  1.
         23    2    1    2    0    0 -0.12388986406E+03  0.67835685442E+02  0.81090463453E+03  0.83055725720E+03  0.11094436684E+03 0.  0.
         11    1    3    3    0    0 -0.42159066041E+02  0.43259864432E+01  0.52115198853E+03  0.52287235169E+03  0.00000000000E+00 0.  1.
        -11    1    3    3    0    0 -0.81730798020E+02  0.63509698999E+02  0.28975264600E+03  0.30768490551E+03  0.00000000000E+00 0. -1.
         22    1    1    2    0    0  0.12388986406E+03 -0.67835685442E+02 -0.46715872995E+03  0.48804472910E+03  0.00000000000E+00 0.  1.
<mgrwt>
<rscale>  0 0.12730082E+04</rscale>
<asrwt>0</asrwt>
<pdfrwt beam="1">  1        2 0.12787291E+00 0.12730082E+04</pdfrwt>
<pdfrwt beam="2">  1       -2 0.74988929E-01 0.12730082E+04</pdfrwt>
<totfact> 0.51346020E+01</totfact>
</mgrwt>
</event>
<event>
 6    1  0.1072514E-005  0.2685023E+04  0.7818608E-02  0.8339881E-01
         -1   -1    0    0    0  501 -0.00000000000E+00  0.00000000000E+00  0.60199881499E+03  0.60199881499E+03  0.00000000000E+00 0.  1.
          1   -1    0    0  501    0  0.00000000000E+00 -0.00000000000E+00 -0.29939205907E+04  0.29939205907E+04  0.00000000000E+00 0. -1.
         23    2    1    2    0    0  0.47066713834E+03  0.32363093498E+03 -0.28221408101E+04  0.28808299324E+04  0.91857553534E+02 0.  0.
         11    1    3    3    0    0  0.28035972109E+03  0.13727960933E+03 -0.15119390854E+04  0.15438287024E+04  0.00000000000E+00 0.  1.
        -11    1    3    3    0    0  0.19030741725E+03  0.18635132565E+03 -0.13102017247E+04  0.13370012300E+04  0.00000000000E+00 0. -1.
         22    1    1    2    0    0 -0.47066713834E+03 -0.32363093498E+03  0.43021903442E+03  0.71508947326E+03  0.00000000000E+00 0.  1.
<mgrwt>
<rscale>  0 0.26850226E+04</rscale>
<asrwt>0</asrwt>
<pdfrwt beam="1">  1        1 0.46060317E+00 0.26850226E+04</pdfrwt>
<pdfrwt beam="2">  1       -1 0.92615202E-01 0.26850226E+04</pdfrwt>
<totfact> 0.59817864E-01</totfact>
</mgrwt>
</event>
<event>
 6    1  0.1072514E-005  0.3165107E+04  0.7818608E-02  0.8198094E-01
          2   -1    0    0  501    0  0.00000000000E+00  0.00000000000E+00  0.19741804654E+04  0.19741804654E+04  0.00000000000E+00 0. -1.
         -2   -1    0    0    0  501 -0.00000000000E+00 -0.00000000000E+00 -0.12686149781E+04  0.12686149781E+04  0.00000000000E+00 0.  1.
         23    2    1    2    0    0 -0.65198304957E+03 -0.92849168460E+03 -0.77550166246E+03  0.13771216758E+04  0.88783873265E+02 0.  0.
         13    1    3    3    0    0 -0.10166718397E+03 -0.20500911795E+03 -0.16577890710E+03  0.28257317774E+03  0.00000000000E+00 0.  1.
        -13    1    3    3    0    0 -0.55031586559E+03 -0.72348256664E+03 -0.60972275537E+03  0.10945484980E+04  0.00000000000E+00 0. -1.
         22    1    1    2    0    0  0.65198304957E+03  0.92849168460E+03  0.14810671497E+04  0.18656737677E+04  0.00000000000E+00 0. -1.
<mgrwt>
<rscale>  0 0.31651066E+04</rscale>
<asrwt>0</asrwt>
<pdfrwt beam="1">  1        2 0.30372007E+00 0.31651066E+04</pdfrwt>
<pdfrwt beam="2">  1       -2 0.19517154E+00 0.31651066E+04</pdfrwt>
<totfact> 0.83486239E-01</totfact>
</mgrwt>
</event>
<event>
 6    1  0.1072514E-005  0.2497332E+04  0.7818608E-02  0.8403937E-01
          2   -1    0    0  501    0  0.00000000000E+00  0.00000000000E+00  0.14895136447E+04  0.14895136447E+04  0.00000000000E+00 0. -1.
         -2   -1    0    0    0  501 -0.00000000000E+00 -0.00000000000E+00 -0.10467625877E+04  0.10467625877E+04  0.00000000000E+00 0.  1.
         23    2    1    2    0    0  0.42722968266E+03 -0.11696397892E+04  0.15412686299E+03  0.12580405876E+04  0.91261120649E+02 0.  0.
         11    1    3    3    0    0  0.27963312267E+03 -0.63694926975E+03  0.96335359235E+02  0.70226743978E+03  0.00000000000E+00 0. -1.
        -11    1    3    3    0    0  0.14759655999E+03 -0.53269051941E+03  0.57791503750E+02  0.55577314787E+03  0.00000000000E+00 0.  1.
         22    1    1    2    0    0 -0.42722968266E+03  0.11696397892E+04  0.28862419401E+03  0.12782356447E+04  0.00000000000E+00 0.  1.
<mgrwt>
<rscale>  0 0.24973323E+04</rscale>
<asrwt>0</asrwt>
<pdfrwt beam="1">  1        2 0.22915595E+00 0.24973323E+04</pdfrwt>
<pdfrwt beam="2">  1       -2 0.16104040E+00 0.24973323E+04</pdfrwt>
<totfact> 0.28413577E+00</totfact>
</mgrwt>
</event>
<event>
 6    1  0.1072514E-005  0.8403947E+03  0.7818608E-02  0.9503320E-01
          2   -1    0    0  501    0  0.00000000000E+00  0.00000000000E+00  0.15454771510E+04  0.15454771510E+04  0.00000000000E+00 0. -1.
         -2   -1    0    0    0  501 -0.00000000000E+00 -0.00000000000E+00 -0.11424680845E+03  0.11424680845E+03  0.00000000000E+00 0.  1.
         23    2    1    2    0    0  0.31166376306E+03  0.27322713965E+03  0.67744262318E+03  0.79950114126E+03  0.92120552144E+02 0.  0.
         13    1    3    3    0    0  0.82911929748E+02  0.96355707612E+02  0.13922300617E+03  0.18852547820E+03  0.00000000000E+00 0. -1.
        -13    1    3    3    0    0  0.22875183331E+03  0.17687143204E+03  0.53821961701E+03  0.61097566306E+03  0.00000000000E+00 0.  1.
         22    1    1    2    0    0 -0.31166376306E+03 -0.27322713965E+03  0.75378771936E+03  0.86022281817E+03  0.00000000000E+00 0. -1.
<mgrwt>
<rscale>  0 0.84039475E+03</rscale>
<asrwt>0</asrwt>
<pdfrwt beam="1">  1        2 0.23776570E+00 0.84039475E+03</pdfrwt>
<pdfrwt beam="2">  1       -2 0.17576433E-01 0.84039475E+03</pdfrwt>
<totfact> 0.32233919E+02</totfact>
</mgrwt>
</event>
<event>
 6    1  0.1072514E-005  0.3358783E+04  0.7818608E-02  0.8148097E-01
          2   -1    0    0  501    0  0.00000000000E+00  0.00000000000E+00  0.19899167374E+04  0.19899167374E+04  0.00000000000E+00 0. -1.
         -2   -1    0    0    0  501 -0.00000000000E+00 -0.00000000000E+00 -0.14173238191E+04  0.14173238191E+04  0.00000000000E+00 0.  1.
         23    2    1    2    0    0  0.18419557924E+03  0.16681225765E+04  0.29160285634E+03  0.17056188721E+04  0.86847967359E+02 0.  0.
         13    1    3    3    0    0  0.56627514054E+02  0.32269467506E+03  0.29260888471E+02  0.32892967068E+03  0.00000000000E+00 0. -1.
        -13    1    3    3    0    0  0.12756806518E+03  0.13454279015E+04  0.26234196787E+03  0.13766892015E+04  0.00000000000E+00 0.  1.
         22    1    1    2    0    0 -0.18419557924E+03 -0.16681225765E+04  0.28099006188E+03  0.17016216843E+04  0.00000000000E+00 0. -1.
<mgrwt>
<rscale>  0 0.33587833E+04</rscale>
<asrwt>0</asrwt>
<pdfrwt beam="1">  1        2 0.30614104E+00 0.33587833E+04</pdfrwt>
<pdfrwt beam="2">  1       -2 0.21804982E+00 0.33587833E+04</pdfrwt>
<totfact> 0.57215018E-01</totfact>
</mgrwt>
</event>
<event>
 6    1  0.1072514E-005  0.2060686E+04  0.7818608E-02  0.8578762E-01
         -2   -1    0    0    0  501 -0.00000000000E+00  0.00000000000E+00  0.59604662171E+03  0.59604662171E+03  0.00000000000E+00 0. -1.
          2   -1    0    0  501    0  0.00000000000E+00 -0.00000000000E+00 -0.17810802441E+04  0.17810802441E+04  0.00000000000E+00 0.  1.
         23    2    1    2    0    0  0.20046839698E+03 -0.97602185086E+03 -0.30010942525E+03  0.10444989859E+04  0.90034620872E+02 0.  0.
         13    1    3    3    0    0  0.68479470854E+02 -0.23721596910E+03 -0.39540371133E+02  0.25004858503E+03  0.00000000000E+00 0. -1.
        -13    1    3    3    0    0  0.13198892613E+03 -0.73880588176E+03 -0.26056905412E+03  0.79445040091E+03  0.00000000000E+00 0.  1.
         22    1    1    2    0    0 -0.20046839698E+03  0.97602185086E+03 -0.88492419711E+03  0.13326278799E+04  0.00000000000E+00 0.  1.
<mgrwt>
<rscale>  0 0.20606862E+04</rscale>
<asrwt>0</asrwt>
<pdfrwt beam="1">  1        2 0.27401234E+00 0.20606862E+04</pdfrwt>
<pdfrwt beam="2">  1       -2 0.91699483E-01 0.20606862E+04</pdfrwt>
<totfact> 0.82707769E+00</totfact>
</mgrwt>
</event>
<event>
 6    1  0.1072514E-005  0.1663328E+04  0.7818608E-02  0.8782561E-01
         -1   -1    0    0    0  501 -0.00000000000E+00  0.00000000000E+00  0.79091411645E+03  0.79091411645E+03  0.00000000000E+00 0. -1.
          1   -1    0    0  501    0  0.00000000000E+00 -0.00000000000E+00 -0.87451291893E+03  0.87451291893E+03  0.00000000000E+00 0.  1.
         23    2    1    2    0    0 -0.50389297142E+03 -0.63987650957E+03  0.11362915348E+03  0.82742408744E+03  0.91482030022E+02 0.  0.
         11    1    3    3    0    0 -0.10788665661E+02 -0.29267766724E+02 -0.10293966942E+02  0.32847575727E+02  0.00000000000E+00 0.  1.
        -11    1    3    3    0    0 -0.49310430576E+03 -0.61060874285E+03  0.12392312042E+03  0.79457651172E+03  0.00000000000E+00 0. -1.
         22    1    1    2    0    0  0.50389297142E+03  0.63987650957E+03 -0.19722795596E+03  0.83800294794E+03  0.00000000000E+00 0.  1.
<mgrwt>
<rscale>  0 0.16633275E+04</rscale>
<asrwt>0</asrwt>
<pdfrwt beam="1">  1        1 0.13454045E+00 0.16633275E+04</pdfrwt>
<pdfrwt beam="2">  1       -1 0.12167909E+00 0.16633275E+04</pdfrwt>
<totfact> 0.10910758E+01</totfact>
</mgrwt>
</event>
<event>
 6    1  0.1072514E-005  0.1605012E+04  0.7818608E-02  0.8817475E-01
         -2   -1    0    0    0  501 -0.00000000000E+00  0.00000000000E+00  0.15015015218E+04  0.15015015218E+04  0.00000000000E+00 0.  1.
          2   -1    0    0  501    0  0.00000000000E+00 -0.00000000000E+00 -0.42891465539E+03  0.42891465539E+03  0.00000000000E+00 0. -1.
         23    2    1    2    0    0 -0.38095604700E+03  0.66578002759E+03  0.81101675051E+03  0.11199783446E+04  0.90624323129E+02 0.  0.
         11    1    3    3    0    0 -0.32100570179E+03  0.49390964352E+03  0.59107421939E+03  0.83448195269E+03  0.00000000000E+00 0. -1.
        -11    1    3    3    0    0 -0.59950345206E+02  0.17187038407E+03  0.21994253112E+03  0.28549639194E+03  0.00000000000E+00 0.  1.
         22    1    1    2    0    0  0.38095604700E+03 -0.66578002759E+03  0.26157011590E+03  0.81043783254E+03  0.00000000000E+00 0. -1.
<mgrwt>
<rscale>  0 0.16050122E+04</rscale>
<asrwt>0</asrwt>
<pdfrwt beam="1">  1        2 0.65986871E-01 0.16050122E+04</pdfrwt>
<pdfrwt beam="2">  1       -2 0.23100023E+00 0.16050122E+04</pdfrwt>
<totfact> 0.59324928E+00</totfact>
</mgrwt>
</event>
<event>
 6    1  0.1072514E-005  0.1548019E+04  0.7818608E-02  0.8853134E-01
         -1   -1    0    0    0  501 -0.00000000000E+00  0.00000000000E+00  0.39752608840E+03  0.39752608840E+03  0.00000000000E+00 0.  1.
          1   -1    0    0  501    0  0.00000000000E+00 -0.00000000000E+00 -0.15070477806E+04  0.15070477806E+04  0.00000000000E+00 0. -1.
         23    2    1    2    0    0  0.28442981492E+03  0.69350062448E+03 -0.78026997682E+03  0.10858858161E+04  0.92105011865E+02 0.  0.
         11    1    3    3    0    0  0.52842278167E+02  0.57281319325E+02 -0.72932845968E+02  0.10673638520E+03  0.00000000000E+00 0. -1.
        -11    1    3    3    0    0  0.23158753676E+03  0.63621930515E+03 -0.70733713086E+03  0.97914943094E+03  0.00000000000E+00 0.  1.
         22    1    1    2    0    0 -0.28442981492E+03 -0.69350062448E+03 -0.32925171534E+03  0.81868805281E+03  0.00000000000E+00 0.  1.
<mgrwt>
<rscale>  0 0.15480191E+04</rscale>
<asrwt>0</asrwt>
<pdfrwt beam="1">  1        1 0.23185351E+00 0.15480191E+04</pdfrwt>
<pdfrwt beam="2">  1       -1 0.61157859E-01 0.15480191E+04</pdfrwt>
<totfact> 0.16900280E+01</totfact>
</mgrwt>
</event>
<event>
 6    1  0.1072514E-005  0.2542274E+04  0.7818608E-02  0.8388078E-01
         -1   -1    0    0    0  501 -0.00000000000E+00  0.00000000000E+00  0.17912508700E+04  0.17912508700E+04  0.00000000000E+00 0.  1.
          1   -1    0    0  501    0  0.00000000000E+00 -0.00000000000E+00 -0.90204524642E+03  0.90204524642E+03  0.00000000000E+00 0. -1.
         23    2    1    2    0    0  0.50039059564E+03  0.14688808999E+03 -0.78170148344E+03  0.94289689924E+03  0.77656256743E+02 0.  0.
         13    1    3    3    0    0  0.56847701718E+02  0.42855530859E+02 -0.92358891683E+02  0.11661227461E+03  0.00000000000E+00 0.  1.
        -13    1    3    3    0    0  0.44354289392E+03  0.10403255913E+03 -0.68934259176E+03  0.82628462464E+03  0.00000000000E+00 0. -1.
         22    1    1    2    0    0 -0.50039059564E+03 -0.14688808999E+03  0.16709071070E+04  0.17503992172E+04  0.00000000000E+00 0.  1.
<mgrwt>
<rscale>  0 0.25422740E+04</rscale>
<asrwt>0</asrwt>
<pdfrwt beam="1">  1        1 0.13877619E+00 0.25422740E+04</pdfrwt>
<pdfrwt beam="2">  1       -1 0.27557706E+00 0.25422740E+04</pdfrwt>
<totfact> 0.76277821E-01</totfact>
</mgrwt>
</event>
<event>
 6    1  0.1072514E-005  0.3026303E+04  0.7818608E-02  0.8236260E-01
          2   -1    0    0  501    0  0.00000000000E+00  0.00000000000E+00  0.23931916434E+04  0.23931916434E+04  0.00000000000E+00 0.  1.
         -2   -1    0    0    0  501 -0.00000000000E+00 -0.00000000000E+00 -0.95672523478E+03  0.95672523478E+03  0.00000000000E+00 0. -1.
         23    2    1    2    0    0  0.77282708196E+03  0.42020048200E+02 -0.71860590267E+03  0.10600775716E+04  0.91338006329E+02 0.  0.
         11    1    3    3    0    0  0.12016949662E+03  0.18386159855E+02 -0.73282181306E+02  0.14194730321E+03  0.00000000000E+00 0.  1.
        -11    1    3    3    0    0  0.65265758534E+03  0.23633888345E+02 -0.64532372136E+03  0.91813026839E+03  0.00000000000E+00 0. -1.
         22    1    1    2    0    0 -0.77282708196E+03 -0.42020048200E+02  0.21550723113E+04  0.22898393066E+04  0.00000000000E+00 0.  1.
<mgrwt>
<rscale>  0 0.30263026E+04</rscale>
<asrwt>0</asrwt>
<pdfrwt beam="1">  1        2 0.36818333E+00 0.30263026E+04</pdfrwt>
<pdfrwt beam="2">  1       -2 0.14718850E+00 0.30263026E+04</pdfrwt>
<totfact> 0.10791812E+00</totfact>
</mgrwt>
</event>
<event>
 6    1  0.1072514E-005  0.1704955E+04  0.7818608E-02  0.8758544E-01
          1   -1    0    0  501    0  0.00000000000E+00  0.00000000000E+00  0.11680446825E+04  0.11680446825E+04  0.00000000000E+00 0. -1.
         -1   -1    0    0    0  501 -0.00000000000E+00 -0.00000000000E+00 -0.62216590119E+03  0.62216590119E+03  0.00000000000E+00 0.  1.
         23    2    1    2    0    0  0.25872023230E+02 -0.75020429141E+03 -0.14478987893E+03  0.77016203649E+03  0.93325307251E+02 0.  0.
         11    1    3    3    0    0  0.22265659701E+02 -0.41325976819E+03 -0.33144935224E+02  0.41518427515E+03  0.00000000000E+00 0.  1.
        -11    1    3    3    0    0  0.36063635292E+01 -0.33694452322E+03 -0.11164494371E+03  0.35497776133E+03  0.00000000000E+00 0. -1.
         22    1    1    2    0    0 -0.25872023230E+02  0.75020429141E+03  0.69066866023E+03  0.10200485472E+04  0.00000000000E+00 0. -1.
<mgrwt>
<rscale>  0 0.17049546E+04</rscale>
<asrwt>0</asrwt>
<pdfrwt beam="1">  1        1 0.17969918E+00 0.17049546E+04</pdfrwt>
<pdfrwt beam="2">  1       -1 0.95717831E-01 0.17049546E+04</pdfrwt>
<totfact> 0.11297112E+01</totfact>
</mgrwt>
</event>
<event>
 6    1  0.1072514E-005  0.1633127E+04  0.7818608E-02  0.8800452E-01
         -2   -1    0    0    0  501 -0.00000000000E+00  0.00000000000E+00  0.28044489261E+03  0.28044489261E+03  0.00000000000E+00 0.  1.
          2   -1    0    0  501    0  0.00000000000E+00 -0.00000000000E+00 -0.23775639924E+04  0.23775639924E+04  0.00000000000E+00 0. -1.
         23    2    1    2    0    0 -0.43286796779E+03  0.26270034804E+03 -0.20892410599E+04  0.21516017228E+04  0.89864437579E+02 0.  0.
         11    1    3    3    0    0 -0.60923113384E+02  0.75751906849E+02 -0.44338814316E+03  0.45391962134E+03  0.00000000000E+00 0.  1.
        -11    1    3    3    0    0 -0.37194485440E+03  0.18694844119E+03 -0.16458529167E+04  0.16976821015E+04  0.00000000000E+00 0. -1.
         22    1    1    2    0    0  0.43286796779E+03 -0.26270034804E+03 -0.78780399560E+01  0.50640716218E+03  0.00000000000E+00 0.  1.
<mgrwt>
<rscale>  0 0.16331267E+04</rscale>
<asrwt>0</asrwt>
<pdfrwt beam="1">  1        2 0.36577907E+00 0.16331267E+04</pdfrwt>
<pdfrwt beam="2">  1       -2 0.43145369E-01 0.16331267E+04</pdfrwt>
<totfact> 0.19976986E+01</totfact>
</mgrwt>
</event>
<event>
 6    1  0.1072514E-005  0.5721140E+04  0.7818608E-02  0.7725972E-01
         -2   -1    0    0    0  501 -0.00000000000E+00  0.00000000000E+00  0.20939626822E+04  0.20939626822E+04  0.00000000000E+00 0.  1.
          2   -1    0    0  501    0  0.00000000000E+00 -0.00000000000E+00 -0.39078348440E+04  0.39078348440E+04  0.00000000000E+00 0. -1.
         23    2    1    2    0    0  0.22258170235E+04 -0.14392890755E+04  0.21927300266E+03  0.26612146842E+04  0.90379645877E+02 0.  0.
         13    1    3    3    0    0  0.38884512146E+03 -0.29294787905E+03  0.37345151706E+02  0.48827620122E+03  0.00000000000E+00 0.  1.
        -13    1    3    3    0    0  0.18369719020E+04 -0.11463411965E+04  0.18192785096E+03  0.21729384829E+04  0.00000000000E+00 0. -1.
         22    1    1    2    0    0 -0.22258170235E+04  0.14392890755E+04 -0.20331451644E+04  0.33405828420E+04  0.00000000000E+00 0. -1.
<mgrwt>
<rscale>  0 0.57211399E+04</rscale>
<asrwt>0</asrwt>
<pdfrwt beam="1">  1        2 0.60120536E+00 0.57211399E+04</pdfrwt>
<pdfrwt beam="2">  1       -2 0.32214811E+00 0.57211399E+04</pdfrwt>
<totfact> 0.64436896E-03</totfact>
</mgrwt>
</event>
<event>
 6    1  0.1072514E-005  0.9521328E+03  0.7818608E-02  0.9362661E-01
         -1   -1    0    0    0  501 -0.00000000000E+00  0.00000000000E+00  0.61680777201E+03  0.61680777201E+03  0.00000000000E+00 0.  1.
          1   -1    0    0  501    0  0.00000000000E+00 -0.00000000000E+00 -0.36743896719E+03  0.36743896719E+03  0.00000000000E+00 0. -1.
         23    2    1    2    0    0  0.21874937998E+03 -0.75252375798E+02 -0.29918829995E+03  0.38890724908E+03  0.90669720726E+02 0.  0.
         13    1    3    3    0    0  0.20428163703E+03 -0.43503572727E+02 -0.27926441786E+03  0.34872935516E+03  0.00000000000E+00 0.  1.
        -13    1    3    3    0    0  0.14467742954E+02 -0.31748803070E+02 -0.19923882088E+02  0.40177893923E+02  0.00000000000E+00 0. -1.
         22    1    1    2    0    0 -0.21874937998E+03  0.75252375798E+02  0.54855710476E+03  0.59533949012E+03  0.00000000000E+00 0.  1.
<mgrwt>
<rscale>  0 0.95213279E+03</rscale>
<asrwt>0</asrwt>
<pdfrwt beam="1">  1        1 0.56529072E-01 0.95213279E+03</pdfrwt>
<pdfrwt beam="2">  1       -1 0.94893503E-01 0.95213279E+03</pdfrwt>
<totfact> 0.72521654E+01</totfact>
</mgrwt>
</event>
<event>
 6    1  0.1072514E-005  0.2992905E+04  0.7818608E-02  0.8245760E-01
          2   -1    0    0  501    0  0.00000000000E+00  0.00000000000E+00  0.14584963974E+04  0.14584963974E+04  0.00000000000E+00 0. -1.
         -2   -1    0    0    0  501 -0.00000000000E+00 -0.00000000000E+00 -0.15353967282E+04  0.15353967282E+04  0.00000000000E+00 0.  1.
         23    2    1    2    0    0 -0.60124385547E+03  0.12648054046E+04  0.48561223001E+03  0.14847055076E+04  0.85465321150E+02 0.  0.
         13    1    3    3    0    0 -0.26785007561E+03  0.49337501211E+03  0.16374611863E+03  0.58478659094E+03  0.00000000000E+00 0.  1.
        -13    1    3    3    0    0 -0.33339377986E+03  0.77143039253E+03  0.32186611138E+03  0.89991891669E+03  0.00000000000E+00 0. -1.
         22    1    1    2    0    0  0.60124385547E+03 -0.12648054046E+04 -0.56251256082E+03  0.15091876180E+04  0.00000000000E+00 0.  1.
<mgrwt>
<rscale>  0 0.29929053E+04</rscale>
<asrwt>0</asrwt>
<pdfrwt beam="1">  1        2 0.22438406E+00 0.29929053E+04</pdfrwt>
<pdfrwt beam="2">  1       -2 0.23621488E+00 0.29929053E+04</pdfrwt>
<totfact> 0.89750480E-01</totfact>
</mgrwt>
</event>
<event>
 6    1  0.1072514E-005  0.1978426E+04  0.7818608E-02  0.8616774E-01
         -1   -1    0    0    0  501 -0.00000000000E+00  0.00000000000E+00  0.77116244146E+03  0.77116244146E+03  0.00000000000E+00 0.  1.
          1   -1    0    0  501    0  0.00000000000E+00 -0.00000000000E+00 -0.12689185590E+04  0.12689185590E+04  0.00000000000E+00 0. -1.
         23    2    1    2    0    0 -0.28528832970E+03 -0.42711286418E+02 -0.12228693814E+04  0.12596946023E+04  0.90594051206E+02 0.  0.
         11    1    3    3    0    0 -0.21378361889E+03 -0.70431478102E+02 -0.87690129354E+03  0.90532861847E+03  0.00000000000E+00 0. -1.
        -11    1    3    3    0    0 -0.71504710805E+02  0.27720191684E+02 -0.34596808786E+03  0.35436598385E+03  0.00000000000E+00 0.  1.
         22    1    1    2    0    0  0.28528832970E+03  0.42711286418E+02  0.72511326384E+03  0.78038639816E+03  0.00000000000E+00 0.  1.
<mgrwt>
<rscale>  0 0.19784260E+04</rscale>
<asrwt>0</asrwt>
<pdfrwt beam="1">  1        1 0.19521824E+00 0.19784260E+04</pdfrwt>
<pdfrwt beam="2">  1       -1 0.11864038E+00 0.19784260E+04</pdfrwt>
<totfact> 0.56343437E+00</totfact>
</mgrwt>
</event>
<event>
 6    1  0.1072514E-005  0.7788222E+03  0.7818608E-02  0.9591187E-01
          1   -1    0    0  501    0  0.00000000000E+00  0.00000000000E+00  0.13101356486E+04  0.13101356486E+04  0.00000000000E+00 0. -1.
         -1   -1    0    0    0  501 -0.00000000000E+00 -0.00000000000E+00 -0.11574450876E+03  0.11574450876E+03  0.00000000000E+00 0.  1.
         23    2    1    2    0    0 -0.34263487612E+02  0.26448184566E+03  0.98618549092E+02  0.29812034077E+03  0.89585077378E+02 0.  0.
         13    1    3    3    0    0 -0.56572387780E+02  0.19138475510E+03  0.96470843808E+02  0.22166457373E+03  0.00000000000E+00 0.  1.
        -13    1    3    3    0    0  0.22308900168E+02  0.73097090563E+02  0.21477052842E+01  0.76455767038E+02  0.00000000000E+00 0. -1.
         22    1    1    2    0    0  0.34263487612E+02 -0.26448184566E+03  0.10957725907E+04  0.11277598166E+04  0.00000000000E+00 0. -1.
<mgrwt>
<rscale>  0 0.77882221E+03</rscale>
<asrwt>0</asrwt>
<pdfrwt beam="1">  1        1 0.20155932E+00 0.77882221E+03</pdfrwt>
<pdfrwt beam="2">  1       -1 0.17806848E-01 0.77882221E+03</pdfrwt>
<totfact> 0.22376157E+02</totfact>
</mgrwt>
</event>
<event>
 6    1  0.1072514E-005  0.2980658E+04  0.7818608E-02  0.8249276E-01
         -2   -1    0    0    0  501 -0.00000000000E+00  0.00000000000E+00  0.17989599521E+04  0.17989599521E+04  0.00000000000E+00 0. -1.
          2   -1    0    0  501    0  0.00000000000E+00 -0.00000000000E+00 -0.12346466896E+04  0.12346466896E+04  0.00000000000E+00 0.  1.
         23    2    1    2    0    0 -0.80685448614E+03 -0.11843637852E+04  0.69347845904E+03  0.15947128354E+04  0.92004982530E+02 0.  0.
         11    1    3    3    0    0 -0.13551872366E+03 -0.18590313252E+03  0.14890712661E+03  0.27404129524E+03  0.00000000000E+00 0. -1.
        -11    1    3    3    0    0 -0.67133576248E+03 -0.99846065270E+03  0.54457133243E+03  0.13206715402E+04  0.00000000000E+00 0.  1.
         22    1    1    2    0    0  0.80685448614E+03  0.11843637852E+04 -0.12916519657E+03  0.14388938062E+04  0.00000000000E+00 0.  1.
<mgrwt>
<rscale>  0 0.29806576E+04</rscale>
<asrwt>0</asrwt>
<pdfrwt beam="1">  1        2 0.18994564E+00 0.29806576E+04</pdfrwt>
<pdfrwt beam="2">  1       -2 0.27676307E+00 0.29806576E+04</pdfrwt>
<totfact> 0.68245675E-01</totfact>
</mgrwt>
</event>
<event>
 6    1  0.1072514E-005  0.2031647E+04  0.7818608E-02  0.8591966E-01
          1   -1    0    0  501    0  0.00000000000E+00  0.00000000000E+00  0.86556482822E+03  0.86556482822E+03  0.00000000000E+00 0.  1.
         -1   -1    0    0    0  501 -0.00000000000E+00 -0.00000000000E+00 -0.11921669007E+04  0.11921669007E+04  0.00000000000E+00 0. -1.
         23    2    1    2    0    0 -0.22938624671E+03 -0.77055527957E+03  0.46254529193E+03  0.93117633668E+03  0.82266237597E+02 0.  0.
         13    1    3    3    0    0 -0.92830763502E+01 -0.11973759407E+03  0.52372738632E+02  0.13101973398E+03  0.00000000000E+00 0. -1.
        -13    1    3    3    0    0 -0.22010317036E+03 -0.65081768550E+03  0.41017255330E+03  0.80015660270E+03  0.00000000000E+00 0.  1.
         22    1    1    2    0    0  0.22938624671E+03  0.77055527957E+03 -0.78914736443E+03  0.11265553923E+04  0.00000000000E+00 0. -1.
<mgrwt>
<rscale>  0 0.20316473E+04</rscale>
<asrwt>0</asrwt>
<pdfrwt beam="1">  1        1 0.13316382E+00 0.20316473E+04</pdfrwt>
<pdfrwt beam="2">  1       -1 0.18341029E+00 0.20316473E+04</pdfrwt>
<totfact> 0.35366875E+00</totfact>
</mgrwt>
</event>
<event>
 6    1  0.1072514E-005  0.1238827E+04  0.7818608E-02  0.9079535E-01
          2   -1    0    0  501    0  0.00000000000E+00  0.00000000000E+00  0.14247809588E+04  0.14247809588E+04  0.00000000000E+00 0. -1.
         -2   -1    0    0    0  501 -0.00000000000E+00 -0.00000000000E+00 -0.26928545261E+03  0.26928545261E+03  0.00000000000E+00 0.  1.
         23    2    1    2    0    0 -0.36567383250E+02 -0.29089363622E+03 -0.16075845045E+03  0.34555584064E+03  0.87231178503E+02 0.  0.
         13    1    3    3    0    0  0.23353061186E+02 -0.16242327683E+03 -0.83671754000E+02  0.18419459476E+03  0.00000000000E+00 0. -1.
        -13    1    3    3    0    0 -0.59920444436E+02 -0.12847035939E+03 -0.77086696450E+02  0.16136124588E+03  0.00000000000E+00 0.  1.
         22    1    1    2    0    0  0.36567383250E+02  0.29089363622E+03  0.13162539567E+04  0.13485105708E+04  0.00000000000E+00 0. -1.
<mgrwt>
<rscale>  0 0.12388265E+04</rscale>
<asrwt>0</asrwt>
<pdfrwt beam="1">  1        2 0.21919707E+00 0.12388265E+04</pdfrwt>
<pdfrwt beam="2">  1       -2 0.41428532E-01 0.12388265E+04</pdfrwt>
<totfact> 0.76053519E+01</totfact>
</mgrwt>
</event>
<event>
 6    1  0.1072514E-005  0.8588864E+03  0.7818608E-02  0.9478487E-01
         -2   -1    0    0    0  501 -0.00000000000E+00  0.00000000000E+00  0.15380498925E+03  0.15380498925E+03  0.00000000000E+00 0.  1.
          2   -1    0    0  501    0  0.00000000000E+00 -0.00000000000E+00 -0.11990602131E+04  0.11990602131E+04  0.00000000000E+00 0. -1.
         23    2    1    2    0    0  0.12087039384E+03 -0.15918890696E+03 -0.11186792709E+04  0.11399289422E+04  0.89687913019E+02 0.  0.
         13    1    3    3    0    0  0.49955232043E+02 -0.58787778948E+02 -0.22550166210E+03  0.23833280885E+03  0.00000000000E+00 0.  1.
        -13    1    3    3    0    0  0.70915161795E+02 -0.10040112801E+03 -0.89317760884E+03  0.90159613332E+03  0.00000000000E+00 0. -1.
         22    1    1    2    0    0 -0.12087039384E+03  0.15918890696E+03  0.73424047105E+02  0.21293626018E+03  0.00000000000E+00 0.  1.
<mgrwt>
<rscale>  0 0.85888636E+03</rscale>
<asrwt>0</asrwt>
<pdfrwt beam="1">  1        2 0.18447080E+00 0.85888636E+03</pdfrwt>
<pdfrwt beam="2">  1       -2 0.23662306E-01 0.85888636E+03</pdfrwt>
<totfact> 0.30128980E+02</totfact>
</mgrwt>
</event>
<event>
 6    1  0.1072514E-005  0.1054011E+04  0.7818608E-02  0.9251213E-01
          1   -1    0    0  501    0  0.00000000000E+00  0.00000000000E+00  0.92723178890E+03  0.92723178890E+03  0.00000000000E+00 0. -1.
         -1   -1    0    0    0  501 -0.00000000000E+00 -0.00000000000E+00 -0.29953100104E+03  0.29953100104E+03  0.00000000000E+00 0.  1.
         23    2    1    2    0    0 -0.99716099775E+02  0.71094806212E+02  0.90812167258E+03  0.92076663864E+03  0.90157964678E+02 0.  0.
         13    1    3    3    0    0 -0.63716803736E+02  0.68260419128E+02  0.37600962531E+03  0.38743070893E+03  0.00000000000E+00 0.  1.
        -13    1    3    3    0    0 -0.35999296039E+02  0.28343870837E+01  0.53211204728E+03  0.53333592971E+03  0.00000000000E+00 0. -1.
         22    1    1    2    0    0  0.99716099775E+02 -0.71094806212E+02 -0.28042088472E+03  0.30599615130E+03  0.00000000000E+00 0.  1.
<mgrwt>
<rscale>  0 0.10540108E+04</rscale>
<asrwt>0</asrwt>
<pdfrwt beam="1">  1        1 0.14265104E+00 0.10540108E+04</pdfrwt>
<pdfrwt beam="2">  1       -1 0.46081693E-01 0.10540108E+04</pdfrwt>
<totfact> 0.80891898E+01</totfact>
</mgrwt>
</event>
<event>
 6    1  0.1072514E-005  0.3629034E+04  0.7818608E-02  0.8083873E-01
          2   -1    0    0  501    0  0.00000000000E+00  0.00000000000E+00  0.24424561627E+04  0.24424561627E+04  0.00000000000E+00 0. -1.
         -2   -1    0    0    0  501 -0.00000000000E+00 -0.00000000000E+00 -0.13480167660E+04  0.13480167660E+04  0.00000000000E+00 0.  1.
         23    2    1    2    0    0  0.10913057285E+04  0.11093055114E+04 -0.42489054112E+03  0.16156464135E+04  0.90964008564E+02 0.  0.
         13    1    3    3    0    0  0.75037854528E+03  0.81076379700E+03 -0.32600138744E+03  0.11518171731E+04  0.00000000000E+00 0. -1.
        -13    1    3    3    0    0  0.34092718324E+03  0.29854171443E+03 -0.98889153679E+02  0.46382924039E+03  0.00000000000E+00 0.  1.
         22    1    1    2    0    0 -0.10913057285E+04 -0.11093055114E+04  0.15193299378E+04  0.21748265151E+04  0.00000000000E+00 0. -1.
<mgrwt>
<rscale>  0 0.36290340E+04</rscale>
<asrwt>0</asrwt>
<pdfrwt beam="1">  1        2 0.37576249E+00 0.36290340E+04</pdfrwt>
<pdfrwt beam="2">  1       -2 0.20738720E+00 0.36290340E+04</pdfrwt>
<totfact> 0.36375478E-01</totfact>
</mgrwt>
</event>
<event>
 6    1  0.1072514E-005  0.9930341E+03  0.7818608E-02  0.9316218E-01
          2   -1    0    0  501    0  0.00000000000E+00  0.00000000000E+00  0.10307506062E+04  0.10307506062E+04  0.00000000000E+00 0. -1.
         -2   -1    0    0    0  501 -0.00000000000E+00 -0.00000000000E+00 -0.23917444545E+03  0.23917444545E+03  0.00000000000E+00 0.  1.
         23    2    1    2    0    0  0.97155005072E+02 -0.32735314056E+03  0.85286821429E+03  0.92300158828E+03  0.89154738365E+02 0.  0.
         11    1    3    3    0    0  0.65656502241E+02 -0.79711862790E+02  0.25211949692E+03  0.27244999189E+03  0.00000000000E+00 0.  1.
        -11    1    3    3    0    0  0.31498502832E+02 -0.24764127777E+03  0.60074871737E+03  0.65055159639E+03  0.00000000000E+00 0. -1.
         22    1    1    2    0    0 -0.97155005072E+02  0.32735314056E+03 -0.61292053494E+02  0.34692346342E+03  0.00000000000E+00 0.  1.
<mgrwt>
<rscale>  0 0.99303415E+03</rscale>
<asrwt>0</asrwt>
<pdfrwt beam="1">  1        2 0.15857701E+00 0.99303415E+03</pdfrwt>
<pdfrwt beam="2">  1       -2 0.36796069E-01 0.99303415E+03</pdfrwt>
<totfact> 0.16709401E+02</totfact>
</mgrwt>
</event>
<event>
 6    1  0.1072514E-005  0.9968310E+03  0.7818608E-02  0.9312027E-01
          1   -1    0    0  501    0  0.00000000000E+00  0.00000000000E+00  0.99044710706E+03  0.99044710706E+03  0.00000000000E+00 0. -1.
         -1   -1    0    0    0  501 -0.00000000000E+00 -0.00000000000E+00 -0.25081399438E+03  0.25081399438E+03  0.00000000000E+00 0.  1.
         23    2    1    2    0    0  0.20686038920E+03 -0.42756375242E+03  0.54320500192E+03  0.72727084307E+03  0.90825228113E+02 0.  0.
         11    1    3    3    0    0  0.78057185181E+02 -0.10524178028E+03  0.20030248727E+03  0.23935296715E+03  0.00000000000E+00 0. -1.
        -11    1    3    3    0    0  0.12880320402E+03 -0.32232197214E+03  0.34290251464E+03  0.48791787592E+03  0.00000000000E+00 0.  1.
         22    1    1    2    0    0 -0.20686038920E+03  0.42756375242E+03  0.19642811077E+03  0.51399025838E+03  0.00000000000E+00 0.  1.
<mgrwt>
<rscale>  0 0.99683097E+03</rscale>
<asrwt>0</asrwt>
<pdfrwt beam="1">  1        1 0.15237648E+00 0.99683097E+03</pdfrwt>
<pdfrwt beam="2">  1       -1 0.38586769E-01 0.99683097E+03</pdfrwt>
<totfact> 0.10031374E+02</totfact>
</mgrwt>
</event>
<event>
 6    1  0.1072514E-005  0.5492664E+03  0.7818608E-02  0.1001664E+00
         -2   -1    0    0    0  501 -0.00000000000E+00  0.00000000000E+00  0.26204551424E+03  0.26204551424E+03  0.00000000000E+00 0. -1.
          2   -1    0    0  501    0  0.00000000000E+00 -0.00000000000E+00 -0.28782557427E+03  0.28782557427E+03  0.00000000000E+00 0.  1.
         23    2    1    2    0    0 -0.21362231485E+03  0.85150854866E+02  0.12299758773E+03  0.27597338871E+03  0.90264850309E+02 0.  0.
         13    1    3    3    0    0 -0.98177885623E+02  0.45288966530E+02  0.10817620680E+03  0.15294469403E+03  0.00000000000E+00 0.  1.
        -13    1    3    3    0    0 -0.11544442923E+03  0.39861888336E+02  0.14821380932E+02  0.12302869468E+03  0.00000000000E+00 0. -1.
         22    1    1    2    0    0  0.21362231485E+03 -0.85150854866E+02 -0.14877764776E+03  0.27389769981E+03  0.00000000000E+00 0.  1.
<mgrwt>
<rscale>  0 0.54926642E+03</rscale>
<asrwt>0</asrwt>
<pdfrwt beam="1">  1        2 0.44280858E-01 0.54926642E+03</pdfrwt>
<pdfrwt beam="2">  1       -2 0.40314694E-01 0.54926642E+03</pdfrwt>
<totfact> 0.67370472E+02</totfact>
</mgrwt>
</event>
<event>
 6    1  0.1072514E-005  0.3847502E+04  0.7818608E-02  0.8036037E-01
         -2   -1    0    0    0  501 -0.00000000000E+00  0.00000000000E+00  0.16608047923E+04  0.16608047923E+04  0.00000000000E+00 0.  1.
          2   -1    0    0  501    0  0.00000000000E+00 -0.00000000000E+00 -0.22283276492E+04  0.22283276492E+04  0.00000000000E+00 0. -1.
         23    2    1    2    0    0 -0.50538270397E+03 -0.18518883621E+04 -0.39454012513E+03  0.19617442583E+04  0.88749319053E+02 0.  0.
         11    1    3    3    0    0 -0.22510737552E+03 -0.67089874392E+03 -0.15935581117E+03  0.72537764624E+03  0.00000000000E+00 0. -1.
        -11    1    3    3    0    0 -0.28027532845E+03 -0.11809896182E+04 -0.23518431396E+03  0.12363666121E+04  0.00000000000E+00 0.  1.
         22    1    1    2    0    0  0.50538270397E+03  0.18518883621E+04 -0.17298273184E+03  0.19273881832E+04  0.00000000000E+00 0. -1.
<mgrwt>
<rscale>  0 0.38475017E+04</rscale>
<asrwt>0</asrwt>
<pdfrwt beam="1">  1        2 0.34281964E+00 0.38475017E+04</pdfrwt>
<pdfrwt beam="2">  1       -2 0.25550843E+00 0.38475017E+04</pdfrwt>
<totfact> 0.23633219E-01</totfact>
</mgrwt>
</event>
<event>
 6    1  0.1072514E-005  0.1833058E+04  0.7818608E-02  0.8688915E-01
         -1   -1    0    0    0  501 -0.00000000000E+00  0.00000000000E+00  0.90809112369E+03  0.90809112369E+03  0.00000000000E+00 0.  1.
          1   -1    0    0  501    0  0.00000000000E+00 -0.00000000000E+00 -0.92504491007E+03  0.92504491007E+03  0.00000000000E+00 0. -1.
         23    2    1    2    0    0 -0.24540131615E+03 -0.25102954763E+03 -0.85282606531E+03  0.92653793844E+03  0.89009066603E+02 0.  0.
         11    1    3    3    0    0 -0.18947957875E+03 -0.14562479050E+03 -0.62950184610E+03  0.67333621959E+03  0.00000000000E+00 0.  1.
        -11    1    3    3    0    0 -0.55921737402E+02 -0.10540475713E+03 -0.22332421921E+03  0.25320171885E+03  0.00000000000E+00 0. -1.
         22    1    1    2    0    0  0.24540131615E+03  0.25102954763E+03  0.83587227893E+03  0.90659809532E+03  0.00000000000E+00 0.  1.
<mgrwt>
<rscale>  0 0.18330576E+04</rscale>
<asrwt>0</asrwt>
<pdfrwt beam="1">  1        1 0.14231460E+00 0.18330576E+04</pdfrwt>
<pdfrwt beam="2">  1       -1 0.13970633E+00 0.18330576E+04</pdfrwt>
<totfact> 0.68856031E+00</totfact>
</mgrwt>
</event>
<event>
 6    1  0.1072514E-005  0.6116805E+03  0.7818608E-02  0.9881465E-01
          2   -1    0    0  501    0  0.00000000000E+00  0.00000000000E+00  0.16852194858E+03  0.16852194858E+03  0.00000000000E+00 0. -1.
         -2   -1    0    0    0  501 -0.00000000000E+00 -0.00000000000E+00 -0.55505095221E+03  0.55505095221E+03  0.00000000000E+00 0.  1.
         23    2    1    2    0    0 -0.12200662590E+03 -0.27233781921E+03 -0.17414147739E+03  0.35729163477E+03  0.90986557224E+02 0.  0.
         13    1    3    3    0    0 -0.86687986966E+02 -0.20487403506E+03 -0.80455740332E+02  0.23656141587E+03  0.00000000000E+00 0. -1.
        -13    1    3    3    0    0 -0.35318638936E+02 -0.67463784149E+02 -0.93685737061E+02  0.12073021890E+03  0.00000000000E+00 0.  1.
         22    1    1    2    0    0  0.12200662590E+03  0.27233781921E+03 -0.21238752624E+03  0.36628126602E+03  0.00000000000E+00 0.  1.
<mgrwt>
<rscale>  0 0.61168053E+03</rscale>
<asrwt>0</asrwt>
<pdfrwt beam="1">  1        2 0.25926454E-01 0.61168053E+03</pdfrwt>
<pdfrwt beam="2">  1       -2 0.85392454E-01 0.61168053E+03</pdfrwt>
<totfact> 0.25340900E+02</totfact>
</mgrwt>
</event>
<event>
 6    1  0.1072514E-005  0.8275125E+03  0.7818608E-02  0.9521026E-01
         -1   -1    0    0    0  501 -0.00000000000E+00  0.00000000000E+00  0.43359606686E+03  0.43359606686E+03  0.00000000000E+00 0.  1.
          1   -1    0    0  501    0  0.00000000000E+00 -0.00000000000E+00 -0.39482424359E+03  0.39482424359E+03  0.00000000000E+00 0. -1.
         23    2    1    2    0    0  0.14022367733E+03 -0.32280847336E+03 -0.18818531409E+03  0.40963930281E+03  0.92318231181E+02 0.  0.
         13    1    3    3    0    0  0.11404278230E+03 -0.25060776132E+03 -0.18698980161E+03  0.33282907345E+03  0.00000000000E+00 0. -1.
        -13    1    3    3    0    0  0.26180895029E+02 -0.72200712042E+02 -0.11955124824E+01  0.76810229358E+02  0.00000000000E+00 0.  1.
         22    1    1    2    0    0 -0.14022367733E+03  0.32280847336E+03  0.22695713736E+03  0.41878100764E+03  0.00000000000E+00 0.  1.
<mgrwt>
<rscale>  0 0.82751251E+03</rscale>
<asrwt>0</asrwt>
<pdfrwt beam="1">  1        1 0.60742191E-01 0.82751251E+03</pdfrwt>
<pdfrwt beam="2">  1       -1 0.66707088E-01 0.82751251E+03</pdfrwt>
<totfact> 0.14058040E+02</totfact>
</mgrwt>
</event>
